      -----------------------------------------------------------      
     |                   =====================                   |     
     |                           x T B                           |     
     |                   =====================                   |     
     |                         S. Grimme                         |     
     |          Mulliken Center for Theoretical Chemistry        |     
     |                    University of Bonn                     |     
     |                 Version 6.0.1 (SAW181210)                 |     
      -----------------------------------------------------------      

   This program is distributed in the hope that it will be useful,
   but WITHOUT ANY WARRANTY; without even the implied warranty of
   MERCHANTABILITY or FITNESS FOR A PARTICULAR PURPOSE.
   
   FOR NON-COMMERCIAL, ACADEMIA USE ONLY.
   
   Cite this work as:
   S. Grimme, C. Bannwarth, P. Shushkov, J. Comput. Theory Chem., 2017,
   13, 1989-2009.
   C. Bannwarth, S. Ehlert and S. Grimme., ChemRxiv, 2018, preprint.
   http://doi.org/10.26434/chemrxiv.7246238.v1
   
   for sTDA-xTB:
   S. Grimme and C. Bannwarth, J. Chem. Phys., 2016, 145, 054103.
   
   in the mass-spec context:
   V. Asgeirsson, C. Bauer and S. Grimme, Chem. Sci., 2017, 8, 4879.
   
   if GBSA is used:
   P. Shushkov, F. März and S. Grimme, unpublished.
   
   for ANC optimizer:
   S. Grimme, unpublished.
   Rational Function algorithm used in ANCopt:
   F. Eckert, P. Pulay, H.-J. Werner, J. Comput. Chem., 1997, 18, 1473.
   
   with help from (in alphabetical order)
   C. Bannwarth, F. Bohle, G. Brandenburg, E. Caldeweyher, M. Checinski,
   S. Dohm, S. Ehlert, S. Ehrlich, F. März, H. Neugebauer, J. Pisarek,
   P. Pracht, P. Shushkov, and S. Spicher.
   
 * started run on 2019/03/14 at 15:08:20.359     
========================================================================
 # omp threads = 1
========================================================================
number of atoms            : 408
number of electrons        : 1078
charge                     : 0
spin                       : .0
first test random number   : .3652
           ------------------------------------------------- 
          |                 G F N 2 - x T B                 |
          | Geometry, Frequencies, Noncovalent interactions |
          |            JCTC 2018 parametrisation            |
           ------------------------------------------------- 
 
      method parameters     
 k(s)        :  1.8500
 k(p)        :  2.2300
 k(d)        :  2.2300
 k(f)        :  2.0000
 kEN (H0ij)  : -2.0000
 D4 a1       :  0.5200
 D4 a2       :  5.0000
 D4 s6       :  1.0000
 D4 s8       :  2.7000
 D4 s9       :  5.0000
 alphaj      :  2.0000

 Solvent             : h2o
 Using internal parameter file: .param_gbsa2_h2o
 Gsolv ref. state (COSMO-RS): gsolv [1 M gas/solution]
 temperature (mdtemp)       :    298.150000000000     
 dielectric constant        :    80.2000000000000     
 rho                        :    1.00000000000000     
 mass                       :    18.0000000000000     
 surface tension            :    15.5689454083859     
 probe radius               :   0.975313790000000     
 vdW radii scaling          :    1.00000000000000     
 Gshift (Eh)                :   1.857443126794793E-003
 c1                         :    1.55243817000000     
 soset                      :   0.130326360000000     
 HB correction              :  T

            Z     q(EN)     CN     RAES       Cart. coordinates
     1  N   5.0   -0.21    3.20    1.96    77.59888    99.44642    25.13325
     2  C   4.0    0.03    4.23    4.06    78.18554    98.40711    27.57799
     3  C   4.0    0.08    3.21    3.04    75.91965    97.76175    29.24159
     4  O   6.0   -0.31    1.17    1.80    76.17039    97.87697    31.54449
     5  C   4.0   -0.04    4.33    4.25    79.97112   100.18555    28.97979
     6  C   4.0   -0.04    4.22    4.04    78.71420   102.59297    29.96033
     7  C   4.0   -0.06    4.19    3.97    80.70164   104.51327    30.82246
     8  C   4.0   -0.03    4.14    3.88    80.57784   106.83755    29.14471
     9  N   5.0   -0.11    4.04    2.96    82.75857   108.56262    29.61334
    10  H   1.0    0.08    1.03    1.43    77.55101   101.35032    24.99253
    11  H   1.0    0.04    1.05    1.44    79.13827    96.58463    27.24435
    12  H   1.0    0.04    1.06    1.44    80.69963    99.19332    30.61129
    13  H   1.0    0.04    1.03    1.43    81.53662   100.60242    27.70663
    14  H   1.0    0.04    1.04    1.43    77.55455   103.47770    28.51729
    15  H   1.0    0.06    1.03    1.43    77.49595   102.09669    31.54197
    16  H   1.0    0.04    1.03    1.43    80.35830   105.00725    32.78604
    17  H   1.0    0.04    1.04    1.43    82.57206   103.67630    30.64710
    18  H   1.0    0.05    1.03    1.43    80.59837   106.22990    27.18537
    19  H   1.0    0.04    1.02    1.43    78.80342   107.84434    29.43738
    20  H   1.0    0.09    1.17    1.46    82.12185   110.53294    29.80671
    21  H   1.0    0.06    1.03    1.43    83.64516   107.98434    31.23738
    22  H   1.0    0.08    1.02    1.43    84.04055   108.50061    28.16064
    23  N   5.0   -0.20    3.24    1.96    78.31618    92.28456    33.48663
    24  C   4.0    0.03    4.20    3.99    79.97796    93.60985    35.23375
    25  C   4.0    0.08    3.25    3.04    78.35055    94.98195    37.18814
    26  O   6.0   -0.29    1.11    1.80    78.81904    94.88764    39.46484
    27  C   4.0   -0.05    4.35    4.29    81.66865    95.29205    33.58356
    28  C   4.0   -0.02    4.17    3.95    82.91826    97.61227    34.76962
    29  C   4.0   -0.08    4.14    3.87    84.57982    98.96408    32.80541
    30  C   4.0   -0.07    4.15    3.90    81.01305    99.48439    35.85893
    31  H   1.0    0.09    1.03    1.43    78.39206    92.81159    31.65708
    32  H   1.0    0.05    1.05    1.44    81.09685    92.23084    36.30472
    33  H   1.0    0.04    1.03    1.43    83.16081    94.07544    32.84561
    34  H   1.0    0.05    1.05    1.44    80.49238    95.93384    32.01912
    35  H   1.0    0.04    1.07    1.44    84.15455    96.95886    36.27128
    36  H   1.0    0.04    1.01    1.43    83.96375   100.89192    32.51952
    37  H   1.0    0.04    1.01    1.43    86.47864    99.04867    33.55434
    38  H   1.0    0.03    1.00    1.43    84.61356    98.01153    30.98804
    39  H   1.0    0.03    1.01    1.43    81.87312   101.34221    35.94956
    40  H   1.0    0.05    1.00    1.43    79.33654    99.58865    34.68701
    41  H   1.0    0.05    1.01    1.43    80.46496    98.94884    37.75848
    42  N   5.0   -0.22    3.24    1.96   109.12715   101.83580    41.67649
    43  C   4.0    0.02    4.38    4.34   106.73935   102.44126    40.42904
    44  C   4.0    0.14    3.45    3.09   106.98960   104.72291    38.68730
    45  O   6.0   -0.34    1.32    1.80   105.41742   105.10747    37.01011
    46  C   4.0   -0.02    4.27    4.14   104.62759   102.85219    42.40590
    47  C   4.0   -0.07    4.15    3.91   102.73940   104.93812    41.78333
    48  C   4.0   -0.08    4.12    3.84   103.20579   100.38880    42.82468
    49  H   1.0    0.08    1.03    1.43   109.04566   101.59232    43.57591
    50  H   1.0    0.04    1.05    1.44   106.23449   100.83063    39.21066
    51  H   1.0    0.04    1.07    1.44   105.57493   103.41101    44.14252
    52  H   1.0    0.03    1.00    1.43   101.39424   105.03873    43.33231
    53  H   1.0    0.05    1.02    1.43   103.69366   106.74047    41.62792
    54  H   1.0    0.06    1.00    1.43   101.73434   104.55103    40.04004
    55  H   1.0    0.04    1.00    1.43   101.90674   100.60593    44.39572
    56  H   1.0    0.04    1.00    1.43   102.13962    99.92092    41.13472
    57  H   1.0    0.04    1.00    1.43   104.51279    98.87045    43.25424
    58  N   5.0   -0.15    3.50    2.08   108.97271   106.20656    39.05837
    59  C   4.0    0.03    4.33    4.26   109.51621   108.37114    37.51294
    60  C   4.0    0.07    3.23    3.04   111.64564   107.89009    35.57919
    61  O   6.0   -0.30    1.12    1.80   111.97256   109.35389    33.81747
    62  C   4.0   -0.03    4.33    4.25   110.30562   110.64507    39.13545
    63  C   4.0   -0.02    3.56    3.15   108.83723   110.91290    41.55686
    64  C   4.0   -0.04    3.49    3.11   110.14403   111.41115    43.77682
    65  C   4.0   -0.04    3.50    3.11   106.24609   110.56069    41.71772
    66  C   4.0   -0.04    3.37    3.07   108.90713   111.90395    46.02388
    67  C   4.0   -0.05    3.42    3.09   105.01816   110.82654    44.02027
    68  C   4.0   -0.04    3.37    3.07   106.30707   111.68332    46.12530
    69  H   1.0    0.08    1.08    1.44   109.99857   106.01778    40.67049
    70  H   1.0    0.06    1.06    1.44   107.80883   108.81376    36.42512
    71  H   1.0    0.04    1.04    1.43   112.30585   110.44769    39.61072
    72  H   1.0    0.05    1.03    1.43   110.10444   112.31645    37.93704
    73  H   1.0    0.05    1.03    1.43   112.18018   111.39439    43.73037
    74  H   1.0    0.05    1.03    1.43   105.18757   110.07627    40.04094
    75  H   1.0    0.05    1.03    1.43   109.98255   112.37895    47.69373
    76  H   1.0    0.04    1.03    1.43   103.05003   110.33188    44.20266
    77  H   1.0    0.05    1.03    1.43   105.29658   112.15233    47.83359
    78  N   5.0   -0.21    3.27    1.97   111.98024   101.59187    33.43699
    79  C   4.0    0.03    4.29    4.19   110.55397    99.62826    32.16159
    80  C   4.0    0.14    3.48    3.11   109.14174   100.71215    29.88721
    81  O   6.0   -0.31    1.32    1.80   108.91141    99.41717    27.97206
    82  C   4.0   -0.05    4.36    4.31   108.84629    98.25477    34.08123
    83  C   4.0   -0.03    4.17    3.94   107.70246    95.70048    33.33505
    84  C   4.0   -0.08    4.14    3.88   109.82779    93.84289    32.81498
    85  C   4.0   -0.08    4.13    3.85   106.15310    94.75627    35.58059
    86  H   1.0    0.08    1.03    1.43   111.44593   101.94219    35.25588
    87  H   1.0    0.04    1.06    1.44   111.86867    98.24109    31.35944
    88  H   1.0    0.04    1.05    1.44   110.06727    97.86108    35.68903
    89  H   1.0    0.04    1.03    1.43   107.38677    99.54216    34.75343
    90  H   1.0    0.04    1.06    1.44   106.54622    95.83558    31.64527
    91  H   1.0    0.04    1.00    1.43   109.14325    91.91980    32.59160
    92  H   1.0    0.04    1.00    1.43   110.83737    94.38054    31.11402
    93  H   1.0    0.04    1.01    1.43   111.13878    93.88450    34.38872
    94  H   1.0    0.03    1.00    1.43   105.14488    93.02973    35.12778
    95  H   1.0    0.04    1.01    1.43   107.46623    94.38359    37.11228
    96  H   1.0    0.03    1.00    1.43   104.78644    96.15256    36.20575
    97  N   5.0   -0.11    3.63    2.19   108.15534   103.05689    29.96713
    98  C   4.0    0.04    4.48    4.51   107.09663   104.12907    27.66885
    99  C   4.0    0.09    3.20    3.04   109.03329   104.63365    25.56808
   100  O   6.0   -0.29    1.12    1.80   108.52350   103.96771    23.40288
   101  C   4.0   -0.05    4.28    4.16   105.72401   106.56341    28.44955
   102  C   4.0   -0.04    4.21    4.03   106.40830   107.03591    31.22579
   103  C   4.0   -0.00    4.38    4.34   107.97679   104.76637    32.10727
   104  H   1.0    0.06    1.06    1.44   105.80462   102.74400    26.82272
   105  H   1.0    0.05    1.03    1.43   106.34705   108.10587    27.24053
   106  H   1.0    0.04    1.02    1.43   103.69101   106.37072    28.20908
   107  H   1.0    0.05    1.03    1.43   107.56533   108.72681    31.40046
   108  H   1.0    0.04    1.02    1.43   104.72230   107.29828    32.36924
   109  H   1.0    0.06    1.06    1.44   109.83161   105.43175    32.65294
   110  H   1.0    0.06    1.04    1.43   107.18849   103.81069    33.74935
   111  N   5.0   -0.19    3.21    1.96   110.92962    98.07354    23.40207
   112  C   4.0    0.03    4.23    4.05   108.95200    96.32453    22.62153
   113  C   4.0    0.16    3.44    3.09   106.34354    97.57911    22.74672
   114  O   6.0   -0.31    1.38    1.80   104.75626    96.88911    24.27216
   115  C   4.0   -0.06    4.14    3.88   108.89077    93.98061    24.31147
   116  H   1.0    0.13    1.07    1.44   110.47210    99.23165    24.85697
   117  H   1.0    0.04    1.05    1.44   109.36970    95.77260    20.66703
   118  H   1.0    0.05    1.00    1.43   107.35226    92.75715    23.71935
   119  H   1.0    0.04    1.00    1.43   110.66487    92.96294    24.14533
   120  H   1.0    0.06    1.00    1.43   108.58880    94.56639    26.25746
   121  N   5.0   -0.14    3.35    2.00   105.78543    99.32220    20.98724
   122  C   4.0    0.02    4.26    4.11   103.49114   100.81359    21.20386
   123  C   4.0    0.16    3.39    3.08   101.13558    99.26882    21.81296
   124  O   6.0   -0.31    1.29    1.80    99.57907   100.03503    23.34616
   125  H   1.0    0.09    1.06    1.44   107.17740   100.02666    19.89480
   126  H   1.0    0.06    1.02    1.43   103.67550   102.24432    22.69266
   127  H   1.0    0.05    1.03    1.43   103.15343   101.77914    19.41220
   128  N   5.0   -0.14    3.48    2.07   100.81765    97.12246    20.49872
   129  C   4.0    0.03    4.40    4.38    98.53226    95.60437    20.61868
   130  C   4.0    0.15    3.54    3.14    97.85742    94.79196    23.29604
   131  O   6.0   -0.30    1.27    1.80    95.67877    94.27603    23.89582
   132  C   4.0   -0.04    4.30    4.19    98.82527    93.20702    19.02774
   133  C   4.0   -0.02    4.19    3.98    96.34827    91.77820    18.74319
   134  C   4.0    0.25    3.09    3.02    96.63834    89.29594    17.17516
   135  O   6.0   -0.28    1.18    1.80    98.79212    88.73941    16.40132
   136  O   6.0   -0.27    1.16    1.80    94.65561    88.06244    16.83698
   137  H   1.0    0.08    1.07    1.44   102.13592    96.58236    19.23319
   138  H   1.0    0.06    1.05    1.44    96.91887    96.70746    19.91272
   139  H   1.0    0.05    1.03    1.43    99.50296    93.69600    17.14232
   140  H   1.0    0.06    1.03    1.43   100.21657    91.94953    19.89146
   141  H   1.0    0.07    1.03    1.43    95.56537    91.23808    20.57416
   142  H   1.0    0.06    1.02    1.43    94.93567    92.94513    17.79279
   143  N   5.0   -0.14    3.55    2.11    99.78015    94.63705    24.92110
   144  C   4.0    0.04    4.45    4.46    99.28475    94.17707    27.55750
   145  C   4.0    0.15    3.60    3.16    97.39856    96.02925    28.66235
   146  O   6.0   -0.33    1.49    1.80    96.67407    95.70507    30.85496
   147  C   4.0   -0.05    4.29    4.19   101.75334    94.43434    29.04775
   148  C   4.0   -0.03    4.26    4.13   102.61002    97.19430    29.20602
   149  C   4.0   -0.05    4.19    3.97   101.74643    98.51624    31.62630
   150  C   4.0   -0.04    4.15    3.90   102.95442   101.11963    31.77530
   151  N   5.0   -0.12    4.05    3.00   102.01780   102.65925    33.93603
   152  H   1.0    0.11    1.11    1.45   101.53502    95.27592    24.46981
   153  H   1.0    0.05    1.05    1.44    98.44508    92.29034    27.79500
   154  H   1.0    0.04    1.03    1.43   101.47167    93.66831    30.93738
   155  H   1.0    0.04    1.03    1.43   103.18002    93.31908    28.06825
   156  H   1.0    0.06    1.04    1.43   104.66110    97.25374    29.09625
   157  H   1.0    0.07    1.04    1.43   101.95151    98.19853    27.53957
   158  H   1.0    0.05    1.05    1.44    99.70115    98.66134    31.66176
   159  H   1.0    0.04    1.03    1.43   102.37277    97.37460    33.21912
   160  H   1.0    0.04    1.06    1.44   104.96960   100.80197    31.96396
   161  H   1.0    0.04    1.03    1.43   102.63188   102.14477    30.02177
   162  H   1.0    0.08    1.05    1.44   103.18549   104.19252    34.31903
   163  H   1.0    0.06    1.03    1.43   100.22452   103.35056    33.61401
   164  H   1.0    0.07    1.04    1.43   101.94249   101.64207    35.61134
   165  N   5.0   -0.13    3.54    2.11    96.67291    98.03502    27.36193
   166  C   4.0    0.03    4.46    4.48    95.16578    99.96715    28.56721
   167  C   4.0    0.16    3.51    3.12    93.23909    98.89519    30.44575
   168  O   6.0   -0.32    1.24    1.80    92.88244    99.95420    32.46778
   169  C   4.0   -0.04    4.32    4.23    93.87900   101.61635    26.55688
   170  C   4.0   -0.03    4.05    3.70    93.19397   104.22888    27.55143
   171  S   6.0   -0.03    2.55    3.10    95.77926   106.48584    27.45042
   172  C   4.0   -0.07    3.92    3.49    97.86711   105.20459    29.92347
   173  H   1.0    0.11    1.12    1.45    97.40109    98.52867    25.65217
   174  H   1.0    0.04    1.09    1.44    96.44561   101.13511    29.68536
   175  H   1.0    0.06    1.04    1.43    95.12572   101.81261    24.91854
   176  H   1.0    0.05    1.03    1.43    92.15421   100.66149    25.96441
   177  H   1.0    0.06    1.08    1.44    91.73716   105.10635    26.38418
   178  H   1.0    0.05    1.07    1.44    92.50062   104.09030    29.48407
   179  H   1.0    0.05    1.06    1.44    99.10015   106.77251    30.37763
   180  H   1.0    0.04    1.03    1.43    96.68837   104.65231    31.51723
   181  H   1.0    0.04    1.04    1.43    98.95613   103.66647    29.11678
   182  N   5.0   -0.13    3.53    2.10    91.90760    96.85582    29.73729
   183  C   4.0    0.04    4.43    4.43    89.96454    95.82951    31.37077
   184  C   4.0    0.16    3.44    3.09    91.05351    94.36303    33.61783
   185  O   6.0   -0.32    1.27    1.80    90.24922    94.66401    35.76863
   186  C   4.0    0.02    4.14    3.89    88.13806    94.21008    29.82173
   187  O   6.0   -0.25    2.07    1.83    89.50899    92.23646    28.66864
   188  H   1.0    0.10    1.07    1.44    92.26929    95.94434    28.09999
   189  H   1.0    0.05    1.08    1.44    88.95828    97.42262    32.21178
   190  H   1.0    0.04    1.01    1.43    86.67017    93.43880    31.06962
   191  H   1.0    0.04    1.01    1.43    87.26158    95.44226    28.40302
   192  H   1.0    0.12    1.02    1.43    88.43731    91.32534    27.51038
   193  N   5.0   -0.13    3.58    2.14    92.95335    92.85581    32.99807
   194  C   4.0    0.03    4.38    4.35    94.62685    91.59227    34.76571
   195  C   4.0    0.16    3.51    3.12    95.33716    93.46275    36.84214
   196  O   6.0   -0.32    1.36    1.80    95.18793    92.91847    39.09317
   197  C   4.0   -0.05    4.38    4.35    96.80145    90.56107    33.14290
   198  C   4.0   -0.02    4.16    3.92    99.01592    89.28591    34.47762
   199  C   4.0   -0.08    4.10    3.80   100.79841    88.16364    32.48730
   200  C   4.0   -0.07    4.13    3.86   100.40305    91.16924    36.17408
   201  H   1.0    0.10    1.10    1.44    93.41165    92.80740    31.14934
   202  H   1.0    0.05    1.05    1.44    93.64336    90.04245    35.72663
   203  H   1.0    0.04    1.04    1.43    95.92793    89.17472    31.89226
   204  H   1.0    0.06    1.06    1.44    97.53417    92.13533    32.04278
   205  H   1.0    0.04    1.06    1.44    98.26811    87.72987    35.60168
   206  H   1.0    0.04    1.00    1.43   102.20342    86.92783    33.34079
   207  H   1.0    0.04    1.00    1.43    99.73600    87.03269    31.14134
   208  H   1.0    0.04    1.00    1.43   101.80015    89.64394    31.48173
   209  H   1.0    0.04    1.00    1.43   102.33478    90.57025    36.51440
   210  H   1.0    0.04    1.00    1.43   100.43864    93.01472    35.28027
   211  H   1.0    0.05    1.01    1.43    99.48372    91.31909    38.00111
   212  N   5.0   -0.14    3.54    2.11    96.06957    95.74442    36.06686
   213  C   4.0    0.03    4.41    4.39    96.81570    97.68759    37.82925
   214  C   4.0    0.16    3.54    3.13    94.78351    98.12446    39.81462
   215  O   6.0   -0.33    1.34    1.80    95.34612    98.56250    42.01928
   216  C   4.0    0.03    4.19    3.98    97.23174   100.18740    36.40571
   217  O   6.0   -0.28    2.09    1.84    98.79261   101.84364    37.76522
   218  H   1.0    0.11    1.12    1.45    96.11943    96.16903    34.19851
   219  H   1.0    0.05    1.05    1.44    98.54233    97.11215    38.83928
   220  H   1.0    0.04    1.03    1.43    98.17787    99.76505    34.62933
   221  H   1.0    0.06    1.02    1.43    95.40796   101.04598    35.94387
   222  H   1.0    0.12    1.03    1.43    98.05714   102.14152    39.40923
   223  N   5.0   -0.14    3.55    2.11    92.43427    98.23842    38.94014
   224  C   4.0    0.04    4.54    4.59    90.38347    98.59293    40.71758
   225  C   4.0    0.16    3.61    3.17    90.57169    96.54596    42.72124
   226  O   6.0   -0.30    1.29    1.80    90.32222    97.03147    44.96649
   227  C   4.0   -0.02    4.32    4.24    87.77230    98.64170    39.43296
   228  C   4.0   -0.06    4.18    3.96    86.68346   101.32713    39.48325
   229  C   4.0   -0.07    4.19    3.97    85.94984    96.70364    40.58344
   230  C   4.0   -0.08    4.04    3.70    85.61340   102.03737    42.05613
   231  H   1.0    0.11    1.08    1.44    92.03973    97.92212    37.09793
   232  H   1.0    0.05    1.07    1.44    90.73379   100.37813    41.70524
   233  H   1.0    0.05    1.07    1.44    88.08134    98.11282    37.46157
   234  H   1.0    0.04    1.03    1.43    88.16623   102.64716    38.92005
   235  H   1.0    0.03    1.03    1.43    85.17257   101.43151    38.09694
   236  H   1.0    0.05    1.00    1.43    84.01953    97.11689    40.03731
   237  H   1.0    0.05    1.00    1.43    86.40193    94.80823    39.93685
   238  H   1.0    0.06    1.01    1.43    86.00277    96.69383    42.63286
   239  H   1.0    0.03    1.00    1.43    85.06841   104.01227    42.11368
   240  H   1.0    0.04    1.01    1.43    83.95273   100.91072    42.43665
   241  H   1.0    0.04    1.00    1.43    86.97871   101.67929    43.54637
   242  N   5.0   -0.13    3.56    2.12    91.05541    94.21949    41.87837
   243  C   4.0    0.04    4.40    4.38    91.14118    92.15129    43.66882
   244  C   4.0    0.18    3.52    3.12    93.07024    92.78021    45.73788
   245  O   6.0   -0.26    1.23    1.80    92.62180    92.44364    47.98354
   246  C   4.0    0.04    4.14    3.88    91.77071    89.62858    42.35196
   247  O   6.0   -0.24    2.07    1.83    94.34025    89.02864    42.31545
   248  H   1.0    0.11    1.08    1.44    90.99304    93.84293    40.00281
   249  H   1.0    0.06    1.05    1.44    89.29987    91.99294    44.61357
   250  H   1.0    0.05    1.02    1.43    90.83359    88.11029    43.38518
   251  H   1.0    0.05    1.01    1.43    91.00547    89.69306    40.42301
   252  H   1.0    0.15    1.07    1.44    95.17653    90.19304    41.15624
   253  N   5.0   -0.13    3.52    2.10    95.24179    93.72998    44.88196
   254  C   4.0    0.04    4.35    4.29    97.15444    94.62032    46.62687
   255  C   4.0    0.17    3.52    3.12    95.99301    96.61885    48.35810
   256  O   6.0   -0.26    1.29    1.80    96.12561    96.38942    50.66737
   257  C   4.0   -0.07    4.11    3.83    99.42278    95.70469    45.23999
   258  H   1.0    0.11    1.09    1.44    95.50795    93.94421    42.99884
   259  H   1.0    0.06    1.05    1.44    97.71138    93.05553    47.87435
   260  H   1.0    0.04    1.00    1.43   100.80510    96.36145    46.60910
   261  H   1.0    0.04    1.00    1.43   100.30115    94.28078    44.05249
   262  H   1.0    0.06    1.01    1.43    98.80218    97.28324    44.08942
   263  N   5.0   -0.13    3.51    2.08    94.90755    98.61170    47.29032
   264  C   4.0    0.04    4.37    4.32    93.73229   100.51515    48.86502
   265  C   4.0    0.11    3.30    3.05    92.20651    99.27166    50.97367
   266  O   6.0   -0.27    1.12    1.80    92.40049   100.01034    53.17105
   267  C   4.0   -0.04    4.36    4.32    92.05838   102.24584    47.27384
   268  C   4.0   -0.02    4.20    4.01    93.50241   103.60642    45.16146
   269  C   4.0   -0.08    4.13    3.87    91.71210   105.41677    43.81846
   270  C   4.0   -0.08    4.14    3.88    95.67250   105.14047    46.25368
   271  H   1.0    0.12    1.11    1.45    94.67698    98.73626    45.39481
   272  H   1.0    0.06    1.06    1.44    95.20150   101.60890    49.84204
   273  H   1.0    0.06    1.04    1.43    90.54888   101.10111    46.46526
   274  H   1.0    0.04    1.03    1.43    91.22450   103.66233    48.51932
   275  H   1.0    0.06    1.06    1.44    94.23651   102.22230    43.81896
   276  H   1.0    0.04    1.00    1.43    92.72733   106.48818    42.38955
   277  H   1.0    0.03    1.00    1.43    90.15020   104.43752    42.92512
   278  H   1.0    0.03    1.01    1.43    90.96064   106.70873    45.22800
   279  H   1.0    0.03    1.00    1.43    96.56698   106.26983    44.79162
   280  H   1.0    0.04    1.01    1.43    94.89077   106.41469    47.65621
   281  H   1.0    0.04    1.00    1.43    97.08123   103.93749    47.13844
   282  N   5.0   -0.21    3.28    1.98    95.96942   116.53400    41.56607
   283  C   4.0    0.02    4.40    4.39    96.96111   114.95177    39.57036
   284  C   4.0    0.15    3.54    3.13    94.70407   113.47025    38.60563
   285  O   6.0   -0.33    1.49    1.80    94.26486   113.38157    36.33691
   286  C   4.0   -0.03    4.23    4.06    99.24172   113.26380    40.22253
   287  C   4.0   -0.08    4.13    3.85   101.15896   114.83637    41.68972
   288  C   4.0   -0.08    4.12    3.84    98.47772   110.81776    41.54225
   289  H   1.0    0.08    1.02    1.43    96.37370   116.11151    43.38753
   290  H   1.0    0.04    1.06    1.44    97.53647   116.20783    38.01654
   291  H   1.0    0.04    1.06    1.44   100.06186   112.73944    38.39242
   292  H   1.0    0.04    1.03    1.43   102.92769   113.86247    42.01594
   293  H   1.0    0.04    1.00    1.43   101.56820   116.53353    40.61072
   294  H   1.0    0.04    1.00    1.43   100.40155   115.34904    43.51974
   295  H   1.0    0.03    1.00    1.43   100.13961   109.72283    42.03184
   296  H   1.0    0.04    1.00    1.43    97.39389   111.17907    43.24079
   297  H   1.0    0.04    1.01    1.43    97.32654   109.67045    40.28770
   298  N   5.0   -0.15    3.52    2.09    93.13432   112.45503    40.29062
   299  C   4.0    0.03    4.45    4.47    90.66958   111.58012    39.46653
   300  C   4.0    0.16    3.57    3.15    89.54526   113.59172    37.72927
   301  O   6.0   -0.31    1.32    1.80    88.77174   113.03102    35.63336
   302  C   4.0   -0.06    4.38    4.34    88.98023   111.10010    41.75181
   303  C   4.0   -0.02    4.19    3.98    86.23933   110.42009    41.12014
   304  C   4.0   -0.08    4.12    3.84    86.09330   108.26554    39.21549
   305  C   4.0   -0.08    4.11    3.82    84.90486   109.71645    43.58325
   306  H   1.0    0.07    1.06    1.44    93.55459   112.31372    42.15674
   307  H   1.0    0.05    1.05    1.44    90.84549   109.86598    38.30577
   308  H   1.0    0.03    1.04    1.43    89.80034   109.57576    42.85583
   309  H   1.0    0.04    1.03    1.43    88.97894   112.80004    42.90615
   310  H   1.0    0.04    1.05    1.44    85.32637   112.08852    40.30185
   311  H   1.0    0.04    1.00    1.43    84.18712   107.51082    39.14001
   312  H   1.0    0.05    1.00    1.43    86.63052   108.93726    37.35174
   313  H   1.0    0.03    1.00    1.43    87.37034   106.76240    39.76865
   314  H   1.0    0.04    1.00    1.43    82.90255   109.38338    43.27523
   315  H   1.0    0.04    1.00    1.43    85.72670   108.01001    44.37889
   316  H   1.0    0.04    1.00    1.43    85.11319   111.23447    44.95141
   317  N   5.0   -0.15    3.49    2.07    89.49733   115.96881    38.65099
   318  C   4.0    0.04    4.49    4.52    88.05765   117.84221    37.26402
   319  C   4.0    0.16    3.46    3.10    89.29498   118.45802    34.72464
   320  O   6.0   -0.28    1.24    1.80    88.03741   119.14166    32.88856
   321  C   4.0   -0.04    4.29    4.17    87.59981   120.27475    38.74893
   322  C   4.0    0.16    3.23    3.04    85.23583   121.60312    37.73139
   323  O   6.0   -0.29    1.24    1.80    83.85771   120.68278    36.13388
   324  N   5.0   -0.19    3.18    1.95    84.73340   123.86361    38.77112
   325  H   1.0    0.07    1.06    1.44    89.56278   116.22406    40.56674
   326  H   1.0    0.06    1.08    1.44    86.18975   117.04933    36.83069
   327  H   1.0    0.04    1.03    1.43    87.28070   119.76433    40.72526
   328  H   1.0    0.04    1.02    1.43    89.23019   121.52822    38.61287
   329  H   1.0    0.10    1.03    1.43    83.18913   124.78834    38.13717
   330  H   1.0    0.08    1.03    1.43    85.79031   124.63164    40.14666
   331  N   5.0   -0.14    3.54    2.11    91.79334   118.29439    34.66847
   332  C   4.0    0.03    4.42    4.41    93.32018   118.90476    32.47972
   333  C   4.0    0.15    3.49    3.11    93.10740   116.75211    30.55840
   334  O   6.0   -0.31    1.24    1.80    92.53549   117.17577    28.35010
   335  C   4.0   -0.05    4.38    4.34    96.02034   119.37188    33.37396
   336  C   4.0   -0.02    4.17    3.94    97.79488   120.55395    31.41356
   337  C   4.0   -0.08    4.11    3.82    99.65678   122.26468    32.80586
   338  C   4.0   -0.07    4.10    3.80    99.14297   118.51713    29.88265
   339  H   1.0    0.08    1.08    1.44    92.75341   117.99988    36.31201
   340  H   1.0    0.06    1.05    1.44    92.51647   120.58505    31.56320
   341  H   1.0    0.04    1.04    1.43    95.86683   120.63175    34.99645
   342  H   1.0    0.05    1.03    1.43    96.80924   117.57482    34.01009
   343  H   1.0    0.05    1.05    1.44    96.66005   121.69124    30.11207
   344  H   1.0    0.04    1.00    1.43   101.18867   122.84453    31.57891
   345  H   1.0    0.04    1.00    1.43    98.66533   123.92669    33.48257
   346  H   1.0    0.04    1.00    1.43   100.44500   121.26842    34.41200
   347  H   1.0    0.04    1.00    1.43   100.73196   119.30439    28.85135
   348  H   1.0    0.04    1.00    1.43    99.81888   117.01562    31.10754
   349  H   1.0    0.06    1.00    1.43    97.82610   117.69324    28.54109
   350  N   5.0   -0.14    3.64    2.19    93.55092   114.47722    31.55045
   351  C   4.0    0.04    4.47    4.49    93.00466   112.05998    30.41899
   352  C   4.0    0.15    3.48    3.11    90.18720   111.71523    29.88988
   353  O   6.0   -0.30    1.24    1.80    89.32676   109.70413    29.14017
   354  C   4.0   -0.02    4.41    4.40    93.68756   109.98492    32.30744
   355  C   4.0    0.06    3.83    3.37    96.42074   110.03167    32.97290
   356  N   5.0   -0.18    2.57    1.90    98.20318   111.27164    31.58586
   357  C   4.0   -0.01    3.61    3.18    97.57073   108.83270    34.95863
   358  C   4.0    0.06    3.63    3.19   100.36829   110.83009    32.68495
   359  N   5.0   -0.13    3.44    2.04   100.09461   109.34299    34.75234
   360  H   1.0    0.12    1.19    1.46    93.88662   114.32495    33.44107
   361  H   1.0    0.05    1.05    1.44    94.09712   111.81456    28.68195
   362  H   1.0    0.07    1.04    1.44    92.54440   110.27477    33.99721
   363  H   1.0    0.05    1.06    1.44    93.13804   108.18127    31.47557
   364  H   1.0    0.05    1.02    1.43    96.81363   107.69279    36.43935
   365  H   1.0    0.04    1.02    1.43   102.14722   111.51883    32.01204
   366  H   1.0    0.07    1.04    1.43   101.43192   108.72789    35.96748
   367  N   5.0   -0.12    3.55    2.12    88.77003   113.71701    30.53749
   368  C   4.0    0.05    4.41    4.40    86.04994   113.49237    30.51950
   369  C   4.0    0.09    3.41    3.08    84.99820   115.04549    28.29957
   370  O   6.0   -0.26    1.14    1.80    83.76762   114.18574    26.53980
   371  C   4.0   -0.03    4.33    4.25    84.64219   114.24092    32.94067
   372  C   4.0    0.05    3.90    3.47    81.99903   114.75887    32.18813
   373  N   5.0   -0.18    2.89    1.92    80.82009   113.18426    30.51050
   374  C   4.0    0.00    3.60    3.17    80.57297   116.87198    32.54143
   375  C   4.0    0.08    3.64    3.20    78.76752   114.37167    29.80579
   376  N   5.0   -0.11    3.47    2.06    78.51445   116.58717    31.02216
   377  H   1.0    0.11    1.17    1.46    89.76915   115.09490    31.42366
   378  H   1.0    0.07    1.11    1.45    85.74314   111.50364    30.13913
   379  H   1.0    0.06    1.04    1.43    84.79588   112.73045    34.32275
   380  H   1.0    0.07    1.07    1.44    85.39173   115.98060    33.69754
   381  H   1.0    0.07    1.02    1.43    80.89477   118.49610    33.69925
   382  H   1.0    0.05    1.02    1.43    77.46042   113.65279    28.44405
   383  H   1.0    0.08    1.05    1.44    77.12514   117.85350    30.71236
   384  N   5.0   -0.18    3.26    1.97    88.76021   116.19507    24.74609
   385  C   4.0    0.05    4.25    4.11    89.91676   114.60052    22.85878
   386  C   4.0    0.27    3.18    3.03    88.03602   112.45876    22.01654
   387  O   6.0   -0.26    1.16    1.80    87.31004   112.55819    19.78104
   388  C   4.0    0.04    4.16    3.92    92.30845   113.38233    23.92343
   389  O   6.0   -0.24    2.04    1.83    93.74696   112.31207    21.95632
   390  O   6.0   -0.26    1.18    1.80    87.46946   110.84522    23.62923
   391  H   1.0    0.11    1.07    1.44    88.76767   115.44263    26.50009
   392  H   1.0    0.06    1.05    1.44    90.31438   115.74248    21.18167
   393  H   1.0    0.06    1.02    1.43    93.42043   114.81334    24.94189
   394  H   1.0    0.06    1.02    1.43    91.68938   111.90433    25.24683
   395  H   1.0    0.12    1.02    1.43    95.06306   111.28147    22.70398
   396  H   1.0    0.09    1.07    1.44    78.76230    98.93286    24.00397
   397  H   1.0    0.06    1.04    1.43    74.27892    97.25928    28.45002
   398  H   1.0    0.09    1.07    1.44    78.68534    90.62442    33.50075
   399  H   1.0    0.07    1.05    1.44    76.85514    95.99345    36.62986
   400  H   1.0    0.09    1.07    1.44   109.74746   100.38503    41.04165
   401  H   1.0    0.05    1.04    1.43   112.76458   106.37832    35.76245
   402  H   1.0    0.09    1.07    1.44   113.62346   101.15649    33.49009
   403  H   1.0    0.06    1.04    1.43   110.66887   105.48776    25.97604
   404  H   1.0    0.09    1.08    1.44   112.30008    97.19656    23.89734
   405  H   1.0    0.08    1.04    1.44    91.03555    97.84268    50.57625
   406  H   1.0    0.09    1.07    1.44    96.54050   118.12360    41.36707
   407  H   1.0    0.07    1.05    1.44    85.30422   116.90862    28.22109
   408  H   1.0    0.11    1.08    1.44    89.59523   117.67443    24.82854

  Z AO/shell   Hii/eV     exponent
  1     Wed Apr 25 08:07:45 CEST 2018   EN: 2.200 GM2: 0.406  GM3: 0.0800  RAES: 1.40
     1s    -10.707211    1.230000
  6     Wed Apr 25 08:07:45 CEST 2018   EN: 2.550 GM2: 0.538  GM3: 0.1500  RAES: 3.00
     2s    -13.970922    2.096432
     2p    -10.063292    1.800000
  7     Wed Apr 25 08:07:45 CEST 2018   EN: 3.040 GM2: 0.461  GM3:-0.0640  RAES: 1.90
     2s    -16.686243    2.339881
     2p    -12.523956    2.014332
  8     Wed Apr 25 08:07:45 CEST 2018   EN: 3.440 GM2: 0.452  GM3:-0.0517  RAES: 1.80
     2s    -20.229985    2.439742
     2p    -15.503117    2.137023
 16     Tue Apr 24 11:44:34 CEST 2018   EN: 2.580 GM2: 0.340  GM3:-0.0502  RAES: 3.10
     3s    -20.029654    1.981333
     3p    -11.377694    2.025643
     3d     -0.420282    1.702555
 no old-style atom pair restraining (fixing) potential

molecular fragmentation (1/2 indicates fragments):
111111111111111111111122222222222222222222222222222222222222222222222222
222222222222222222222222222222222222222222222222222222222222222222222222
222222222222222222222222222222222222222222222222222222222222222222222222
222222222222222222222222222222222222222222222222222222222222222222222222
222222222222222222222222222222222222222222222222222222222222222222222222
222222222222222222222222222222222221122222222222
# atoms in fragment 1/2:    24   384
 fragment masses (1/2) :      131.20     2586.14
CMA distance (Bohr)    :  17.623
constraining FC (au)   :  0.0500
           ------------------------------------------------- 
          |        Self-Consistent Charge Iterations        |
           ------------------------------------------------- 

 Ncao       : 984
 Nao        : 983
 Nshell     : 599
 Nel        : 1078
 T(el)      :   500.0
 intcut     :    35.0
 scfconv/Eh :  0.100E-06
   qconv/e  :  0.100E-04
 intneglect :  0.100E-08
 broydamp   :      0.400
 iter      E             dE          RMSdq      gap      omega  full diag
   1   -613.9151669 -0.613915E+03  0.441E+00    2.91       0.0  T
   2   -615.2584524 -0.134329E+01  0.210E+00    1.80       1.0  T
   3   -615.3401731 -0.817208E-01  0.118E+00    1.73       1.0  T
   4   -615.4366789 -0.965058E-01  0.256E-01    0.82       1.0  T
   5   -615.4424775 -0.579860E-02  0.133E-01    0.98       1.0  T
   6   -615.4435512 -0.107368E-02  0.665E-02    1.02       1.0  T
   7   -615.4440982 -0.546965E-03  0.345E-02    1.05       1.0  T
   8   -615.4441848 -0.866643E-04  0.188E-02    1.08       1.0  T
   9   -615.4442202 -0.354152E-04  0.931E-03    1.09       1.0  T
  10   -615.4442275 -0.721220E-05  0.428E-03    1.10       1.2  T
  11   -615.4442290 -0.156958E-05  0.174E-03    1.10       2.9  T
  12   -615.4442292 -0.215272E-06  0.840E-04    1.10       5.9  T
  13   -615.4442293 -0.775494E-07  0.360E-04    1.10      13.7  T
  14   -615.4442293 -0.716511E-08  0.162E-04    1.10      30.6  T
  15   -615.4442293 -0.261934E-08  0.607E-05    1.10      81.6  T
  16   -615.4442293 -0.371074E-09  0.283E-05    1.10     175.0  T
speedup  1.00
cpu  time for SCC    6.64 s
wall time for SCC    6.65 s

   *** convergence criteria satisfied after 16 iterations ***

          eigenvalues
 #    :         527        528        529        530        531        532        533        534
 occ. :        2.000      2.000      2.000      2.000      2.000      2.000      2.000      2.000
 eps  :       -10.212    -10.140    -10.135    -10.055    -10.011     -9.958     -9.917     -9.902
 #    :         535        536        537        538        539        540        541        542
 occ. :        2.000      2.000      2.000      2.000      2.000      0.000      0.000      0.000
 eps  :        -9.886     -9.856     -9.702     -9.557     -8.982     -7.886     -7.830     -7.575
 #    :         543        544        545        546        547        548        549        550
 occ. :        0.000      0.000      0.000      0.000      0.000      0.000      0.000      0.000
 eps  :        -7.508     -7.393     -7.355     -6.723     -6.523     -6.503     -6.414     -6.407


   #   Z            q   n(s)   n(p)   n(d)      C6AA      α(0)
   1   7 N     -0.395  1.312  4.083  0.000    30.230     8.166
   2   6 C      0.038  1.052  2.910  0.000    19.960     6.364
   3   6 C      0.192  1.091  2.717  0.000    23.894     8.005
   4   8 O     -0.359  1.751  4.609  0.000    20.879     6.126
   5   6 C     -0.092  1.058  3.034  0.000    22.253     6.715
   6   6 C     -0.072  1.048  3.024  0.000    21.869     6.658
   7   6 C     -0.094  1.056  3.038  0.000    22.287     6.721
   8   6 C     -0.037  1.054  2.983  0.000    21.326     6.591
   9   7 N     -0.173  1.246  3.927  0.000    24.737     7.387
  10   1 H      0.167  0.833  0.000  0.000     1.294     1.782
  11   1 H      0.061  0.939  0.000  0.000     2.193     2.316
  12   1 H      0.082  0.918  0.000  0.000     1.959     2.189
  13   1 H      0.048  0.952  0.000  0.000     2.345     2.395
  14   1 H      0.044  0.956  0.000  0.000     2.401     2.423
  15   1 H      0.063  0.937  0.000  0.000     2.163     2.300
  16   1 H      0.082  0.918  0.000  0.000     1.962     2.190
  17   1 H      0.073  0.927  0.000  0.000     2.056     2.242
  18   1 H      0.092  0.908  0.000  0.000     1.859     2.132
  19   1 H      0.105  0.895  0.000  0.000     1.744     2.065
  20   1 H      0.276  0.724  0.000  0.000     0.786     1.388
  21   1 H      0.270  0.730  0.000  0.000     0.808     1.408
  22   1 H      0.255  0.745  0.000  0.000     0.864     1.456
  23   7 N     -0.392  1.318  4.074  0.000    30.157     8.156
  24   6 C      0.042  1.056  2.902  0.000    19.894     6.354
  25   6 C      0.208  1.093  2.699  0.000    23.584     7.953
  26   8 O     -0.397  1.763  4.635  0.000    21.630     6.235
  27   6 C     -0.073  1.066  3.007  0.000    21.891     6.660
  28   6 C     -0.028  1.058  2.971  0.000    21.047     6.525
  29   6 C     -0.139  1.050  3.089  0.000    23.226     6.871
  30   6 C     -0.128  1.044  3.084  0.000    23.021     6.841
  31   1 H      0.159  0.841  0.000  0.000     1.344     1.816
  32   1 H      0.041  0.959  0.000  0.000     2.437     2.441
  33   1 H      0.037  0.963  0.000  0.000     2.485     2.465
  34   1 H      0.062  0.938  0.000  0.000     2.180     2.309
  35   1 H      0.049  0.951  0.000  0.000     2.335     2.390
  36   1 H      0.073  0.927  0.000  0.000     2.057     2.243
  37   1 H      0.047  0.953  0.000  0.000     2.358     2.401
  38   1 H      0.037  0.963  0.000  0.000     2.487     2.466
  39   1 H      0.063  0.937  0.000  0.000     2.162     2.299
  40   1 H      0.062  0.938  0.000  0.000     2.174     2.306
  41   1 H      0.029  0.971  0.000  0.000     2.599     2.521
  42   7 N     -0.393  1.315  4.078  0.000    30.191     8.160
  43   6 C      0.010  1.069  2.921  0.000    20.426     6.437
  44   6 C      0.254  1.053  2.694  0.000    22.735     7.808
  45   8 O     -0.490  1.718  4.771  0.000    23.559     6.508
  46   6 C     -0.025  1.064  2.961  0.000    20.980     6.515
  47   6 C     -0.144  1.044  3.100  0.000    23.325     6.886
  48   6 C     -0.129  1.044  3.085  0.000    23.034     6.842
  49   1 H      0.156  0.844  0.000  0.000     1.362     1.828
  50   1 H      0.057  0.943  0.000  0.000     2.232     2.337
  51   1 H      0.042  0.958  0.000  0.000     2.427     2.436
  52   1 H      0.051  0.949  0.000  0.000     2.301     2.372
  53   1 H      0.052  0.948  0.000  0.000     2.291     2.367
  54   1 H      0.076  0.924  0.000  0.000     2.023     2.224
  55   1 H      0.045  0.955  0.000  0.000     2.387     2.416
  56   1 H      0.060  0.940  0.000  0.000     2.202     2.321
  57   1 H      0.037  0.963  0.000  0.000     2.491     2.468
  58   7 N     -0.149  1.231  3.918  0.000    24.232     7.311
  59   6 C      0.011  1.062  2.927  0.000    20.402     6.432
  60   6 C      0.192  1.089  2.719  0.000    23.890     8.005
  61   8 O     -0.367  1.761  4.605  0.000    21.029     6.148
  62   6 C     -0.075  1.055  3.021  0.000    21.926     6.665
  63   6 C      0.010  1.078  2.912  0.000    27.781     8.645
  64   6 C     -0.041  1.081  2.960  0.000    29.012     8.834
  65   6 C     -0.046  1.079  2.968  0.000    29.154     8.855
  66   6 C     -0.031  1.080  2.951  0.000    28.772     8.796
  67   6 C     -0.038  1.083  2.955  0.000    28.953     8.824
  68   6 C     -0.034  1.080  2.954  0.000    28.849     8.808
  69   1 H      0.217  0.783  0.000  0.000     1.024     1.585
  70   1 H      0.119  0.881  0.000  0.000     1.626     1.994
  71   1 H      0.054  0.946  0.000  0.000     2.274     2.358
  72   1 H      0.084  0.916  0.000  0.000     1.939     2.178
  73   1 H      0.028  0.972  0.000  0.000     2.613     2.528
  74   1 H      0.061  0.939  0.000  0.000     2.193     2.316
  75   1 H      0.024  0.976  0.000  0.000     2.669     2.555
  76   1 H      0.067  0.933  0.000  0.000     2.121     2.278
  77   1 H      0.034  0.966  0.000  0.000     2.534     2.489
  78   7 N     -0.390  1.320  4.070  0.000    30.094     8.147
  79   6 C      0.029  1.057  2.913  0.000    20.104     6.387
  80   6 C      0.248  1.056  2.696  0.000    22.841     7.827
  81   8 O     -0.507  1.759  4.748  0.000    23.931     6.559
  82   6 C     -0.085  1.067  3.017  0.000    22.101     6.691
  83   6 C     -0.024  1.056  2.968  0.000    20.966     6.513
  84   6 C     -0.111  1.037  3.074  0.000    22.673     6.788
  85   6 C     -0.129  1.046  3.083  0.000    23.026     6.840
  86   1 H      0.163  0.837  0.000  0.000     1.316     1.797
  87   1 H      0.042  0.958  0.000  0.000     2.423     2.434
  88   1 H      0.055  0.945  0.000  0.000     2.253     2.348
  89   1 H      0.054  0.946  0.000  0.000     2.275     2.358
  90   1 H      0.049  0.951  0.000  0.000     2.338     2.391
  91   1 H      0.036  0.964  0.000  0.000     2.505     2.475
  92   1 H      0.025  0.975  0.000  0.000     2.654     2.547
  93   1 H      0.037  0.963  0.000  0.000     2.483     2.464
  94   1 H      0.048  0.952  0.000  0.000     2.348     2.396
  95   1 H      0.047  0.953  0.000  0.000     2.359     2.402
  96   1 H      0.052  0.948  0.000  0.000     2.297     2.370
  97   7 N     -0.080  1.230  3.850  0.000    22.790     7.090
  98   6 C      0.017  1.066  2.917  0.000    20.271     6.408
  99   6 C      0.201  1.086  2.713  0.000    23.720     7.976
 100   8 O     -0.369  1.765  4.604  0.000    21.074     6.155
 101   6 C     -0.081  1.056  3.025  0.000    22.034     6.681
 102   6 C     -0.090  1.056  3.034  0.000    22.199     6.706
 103   6 C     -0.043  1.059  2.984  0.000    21.400     6.596
 104   1 H      0.079  0.921  0.000  0.000     1.993     2.208
 105   1 H      0.066  0.934  0.000  0.000     2.129     2.282
 106   1 H      0.083  0.917  0.000  0.000     1.947     2.182
 107   1 H      0.082  0.918  0.000  0.000     1.961     2.190
 108   1 H      0.087  0.913  0.000  0.000     1.907     2.159
 109   1 H      0.087  0.913  0.000  0.000     1.905     2.158
 110   1 H      0.094  0.906  0.000  0.000     1.838     2.120
 111   7 N     -0.403  1.326  4.077  0.000    30.448     8.195
 112   6 C      0.037  1.056  2.906  0.000    19.965     6.365
 113   6 C      0.271  1.053  2.676  0.000    22.419     7.754
 114   8 O     -0.462  1.727  4.735  0.000    22.954     6.424
 115   6 C     -0.113  1.040  3.073  0.000    22.714     6.795
 116   1 H      0.174  0.826  0.000  0.000     1.248     1.750
 117   1 H      0.031  0.969  0.000  0.000     2.573     2.508
 118   1 H      0.033  0.967  0.000  0.000     2.539     2.492
 119   1 H      0.037  0.963  0.000  0.000     2.483     2.464
 120   1 H      0.066  0.934  0.000  0.000     2.126     2.280
 121   7 N     -0.177  1.252  3.925  0.000    24.827     7.400
 122   6 C     -0.030  1.051  2.979  0.000    21.169     6.563
 123   6 C      0.283  1.040  2.677  0.000    22.204     7.716
 124   8 O     -0.473  1.726  4.747  0.000    23.205     6.459
 125   1 H      0.219  0.781  0.000  0.000     1.012     1.576
 126   1 H      0.102  0.898  0.000  0.000     1.771     2.081
 127   1 H      0.093  0.907  0.000  0.000     1.846     2.125
 128   7 N     -0.185  1.244  3.941  0.000    25.004     7.427
 129   6 C      0.022  1.062  2.916  0.000    20.211     6.402
 130   6 C      0.278  1.038  2.684  0.000    22.299     7.734
 131   8 O     -0.507  1.749  4.758  0.000    23.950     6.561
 132   6 C     -0.050  1.050  2.999  0.000    21.457     6.594
 133   6 C     -0.090  1.064  3.027  0.000    22.228     6.713
 134   6 C      0.370  1.026  2.605  0.000    20.735     7.452
 135   8 O     -0.644  1.771  4.873  0.000    27.222     6.995
 136   8 O     -0.660  1.777  4.882  0.000    27.628     7.047
 137   1 H      0.204  0.796  0.000  0.000     1.085     1.632
 138   1 H      0.060  0.940  0.000  0.000     2.194     2.316
 139   1 H      0.045  0.955  0.000  0.000     2.382     2.413
 140   1 H      0.042  0.958  0.000  0.000     2.420     2.433
 141   1 H      0.030  0.970  0.000  0.000     2.582     2.513
 142   1 H      0.019  0.981  0.000  0.000     2.751     2.594
 143   7 N     -0.191  1.253  3.938  0.000    25.142     7.447
 144   6 C      0.025  1.056  2.919  0.000    20.155     6.391
 145   6 C      0.273  1.043  2.684  0.000    22.381     7.748
 146   8 O     -0.499  1.724  4.775  0.000    23.763     6.536
 147   6 C     -0.080  1.057  3.022  0.000    22.009     6.678
 148   6 C     -0.080  1.050  3.030  0.000    22.031     6.682
 149   6 C     -0.103  1.056  3.047  0.000    22.464     6.748
 150   6 C     -0.063  1.058  3.005  0.000    21.804     6.664
 151   7 N     -0.145  1.228  3.918  0.000    24.137     7.297
 152   1 H      0.233  0.767  0.000  0.000     0.952     1.528
 153   1 H      0.072  0.928  0.000  0.000     2.063     2.246
 154   1 H      0.087  0.913  0.000  0.000     1.904     2.158
 155   1 H      0.067  0.933  0.000  0.000     2.113     2.273
 156   1 H      0.076  0.924  0.000  0.000     2.020     2.223
 157   1 H      0.055  0.945  0.000  0.000     2.254     2.348
 158   1 H      0.063  0.937  0.000  0.000     2.166     2.301
 159   1 H      0.091  0.909  0.000  0.000     1.868     2.138
 160   1 H      0.112  0.888  0.000  0.000     1.681     2.028
 161   1 H      0.107  0.893  0.000  0.000     1.719     2.050
 162   1 H      0.301  0.699  0.000  0.000     0.710     1.320
 163   1 H      0.269  0.731  0.000  0.000     0.814     1.413
 164   1 H      0.298  0.702  0.000  0.000     0.719     1.328
 165   7 N     -0.170  1.251  3.919  0.000    24.689     7.380
 166   6 C      0.007  1.064  2.929  0.000    20.459     6.439
 167   6 C      0.275  1.042  2.683  0.000    22.349     7.741
 168   8 O     -0.464  1.726  4.738  0.000    23.010     6.431
 169   6 C     -0.070  1.055  3.015  0.000    21.821     6.647
 170   6 C     -0.010  1.059  2.951  0.000    20.764     6.489
 171  16 S     -0.228  1.937  4.230  0.061   150.810    20.669
 172   6 C     -0.105  1.065  3.040  0.000    22.583     6.780
 173   1 H      0.221  0.779  0.000  0.000     1.004     1.569
 174   1 H      0.101  0.899  0.000  0.000     1.778     2.085
 175   1 H      0.070  0.930  0.000  0.000     2.090     2.261
 176   1 H      0.044  0.956  0.000  0.000     2.402     2.423
 177   1 H      0.037  0.963  0.000  0.000     2.484     2.465
 178   1 H      0.066  0.934  0.000  0.000     2.126     2.280
 179   1 H      0.100  0.900  0.000  0.000     1.786     2.090
 180   1 H      0.085  0.915  0.000  0.000     1.931     2.173
 181   1 H      0.082  0.918  0.000  0.000     1.959     2.189
 182   7 N     -0.170  1.232  3.938  0.000    24.678     7.378
 183   6 C      0.004  1.062  2.934  0.000    20.512     6.448
 184   6 C      0.269  1.039  2.692  0.000    22.452     7.759
 185   8 O     -0.486  1.737  4.749  0.000    23.474     6.496
 186   6 C      0.074  1.039  2.888  0.000    19.565     6.337
 187   8 O     -0.488  1.720  4.768  0.000    22.631     6.422
 188   1 H      0.198  0.802  0.000  0.000     1.118     1.657
 189   1 H      0.103  0.897  0.000  0.000     1.759     2.074
 190   1 H      0.048  0.952  0.000  0.000     2.347     2.396
 191   1 H      0.049  0.951  0.000  0.000     2.328     2.386
 192   1 H      0.346  0.654  0.000  0.000     0.599     1.215
 193   7 N     -0.161  1.243  3.918  0.000    24.478     7.348
 194   6 C      0.020  1.064  2.917  0.000    20.256     6.409
 195   6 C      0.281  1.040  2.679  0.000    22.243     7.723
 196   8 O     -0.493  1.738  4.755  0.000    23.621     6.516
 197   6 C     -0.092  1.064  3.028  0.000    22.245     6.713
 198   6 C     -0.014  1.054  2.960  0.000    20.795     6.486
 199   6 C     -0.121  1.043  3.079  0.000    22.881     6.820
 200   6 C     -0.129  1.043  3.086  0.000    23.022     6.841
 201   1 H      0.218  0.782  0.000  0.000     1.021     1.583
 202   1 H      0.066  0.934  0.000  0.000     2.129     2.282
 203   1 H      0.048  0.952  0.000  0.000     2.350     2.397
 204   1 H      0.086  0.914  0.000  0.000     1.918     2.166
 205   1 H      0.034  0.966  0.000  0.000     2.533     2.489
 206   1 H      0.045  0.955  0.000  0.000     2.379     2.412
 207   1 H      0.028  0.972  0.000  0.000     2.610     2.526
 208   1 H      0.052  0.948  0.000  0.000     2.289     2.366
 209   1 H      0.058  0.942  0.000  0.000     2.221     2.331
 210   1 H      0.056  0.944  0.000  0.000     2.245     2.343
 211   1 H      0.041  0.959  0.000  0.000     2.435     2.440
 212   7 N     -0.181  1.243  3.938  0.000    24.916     7.413
 213   6 C     -0.007  1.067  2.939  0.000    20.698     6.478
 214   6 C      0.268  1.038  2.694  0.000    22.483     7.766
 215   8 O     -0.478  1.731  4.747  0.000    23.303     6.472
 216   6 C      0.027  1.048  2.925  0.000    20.330     6.457
 217   8 O     -0.433  1.681  4.752  0.000    21.503     6.260
 218   1 H      0.237  0.763  0.000  0.000     0.935     1.515
 219   1 H      0.105  0.895  0.000  0.000     1.743     2.064
 220   1 H      0.080  0.920  0.000  0.000     1.974     2.197
 221   1 H      0.074  0.926  0.000  0.000     2.041     2.234
 222   1 H      0.338  0.662  0.000  0.000     0.618     1.235
 223   7 N     -0.170  1.244  3.926  0.000    24.672     7.377
 224   6 C      0.011  1.067  2.922  0.000    20.383     6.427
 225   6 C      0.290  1.036  2.674  0.000    22.085     7.696
 226   8 O     -0.495  1.753  4.742  0.000    23.675     6.524
 227   6 C     -0.029  1.068  2.961  0.000    21.055     6.526
 228   6 C     -0.078  1.055  3.022  0.000    21.980     6.674
 229   6 C     -0.110  1.035  3.076  0.000    22.664     6.789
 230   6 C     -0.119  1.035  3.085  0.000    22.842     6.815
 231   1 H      0.215  0.785  0.000  0.000     1.033     1.592
 232   1 H      0.095  0.905  0.000  0.000     1.831     2.116
 233   1 H      0.065  0.935  0.000  0.000     2.140     2.287
 234   1 H      0.055  0.945  0.000  0.000     2.261     2.351
 235   1 H      0.065  0.935  0.000  0.000     2.147     2.291
 236   1 H      0.061  0.939  0.000  0.000     2.188     2.313
 237   1 H      0.028  0.972  0.000  0.000     2.613     2.528
 238   1 H      0.031  0.969  0.000  0.000     2.573     2.508
 239   1 H      0.062  0.938  0.000  0.000     2.176     2.307
 240   1 H      0.037  0.963  0.000  0.000     2.495     2.470
 241   1 H      0.032  0.968  0.000  0.000     2.553     2.498
 242   7 N     -0.185  1.247  3.938  0.000    25.020     7.429
 243   6 C      0.016  1.064  2.920  0.000    20.307     6.416
 244   6 C      0.296  1.033  2.670  0.000    21.973     7.676
 245   8 O     -0.519  1.761  4.757  0.000    24.202     6.596
 246   6 C      0.077  1.037  2.886  0.000    19.510     6.328
 247   8 O     -0.483  1.721  4.761  0.000    22.520     6.406
 248   1 H      0.215  0.785  0.000  0.000     1.031     1.591
 249   1 H      0.051  0.949  0.000  0.000     2.313     2.379
 250   1 H      0.051  0.949  0.000  0.000     2.304     2.374
 251   1 H      0.040  0.960  0.000  0.000     2.454     2.450
 252   1 H      0.344  0.656  0.000  0.000     0.603     1.220
 253   7 N     -0.177  1.244  3.933  0.000    24.831     7.401
 254   6 C      0.031  1.056  2.913  0.000    20.064     6.378
 255   6 C      0.283  1.041  2.676  0.000    22.202     7.717
 256   8 O     -0.524  1.765  4.759  0.000    24.318     6.612
 257   6 C     -0.146  1.045  3.101  0.000    23.369     6.892
 258   1 H      0.228  0.772  0.000  0.000     0.973     1.545
 259   1 H      0.055  0.945  0.000  0.000     2.255     2.348
 260   1 H      0.070  0.930  0.000  0.000     2.087     2.259
 261   1 H      0.078  0.922  0.000  0.000     2.004     2.214
 262   1 H      0.097  0.903  0.000  0.000     1.812     2.105
 263   7 N     -0.175  1.247  3.928  0.000    24.795     7.395
 264   6 C      0.036  1.057  2.907  0.000    19.967     6.362
 265   6 C      0.220  1.081  2.699  0.000    23.361     7.916
 266   8 O     -0.399  1.757  4.642  0.000    21.659     6.240
 267   6 C     -0.075  1.057  3.018  0.000    21.920     6.664
 268   6 C     -0.023  1.057  2.966  0.000    20.950     6.510
 269   6 C     -0.129  1.045  3.084  0.000    23.019     6.839
 270   6 C     -0.129  1.042  3.087  0.000    23.025     6.840
 271   1 H      0.247  0.753  0.000  0.000     0.894     1.481
 272   1 H      0.079  0.921  0.000  0.000     1.989     2.206
 273   1 H      0.058  0.942  0.000  0.000     2.218     2.329
 274   1 H      0.056  0.944  0.000  0.000     2.247     2.344
 275   1 H      0.052  0.948  0.000  0.000     2.296     2.369
 276   1 H      0.065  0.935  0.000  0.000     2.143     2.289
 277   1 H      0.046  0.954  0.000  0.000     2.368     2.406
 278   1 H      0.050  0.950  0.000  0.000     2.323     2.384
 279   1 H      0.068  0.932  0.000  0.000     2.102     2.267
 280   1 H      0.046  0.954  0.000  0.000     2.367     2.406
 281   1 H      0.036  0.964  0.000  0.000     2.497     2.471
 282   7 N     -0.390  1.311  4.079  0.000    30.097     8.148
 283   6 C      0.021  1.063  2.917  0.000    20.239     6.407
 284   6 C      0.265  1.048  2.686  0.000    22.528     7.773
 285   8 O     -0.490  1.740  4.750  0.000    23.558     6.508
 286   6 C     -0.029  1.064  2.966  0.000    21.061     6.528
 287   6 C     -0.123  1.035  3.087  0.000    22.902     6.823
 288   6 C     -0.135  1.041  3.094  0.000    23.152     6.861
 289   1 H      0.168  0.832  0.000  0.000     1.284     1.775
 290   1 H      0.040  0.960  0.000  0.000     2.447     2.446
 291   1 H      0.046  0.954  0.000  0.000     2.374     2.409
 292   1 H      0.061  0.939  0.000  0.000     2.188     2.313
 293   1 H      0.033  0.967  0.000  0.000     2.537     2.491
 294   1 H      0.041  0.959  0.000  0.000     2.430     2.438
 295   1 H      0.069  0.931  0.000  0.000     2.094     2.263
 296   1 H      0.047  0.953  0.000  0.000     2.362     2.404
 297   1 H      0.047  0.953  0.000  0.000     2.356     2.401
 298   7 N     -0.163  1.239  3.924  0.000    24.522     7.355
 299   6 C      0.007  1.065  2.928  0.000    20.465     6.441
 300   6 C      0.282  1.041  2.676  0.000    22.221     7.720
 301   8 O     -0.473  1.755  4.718  0.000    23.187     6.456
 302   6 C     -0.098  1.063  3.035  0.000    22.359     6.730
 303   6 C     -0.013  1.055  2.957  0.000    20.769     6.482
 304   6 C     -0.131  1.042  3.089  0.000    23.079     6.850
 305   6 C     -0.122  1.043  3.079  0.000    22.889     6.821
 306   1 H      0.228  0.772  0.000  0.000     0.975     1.547
 307   1 H      0.088  0.912  0.000  0.000     1.895     2.153
 308   1 H      0.088  0.912  0.000  0.000     1.899     2.155
 309   1 H      0.057  0.943  0.000  0.000     2.233     2.337
 310   1 H      0.024  0.976  0.000  0.000     2.667     2.554
 311   1 H      0.050  0.950  0.000  0.000     2.316     2.380
 312   1 H      0.041  0.959  0.000  0.000     2.435     2.440
 313   1 H      0.059  0.941  0.000  0.000     2.212     2.326
 314   1 H      0.041  0.959  0.000  0.000     2.439     2.442
 315   1 H      0.050  0.950  0.000  0.000     2.315     2.379
 316   1 H      0.041  0.959  0.000  0.000     2.436     2.441
 317   7 N     -0.207  1.272  3.935  0.000    25.502     7.500
 318   6 C      0.022  1.055  2.923  0.000    20.196     6.397
 319   6 C      0.279  1.036  2.685  0.000    22.281     7.729
 320   8 O     -0.508  1.768  4.740  0.000    23.972     6.564
 321   6 C     -0.116  1.067  3.049  0.000    22.714     6.784
 322   6 C      0.289  1.035  2.676  0.000    22.098     7.697
 323   8 O     -0.485  1.753  4.732  0.000    23.457     6.493
 324   7 N     -0.293  1.266  4.027  0.000    27.559     7.797
 325   1 H      0.224  0.776  0.000  0.000     0.992     1.560
 326   1 H      0.086  0.914  0.000  0.000     1.919     2.167
 327   1 H      0.105  0.895  0.000  0.000     1.742     2.064
 328   1 H      0.083  0.917  0.000  0.000     1.945     2.181
 329   1 H      0.233  0.767  0.000  0.000     0.952     1.529
 330   1 H      0.238  0.762  0.000  0.000     0.930     1.510
 331   7 N     -0.185  1.249  3.936  0.000    25.004     7.427
 332   6 C      0.022  1.063  2.915  0.000    20.211     6.401
 333   6 C      0.277  1.038  2.685  0.000    22.307     7.734
 334   8 O     -0.532  1.768  4.763  0.000    24.495     6.636
 335   6 C     -0.085  1.065  3.020  0.000    22.110     6.693
 336   6 C     -0.008  1.054  2.954  0.000    20.692     6.470
 337   6 C     -0.123  1.044  3.080  0.000    22.918     6.825
 338   6 C     -0.116  1.041  3.076  0.000    22.782     6.806
 339   1 H      0.217  0.783  0.000  0.000     1.022     1.584
 340   1 H      0.058  0.942  0.000  0.000     2.226     2.333
 341   1 H      0.068  0.932  0.000  0.000     2.109     2.271
 342   1 H      0.068  0.932  0.000  0.000     2.106     2.270
 343   1 H      0.021  0.979  0.000  0.000     2.721     2.580
 344   1 H      0.048  0.952  0.000  0.000     2.345     2.395
 345   1 H      0.043  0.957  0.000  0.000     2.414     2.430
 346   1 H      0.058  0.942  0.000  0.000     2.221     2.330
 347   1 H      0.047  0.953  0.000  0.000     2.355     2.400
 348   1 H      0.059  0.941  0.000  0.000     2.208     2.324
 349   1 H      0.020  0.980  0.000  0.000     2.731     2.584
 350   7 N     -0.199  1.259  3.940  0.000    25.316     7.473
 351   6 C      0.037  1.052  2.911  0.000    19.960     6.362
 352   6 C      0.274  1.045  2.681  0.000    22.368     7.746
 353   8 O     -0.490  1.742  4.748  0.000    23.559     6.508
 354   6 C     -0.076  1.051  3.025  0.000    21.926     6.664
 355   6 C      0.063  1.065  2.872  0.000    26.144     8.344
 356   7 N     -0.296  1.499  3.797  0.000    28.503     7.916
 357   6 C     -0.050  1.067  2.982  0.000    29.195     8.862
 358   6 C      0.070  1.065  2.865  0.000    26.202     8.376
 359   7 N     -0.095  1.239  3.856  0.000    23.088     7.136
 360   1 H      0.266  0.734  0.000  0.000     0.823     1.421
 361   1 H      0.064  0.936  0.000  0.000     2.152     2.294
 362   1 H      0.075  0.925  0.000  0.000     2.036     2.231
 363   1 H      0.072  0.928  0.000  0.000     2.067     2.248
 364   1 H      0.069  0.931  0.000  0.000     2.099     2.266
 365   1 H      0.059  0.941  0.000  0.000     2.212     2.326
 366   1 H      0.216  0.784  0.000  0.000     1.030     1.590
 367   7 N     -0.191  1.251  3.940  0.000    25.150     7.448
 368   6 C      0.029  1.056  2.915  0.000    20.074     6.378
 369   6 C      0.208  1.082  2.710  0.000    23.589     7.954
 370   8 O     -0.371  1.760  4.611  0.000    21.108     6.160
 371   6 C     -0.088  1.052  3.036  0.000    22.164     6.701
 372   6 C      0.044  1.065  2.891  0.000    26.334     8.347
 373   7 N     -0.271  1.436  3.836  0.000    27.874     7.829
 374   6 C     -0.023  1.070  2.953  0.000    28.531     8.761
 375   6 C      0.082  1.062  2.857  0.000    25.934     8.332
 376   7 N     -0.082  1.238  3.844  0.000    22.833     7.097
 377   1 H      0.204  0.796  0.000  0.000     1.084     1.631
 378   1 H      0.096  0.904  0.000  0.000     1.818     2.109
 379   1 H      0.097  0.903  0.000  0.000     1.811     2.104
 380   1 H      0.087  0.913  0.000  0.000     1.909     2.160
 381   1 H      0.079  0.921  0.000  0.000     1.985     2.203
 382   1 H      0.069  0.931  0.000  0.000     2.099     2.265
 383   1 H      0.220  0.780  0.000  0.000     1.011     1.575
 384   7 N     -0.406  1.331  4.076  0.000    30.550     8.209
 385   6 C      0.028  1.067  2.905  0.000    20.121     6.391
 386   6 C      0.368  1.029  2.603  0.000    20.760     7.456
 387   8 O     -0.655  1.774  4.882  0.000    27.523     7.034
 388   6 C      0.095  1.040  2.864  0.000    19.214     6.279
 389   8 O     -0.508  1.740  4.769  0.000    23.075     6.485
 390   8 O     -0.620  1.755  4.865  0.000    26.611     6.916
 391   1 H      0.150  0.850  0.000  0.000     1.404     1.856
 392   1 H     -0.005  1.005  0.000  0.000     3.151     2.776
 393   1 H      0.021  0.979  0.000  0.000     2.725     2.582
 394   1 H      0.006  0.994  0.000  0.000     2.963     2.692
 395   1 H      0.339  0.661  0.000  0.000     0.615     1.232
 396   1 H      0.179  0.821  0.000  0.000     1.218     1.729
 397   1 H      0.069  0.931  0.000  0.000     2.099     2.265
 398   1 H      0.180  0.820  0.000  0.000     1.214     1.726
 399   1 H      0.082  0.918  0.000  0.000     1.960     2.189
 400   1 H      0.174  0.826  0.000  0.000     1.246     1.749
 401   1 H      0.083  0.917  0.000  0.000     1.950     2.184
 402   1 H      0.178  0.822  0.000  0.000     1.226     1.734
 403   1 H      0.079  0.921  0.000  0.000     1.989     2.205
 404   1 H      0.180  0.820  0.000  0.000     1.211     1.724
 405   1 H      0.047  0.953  0.000  0.000     2.352     2.398
 406   1 H      0.177  0.823  0.000  0.000     1.232     1.739
 407   1 H      0.058  0.942  0.000  0.000     2.227     2.334
 408   1 H      0.184  0.816  0.000  0.000     1.191     1.709

 Mol. C6AA /au·bohr⁶  :    1489642.472612
 Mol. C8AA /au·bohr⁸  :   33160566.997663
 Mol. α(0) /au        :       1825.741672

 
molecular dipole:
                 x           y           z       tot (Debye)
 q only:       10.624      17.327      24.423
   full:       11.886      16.603      23.205      78.566
molecular quadrupole (traceless):
                xx          xy          yy          xz          yz          zz
 q only:       12.440    4122.472    1727.190    4050.072    4838.237   -1739.631
  q+dip:      353.346    4199.355    1529.858    3949.970    4641.059   -1883.205
   full:      353.803    4199.855    1534.923    3948.853    4643.361   -1888.726
speedup  1.00
cpu  time for grad    8.59 s
wall time for grad    8.59 s

SCC energy    :    -615.4594728
rep           :       7.5132126
ES            :       1.8595423
AES           :      -0.0947717
AXC           :       0.2170943
disp          :      -0.5736107
XB            :       0.0000000
fix           :       0.0000000
Gborn         :       0.0000000
Gsasa         :       0.0000000
Ghb           :       0.0000000
Gshift        :       0.0000000
Gsolv         :      -0.4890253     -306.87
Etot ala COSMO:    -615.4594728
grad norm     :       0.5809214
total E       :    -607.8873362
atomizationE  :     112.4735894    70578.24
(atE without considering molecular charge,
 total energy contains solvation terms)
H-L gap (eV)  :          1.0967

------------------------------------------------------------------------
 * finished run on 2019/03/14 at 15:08:30.056     
------------------------------------------------------------------------
 total:
 * wall-time:     0 d,  0 h,  0 min,  9.696 sec
 *  cpu-time:     0 d,  0 h,  0 min,  9.539 sec
 * ratio c/w:     0.984 speedup
 SCF:
 * wall-time:     0 d,  0 h,  0 min,  9.373 sec
 *  cpu-time:     0 d,  0 h,  0 min,  9.370 sec
 * ratio c/w:     1.000 speedup

