      -----------------------------------------------------------      
     |                   =====================                   |     
     |                           x T B                           |     
     |                   =====================                   |     
     |                         S. Grimme                         |     
     |          Mulliken Center for Theoretical Chemistry        |     
     |                    University of Bonn                     |     
     |                 Version 6.0.1 (SAW181210)                 |     
      -----------------------------------------------------------      

   This program is distributed in the hope that it will be useful,
   but WITHOUT ANY WARRANTY; without even the implied warranty of
   MERCHANTABILITY or FITNESS FOR A PARTICULAR PURPOSE.
   
   FOR NON-COMMERCIAL, ACADEMIA USE ONLY.
   
   Cite this work as:
   S. Grimme, C. Bannwarth, P. Shushkov, J. Comput. Theory Chem., 2017,
   13, 1989-2009.
   C. Bannwarth, S. Ehlert and S. Grimme., ChemRxiv, 2018, preprint.
   http://doi.org/10.26434/chemrxiv.7246238.v1
   
   for sTDA-xTB:
   S. Grimme and C. Bannwarth, J. Chem. Phys., 2016, 145, 054103.
   
   in the mass-spec context:
   V. Asgeirsson, C. Bauer and S. Grimme, Chem. Sci., 2017, 8, 4879.
   
   if GBSA is used:
   P. Shushkov, F. März and S. Grimme, unpublished.
   
   for ANC optimizer:
   S. Grimme, unpublished.
   Rational Function algorithm used in ANCopt:
   F. Eckert, P. Pulay, H.-J. Werner, J. Comput. Chem., 1997, 18, 1473.
   
   with help from (in alphabetical order)
   C. Bannwarth, F. Bohle, G. Brandenburg, E. Caldeweyher, M. Checinski,
   S. Dohm, S. Ehlert, S. Ehrlich, F. März, H. Neugebauer, J. Pisarek,
   P. Pracht, P. Shushkov, and S. Spicher.
   
 * started run on 2019/03/07 at 11:37:46.102     
========================================================================
 # omp threads = 1
========================================================================
number of atoms            : 427
number of electrons        : 1124
charge                     : 1
spin                       : .0
first test random number   : .7786
           ------------------------------------------------- 
          |                 G F N 2 - x T B                 |
          | Geometry, Frequencies, Noncovalent interactions |
          |            JCTC 2018 parametrisation            |
           ------------------------------------------------- 
 
      method parameters     
 k(s)        :  1.8500
 k(p)        :  2.2300
 k(d)        :  2.2300
 k(f)        :  2.0000
 kEN (H0ij)  : -2.0000
 D4 a1       :  0.5200
 D4 a2       :  5.0000
 D4 s6       :  1.0000
 D4 s8       :  2.7000
 D4 s9       :  5.0000
 alphaj      :  2.0000

 Solvent             : h2o
 Using internal parameter file: .param_gbsa2_h2o
 Gsolv ref. state (COSMO-RS): gsolv [1 M gas/solution]
 temperature (mdtemp)       :    298.150000000000     
 dielectric constant        :    80.2000000000000     
 rho                        :    1.00000000000000     
 mass                       :    18.0000000000000     
 surface tension            :    15.5689454083859     
 probe radius               :   0.975313790000000     
 vdW radii scaling          :    1.00000000000000     
 Gshift (Eh)                :   1.857443126794793E-003
 c1                         :    1.55243817000000     
 soset                      :   0.130326360000000     
 HB correction              :  T

            Z     q(EN)     CN     RAES       Cart. coordinates
     1  N   5.0   -0.23    3.20    1.95   363.61162   120.41334   207.45222
     2  C   4.0    0.03    4.20    4.00   361.96000   119.38344   205.47368
     3  C   4.0    0.08    3.17    3.03   362.16787   116.48460   205.12975
     4  O   6.0   -0.32    1.13    1.80   360.37263   115.12399   205.72691
     5  C   4.0   -0.09    4.18    3.96   362.46078   120.71947   202.92822
     6  H   1.0    0.10    1.08    1.44   364.04248   121.96291   207.21790
     7  H   1.0    0.05    1.13    1.45   360.24791   119.71414   206.04060
     8  H   1.0    0.04    1.05    1.44   361.35718   120.02027   201.64321
     9  H   1.0    0.04    1.05    1.44   362.13196   122.51471   203.10397
    10  H   1.0    0.05    1.05    1.44   364.20877   120.46436   202.43689
    11  N   5.0   -0.22    3.26    1.97   360.23468   112.21760   210.90853
    12  C   4.0    0.03    4.35    4.29   357.48891   111.88500   211.01058
    13  C   4.0    0.15    3.44    3.09   356.60829   109.91780   209.09062
    14  O   6.0   -0.30    1.23    1.80   355.16454   108.18681   209.74824
    15  C   4.0   -0.08    4.26    4.11   356.23224   114.37566   210.60240
    16  H   1.0    0.11    1.09    1.44   360.71656   113.75016   210.66665
    17  H   1.0    0.05    1.13    1.45   357.01647   111.25573   212.66598
    18  H   1.0    0.04    1.06    1.44   354.41243   114.16212   210.66854
    19  H   1.0    0.05    1.06    1.44   356.75758   115.54729   211.91009
    20  H   1.0    0.06    1.06    1.44   356.70845   115.03896   208.96212
    21  N   5.0   -0.17    3.50    2.08   357.56827   110.10299   206.77948
    22  C   4.0    0.03    4.38    4.35   356.98624   108.35500   204.76881
    23  C   4.0    0.09    3.22    3.04   357.64197   105.61867   205.43400
    24  O   6.0   -0.27    1.11    1.80   356.14531   103.86501   204.93133
    25  C   4.0   -0.05    4.47    4.49   358.24102   109.21860   202.27438
    26  C   4.0   -0.03    4.37    4.33   357.72890   111.86989   201.35786
    27  C   4.0   -0.08    4.24    4.09   359.39753   112.51995   199.15066
    28  C   4.0   -0.09    4.27    4.14   355.00770   112.23082   200.82307
    29  H   1.0    0.11    1.15    1.45   358.59818   111.28029   206.33918
    30  H   1.0    0.06    1.14    1.45   355.16832   108.37578   204.53071
    31  H   1.0    0.05    1.10    1.44   360.05515   109.03341   202.46524
    32  H   1.0    0.05    1.10    1.44   357.71945   108.05831   200.95346
    33  H   1.0    0.06    1.16    1.45   358.15598   113.05097   202.69390
    34  H   1.0    0.04    1.06    1.44   359.03659   114.22826   198.59319
    35  H   1.0    0.05    1.06    1.44   361.15497   112.40090   199.65711
    36  H   1.0    0.05    1.06    1.44   359.07817   111.35021   197.77683
    37  H   1.0    0.04    1.06    1.44   354.72046   113.94481   200.23725
    38  H   1.0    0.05    1.06    1.44   354.47668   111.04597   199.52860
    39  H   1.0    0.04    1.06    1.44   354.04016   111.93792   202.35185
    40  N   5.0   -0.22    3.24    1.97   352.74003   102.81054   209.84840
    41  C   4.0    0.04    4.25    4.10   350.53849   102.00363   208.46890
    42  C   4.0    0.10    3.21    3.04   351.00715    99.78320   206.68878
    43  O   6.0   -0.26    1.12    1.80   349.23647    98.75708   205.58140
    44  C   4.0   -0.07    4.23    4.06   349.41411   104.21083   206.99680
    45  H   1.0    0.13    1.10    1.44   353.36552   104.21272   209.31172
    46  H   1.0    0.05    1.13    1.45   349.35364   101.40647   209.73312
    47  H   1.0    0.06    1.06    1.44   347.93445   103.64202   206.07650
    48  H   1.0    0.05    1.05    1.44   348.93412   105.54308   208.16087
    49  H   1.0    0.06    1.06    1.44   350.65755   104.85333   205.81383
    50  N   5.0   -0.21    3.26    1.97   350.94479   136.80293   191.50861
    51  C   4.0    0.03    4.38    4.34   352.91388   134.85462   191.32719
    52  C   4.0    0.15    3.43    3.09   351.59674   132.28271   191.68057
    53  O   6.0   -0.28    1.23    1.80   349.59174   132.11452   192.92023
    54  C   4.0   -0.05    4.44    4.45   354.93967   135.27414   193.37755
    55  C   4.0   -0.03    4.29    4.19   356.49302   137.71000   193.15456
    56  C   4.0   -0.08    4.20    4.00   358.55282   137.79504   195.22003
    57  C   4.0   -0.08    4.25    4.11   357.72323   137.73079   190.56752
    58  H   1.0    0.11    1.08    1.44   350.68022   137.31505   193.02795
    59  H   1.0    0.04    1.12    1.45   353.76426   134.92265   189.70392
    60  H   1.0    0.06    1.09    1.44   354.11386   135.26280   195.01405
    61  H   1.0    0.04    1.09    1.44   356.09240   133.84929   193.34920
    62  H   1.0    0.05    1.12    1.45   355.40454   139.16887   193.36999
    63  H   1.0    0.05    1.05    1.44   359.52036   139.34461   195.05751
    64  H   1.0    0.05    1.05    1.44   357.76292   137.74023   196.87354
    65  H   1.0    0.05    1.05    1.44   359.67154   136.35507   195.02917
    66  H   1.0    0.05    1.06    1.44   358.72101   139.25768   190.37666
    67  H   1.0    0.05    1.06    1.44   358.81171   136.26625   190.39556
    68  H   1.0    0.05    1.06    1.44   356.42688   137.68354   189.27306
    69  N   5.0   -0.17    3.46    2.06   352.74191   130.34196   190.59587
    70  C   4.0    0.04    4.46    4.48   351.69123   127.79461   190.71492
    71  C   4.0    0.15    3.46    3.10   353.74725   125.78016   190.57508
    72  O   6.0   -0.29    1.23    1.80   355.27793   125.72914   188.83464
    73  C   4.0   -0.06    4.23    4.07   349.79583   127.39776   188.61355
    74  H   1.0    0.10    1.13    1.45   354.14031   130.45534   189.77384
    75  H   1.0    0.07    1.15    1.45   350.84841   127.62642   192.33442
    76  H   1.0    0.06    1.06    1.44   349.11553   125.69890   188.71748
    77  H   1.0    0.06    1.06    1.44   348.43334   128.61286   188.78173
    78  H   1.0    0.06    1.06    1.44   350.62164   127.62642   186.99405
    79  N   5.0   -0.16    3.52    2.09   353.71512   124.12287   192.45347
    80  C   4.0    0.04    4.51    4.56   355.57083   122.08952   192.51583
    81  C   4.0    0.09    3.26    3.05   354.63164   119.98626   190.76594
    82  O   6.0   -0.31    1.18    1.80   352.91010   118.59731   191.40845
    83  C   4.0   -0.02    4.43    4.42   355.89776   121.06340   195.23137
    84  C   4.0   -0.09    4.27    4.14   357.84417   118.98093   195.14255
    85  C   4.0   -0.09    4.27    4.13   356.68766   123.17612   196.94535
    86  H   1.0    0.11    1.14    1.45   352.65877   124.13610   193.68746
    87  H   1.0    0.05    1.13    1.45   357.20167   122.71502   191.96025
    88  H   1.0    0.05    1.13    1.45   354.32739   120.38499   195.88899
    89  H   1.0    0.04    1.06    1.44   358.08795   118.29873   196.82630
    90  H   1.0    0.05    1.06    1.44   357.26592   117.64867   194.02383
    91  H   1.0    0.05    1.06    1.44   359.43154   119.65367   194.52083
    92  H   1.0    0.04    1.06    1.44   356.89364   122.53550   198.64988
    93  H   1.0    0.05    1.06    1.44   358.27692   123.87721   196.35953
    94  H   1.0    0.04    1.06    1.44   355.40454   124.48381   196.93590
    95  N   5.0   -0.22    3.27    1.97   347.33541   119.97492   192.40812
    96  C   4.0    0.03    4.41    4.40   346.66078   120.64388   194.99515
    97  C   4.0    0.15    3.47    3.10   346.87998   123.48225   195.36932
    98  O   6.0   -0.31    1.28    1.80   348.60342   124.66711   194.37532
    99  C   4.0   -0.04    4.42    4.42   348.41066   119.36265   196.89244
   100  C   4.0   -0.02    3.62    3.18   348.50137   116.53940   196.63543
   101  C   4.0   -0.05    3.53    3.13   350.14543   115.38100   194.91578
   102  C   4.0   -0.06    3.52    3.12   346.88565   114.99738   198.06974
   103  C   4.0   -0.04    3.48    3.11   350.17189   112.81664   194.63421
   104  C   4.0   -0.06    3.50    3.11   346.93668   112.42547   197.80895
   105  C   4.0    0.07    3.53    3.13   348.55428   111.32942   196.08930
   106  O   6.0   -0.26    2.15    1.85   348.54672   108.76129   195.76805
   107  H   1.0    0.13    1.09    1.44   348.91900   120.11854   192.07175
   108  H   1.0    0.04    1.13    1.45   344.93735   120.08453   195.27294
   109  H   1.0    0.05    1.10    1.44   350.10386   120.03350   196.69024
   110  H   1.0    0.05    1.10    1.44   347.86453   119.78973   198.58941
   111  H   1.0    0.08    1.12    1.45   351.23202   116.37121   193.95391
   112  H   1.0    0.06    1.10    1.44   345.76883   115.73249   199.20924
   113  H   1.0    0.07    1.10    1.44   351.26226   112.06642   193.47770
   114  H   1.0    0.05    1.10    1.44   345.88221   111.42013   198.78972
   115  H   1.0    0.14    1.11    1.44   347.49226   108.10555   196.75827
   116  N   5.0   -0.16    3.47    2.06   345.10742   124.53294   196.81874
   117  C   4.0    0.04    4.46    4.48   345.16411   127.28249   197.24015
   118  C   4.0    0.16    3.46    3.10   347.09163   127.92311   199.26782
   119  O   6.0   -0.30    1.28    1.80   346.75526   127.38454   201.53549
   120  C   4.0    0.04    4.23    4.06   342.50149   128.25192   197.93368
   121  O   6.0   -0.25    2.09    1.84   341.48671   126.98391   200.08985
   122  H   1.0    0.13    1.14    1.45   343.89800   123.73359   197.55195
   123  H   1.0    0.05    1.14    1.45   345.67434   128.12531   195.69435
   124  H   1.0    0.06    1.07    1.44   342.57708   130.05283   198.26627
   125  H   1.0    0.04    1.07    1.44   341.37710   128.01759   196.50504
   126  H   1.0    0.17    1.10    1.44   340.25650   127.80784   200.65866
   127  N   5.0   -0.15    3.49    2.07   349.16655   129.06261   198.45713
   128  C   4.0    0.04    4.44    4.44   351.13187   129.80150   200.24859
   129  C   4.0    0.16    3.45    3.09   351.23769   132.63042   200.53772
   130  O   6.0   -0.27    1.26    1.80   350.07173   134.02692   199.08074
   131  C   4.0   -0.08    4.20    4.00   353.75481   128.79238   199.40766
   132  H   1.0    0.12    1.13    1.45   349.47836   129.42355   196.90377
   133  H   1.0    0.06    1.14    1.45   350.70668   129.05883   201.86997
   134  H   1.0    0.06    1.05    1.44   355.02659   129.30639   200.62465
   135  H   1.0    0.04    1.05    1.44   353.70379   126.96313   199.31318
   136  H   1.0    0.05    1.05    1.44   354.17433   129.47835   197.75982
   137  N   5.0   -0.14    3.57    2.13   352.78538   133.57717   202.27438
   138  C   4.0    0.04    4.44    4.45   353.11797   136.25302   202.73169
   139  C   4.0    0.07    3.27    3.05   355.84296   136.73490   203.34585
   140  O   6.0   -0.28    1.19    1.80   357.17710   134.96990   204.16221
   141  C   4.0    0.06    4.34    4.27   351.43989   137.12418   204.99936
   142  O   6.0   -0.26    2.19    1.85   348.97002   136.08483   204.74236
   143  C   4.0   -0.07    4.21    4.01   351.28305   139.94554   205.11652
   144  H   1.0    0.13    1.18    1.46   353.69434   132.64175   203.24381
   145  H   1.0    0.06    1.13    1.45   352.62097   137.19221   201.23692
   146  H   1.0    0.06    1.11    1.45   352.20523   136.52514   206.55461
   147  H   1.0    0.16    1.08    1.44   348.48436   135.51981   206.14453
   148  H   1.0    0.06    1.06    1.44   350.23425   140.44254   206.53571
   149  H   1.0    0.05    1.06    1.44   352.96490   140.64285   205.32817
   150  H   1.0    0.06    1.06    1.44   350.54794   140.58238   203.56317
   151  N   5.0   -0.21    3.32    1.99   359.12919   130.65943   206.59807
   152  C   4.0    0.03    4.40    4.38   357.70056   128.88876   208.10229
   153  C   4.0    0.16    3.45    3.10   355.13242   128.37097   206.96279
   154  O   6.0   -0.29    1.31    1.80   354.01937   130.05472   205.84785
   155  C   4.0    0.03    4.28    4.16   357.50402   129.87897   210.78570
   156  O   6.0   -0.25    2.12    1.84   357.57961   132.53971   210.87830
   157  H   1.0    0.15    1.10    1.44   358.43566   132.11641   206.40343
   158  H   1.0    0.04    1.14    1.45   358.57739   127.28060   208.13064
   159  H   1.0    0.06    1.08    1.44   355.94122   129.28749   211.53970
   160  H   1.0    0.04    1.07    1.44   358.87786   129.19489   211.78915
   161  H   1.0    0.15    1.08    1.44   359.00447   133.01214   211.39419
   162  N   5.0   -0.16    3.48    2.07   354.34818   125.98236   206.96468
   163  C   4.0    0.03    4.51    4.56   351.87264   125.26426   205.93666
   164  C   4.0    0.16    3.46    3.10   349.77505   126.08252   207.76025
   165  O   6.0   -0.28    1.24    1.80   350.18323   126.16944   210.04493
   166  C   4.0   -0.03    4.38    4.34   351.67233   122.34275   205.47179
   167  C   4.0   -0.06    4.28    4.16   353.90221   121.38277   203.88442
   168  C   4.0   -0.08    4.21    4.02   349.04939   121.65678   204.30016
   169  C   4.0   -0.09    4.14    3.89   353.45812   118.77872   202.68823
   170  H   1.0    0.09    1.13    1.45   355.21746   124.74081   207.55238
   171  H   1.0    0.05    1.13    1.45   351.67989   126.11464   204.32473
   172  H   1.0    0.05    1.12    1.45   351.77815   121.47725   207.08373
   173  H   1.0    0.04    1.09    1.44   354.25181   122.59597   202.55595
   174  H   1.0    0.04    1.09    1.44   355.39509   121.30340   204.94456
   175  H   1.0    0.04    1.05    1.44   348.95679   119.84642   204.02426
   176  H   1.0    0.07    1.06    1.44   347.71335   122.16889   205.44723
   177  H   1.0    0.06    1.05    1.44   348.84719   122.52794   202.69956
   178  H   1.0    0.04    1.05    1.44   354.93400   118.29118   201.71691
   179  H   1.0    0.04    1.05    1.44   353.15954   117.54284   204.00725
   180  H   1.0    0.04    1.06    1.44   351.99925   118.85431   201.58274
   181  N   5.0   -0.15    3.50    2.08   347.61509   126.81951   206.73035
   182  C   4.0    0.05    4.48    4.51   345.49104   127.67177   208.31205
   183  C   4.0    0.16    3.43    3.09   344.12287   125.34741   209.40620
   184  O   6.0   -0.30    1.25    1.80   344.03406   123.38399   208.17221
   185  C   4.0   -0.03    4.39    4.36   343.66367   129.29127   206.75681
   186  C   4.0    0.17    3.30    3.05   344.38744   132.05405   206.73413
   187  O   6.0   -0.26    1.20    1.80   344.68223   133.28615   208.70511
   188  N   5.0   -0.22    3.25    1.97   344.61987   133.12930   204.47402
   189  H   1.0    0.12    1.16    1.45   347.32596   126.84596   205.13164
   190  H   1.0    0.07    1.13    1.45   346.12787   128.70168   209.68966
   191  H   1.0    0.07    1.10    1.44   343.61643   128.66388   205.03527
   192  H   1.0    0.06    1.10    1.44   341.97048   129.11553   207.43711
   193  H   1.0    0.14    1.10    1.44   344.98081   134.70911   204.35874
   194  H   1.0    0.12    1.09    1.44   344.40822   132.24491   203.12664
   195  N   5.0   -0.15    3.49    2.07   343.14022   125.55717   211.70600
   196  C   4.0    0.05    4.54    4.59   341.86087   123.44446   212.97400
   197  C   4.0    0.16    3.43    3.09   339.20959   124.09641   213.91320
   198  O   6.0   -0.26    1.26    1.80   338.56141   126.28472   214.20422
   199  C   4.0    0.06    4.33    4.26   343.52761   122.50715   215.14152
   200  O   6.0   -0.25    2.16    1.85   344.59720   124.64443   216.45866
   201  C   4.0   -0.07    4.21    4.02   345.67623   120.94813   214.05871
   202  H   1.0    0.12    1.13    1.45   343.19124   126.92344   212.58283
   203  H   1.0    0.07    1.14    1.45   341.62277   122.11598   211.73434
   204  H   1.0    0.05    1.11    1.44   342.51850   121.49993   216.29425
   205  H   1.0    0.15    1.08    1.44   345.50993   124.12854   217.65108
   206  H   1.0    0.05    1.06    1.44   346.74392   120.34531   215.42309
   207  H   1.0    0.05    1.06    1.44   344.99215   119.51572   213.14219
   208  H   1.0    0.07    1.06    1.44   346.67023   121.98370   212.91920
   209  N   5.0   -0.16    3.47    2.06   337.61088   122.19346   214.32327
   210  C   4.0    0.05    4.47    4.49   335.02762   122.68290   215.17931
   211  C   4.0    0.10    3.23    3.04   334.67236   123.08163   218.00634
   212  O   6.0   -0.25    1.12    1.80   333.24372   124.76538   218.73956
   213  C   4.0    0.06    4.35    4.30   333.19081   120.59286   214.40075
   214  O   6.0   -0.27    2.15    1.85   334.22071   118.18346   215.05648
   215  C   4.0   -0.07    4.21    4.01   332.67680   120.74404   211.58884
   216  H   1.0    0.12    1.13    1.45   337.97749   120.62310   214.11918
   217  H   1.0    0.07    1.15    1.45   334.66291   124.27027   214.33839
   218  H   1.0    0.06    1.11    1.45   331.60344   120.81207   215.29081
   219  H   1.0    0.14    1.08    1.44   333.20593   117.04018   214.62940
   220  H   1.0    0.05    1.06    1.44   331.51084   119.41367   211.10695
   221  H   1.0    0.06    1.06    1.44   331.94170   122.37487   211.18821
   222  H   1.0    0.08    1.07    1.44   334.24906   120.53995   210.66854
   223  N   5.0   -0.21    3.29    1.98   339.63856   113.01695   215.88796
   224  C   4.0    0.03    4.38    4.35   340.22815   112.21949   213.33116
   225  C   4.0    0.16    3.48    3.11   341.12955   114.47015   211.87229
   226  O   6.0   -0.29    1.26    1.80   340.74216   116.59609   212.72645
   227  C   4.0   -0.08    4.25    4.10   337.93591   111.06864   212.07638
   228  H   1.0    0.12    1.08    1.44   338.53118   114.20370   215.96922
   229  H   1.0    0.04    1.13    1.45   341.53962   110.93825   213.37463
   230  H   1.0    0.05    1.06    1.44   338.36677   110.54897   210.37185
   231  H   1.0    0.05    1.06    1.44   337.38033   109.60977   213.03637
   232  H   1.0    0.05    1.06    1.44   336.58665   112.30830   212.01213
   233  N   5.0   -0.16    3.55    2.12   342.26716   113.99961   209.68966
   234  C   4.0    0.03    4.51    4.54   343.21959   115.97248   208.03048
   235  C   4.0    0.16    3.46    3.10   341.04262   116.84176   206.35996
   236  O   6.0   -0.29    1.26    1.80   339.04329   115.64178   206.29193
   237  C   4.0   -0.06    4.45    4.46   345.44001   114.91801   206.52248
   238  C   4.0   -0.03    4.33    4.25   347.59241   113.77473   208.15898
   239  C   4.0   -0.09    4.21    4.03   349.66544   112.58987   206.57161
   240  C   4.0   -0.09    4.25    4.11   348.64121   115.79863   209.85029
   241  H   1.0    0.09    1.14    1.45   342.51094   112.49728   209.12085
   242  H   1.0    0.05    1.13    1.45   343.83942   117.42568   208.96023
   243  H   1.0    0.05    1.09    1.44   344.81640   113.62544   205.38109
   244  H   1.0    0.04    1.09    1.44   346.13732   116.25783   205.48502
   245  H   1.0    0.05    1.13    1.45   346.88565   112.41980   209.17188
   246  H   1.0    0.05    1.06    1.44   350.96179   111.90390   207.67143
   247  H   1.0    0.04    1.06    1.44   348.95868   111.24250   205.54738
   248  H   1.0    0.04    1.06    1.44   350.40243   113.86355   205.47935
   249  H   1.0    0.04    1.06    1.44   349.98669   115.09943   210.88019
   250  H   1.0    0.04    1.06    1.44   349.30261   117.16868   208.82795
   251  H   1.0    0.05    1.06    1.44   347.31084   116.43735   210.93688
   252  N   5.0   -0.15    3.46    2.05   341.48860   118.89211   204.97668
   253  C   4.0    0.05    4.51    4.56   339.47226   119.87666   203.30428
   254  C   4.0    0.16    3.42    3.08   340.28673   119.90878   200.53772
   255  O   6.0   -0.30    1.27    1.80   341.98748   121.29962   199.84986
   256  C   4.0   -0.02    4.41    4.40   338.71070   122.57140   204.07151
   257  C   4.0    0.17    3.32    3.06   337.79607   122.75849   206.74169
   258  O   6.0   -0.29    1.27    1.80   337.05341   120.89711   207.87174
   259  N   5.0   -0.23    3.24    1.97   337.92646   125.01860   207.82072
   260  H   1.0    0.11    1.12    1.45   342.88321   119.72737   204.96157
   261  H   1.0    0.07    1.14    1.45   338.04363   118.74282   203.49136
   262  H   1.0    0.07    1.10    1.44   340.14878   123.68634   203.85041
   263  H   1.0    0.05    1.09    1.44   337.39356   123.16667   202.94334
   264  H   1.0    0.13    1.09    1.44   337.47671   125.20568   209.37219
   265  H   1.0    0.12    1.09    1.44   338.45937   126.29605   206.96846
   266  N   5.0   -0.15    3.50    2.08   339.07164   118.32519   198.99948
   267  C   4.0    0.03    4.47    4.49   339.55163   118.14756   196.26883
   268  C   4.0    0.15    3.45    3.10   337.92079   120.07697   194.86287
   269  O   6.0   -0.29    1.28    1.80   336.24083   121.26749   195.97214
   270  C   4.0   -0.06    4.41    4.39   339.01495   115.47926   195.31452
   271  C   4.0   -0.05    4.39    4.36   339.58942   115.09754   192.52717
   272  C   4.0   -0.05    4.33    4.25   338.46315   112.67680   191.48782
   273  C   4.0   -0.04    4.35    4.29   339.54785   110.41102   192.81819
   274  N   5.0   -0.16    4.18    3.39   342.29362   110.39968   192.76716
   275  H   1.0    0.12    1.16    1.45   337.92079   117.30096   199.51916
   276  H   1.0    0.05    1.13    1.45   341.31852   118.51794   195.95135
   277  H   1.0    0.04    1.09    1.44   340.00705   114.28874   196.29339
   278  H   1.0    0.05    1.10    1.44   337.24994   115.08431   195.61687
   279  H   1.0    0.06    1.13    1.45   338.93936   116.52239   191.57475
   280  H   1.0    0.04    1.10    1.44   341.40545   115.07297   192.28339
   281  H   1.0    0.05    1.09    1.44   336.64145   112.70326   191.69191
   282  H   1.0    0.05    1.09    1.44   338.79952   112.55964   189.68880
   283  H   1.0    0.04    1.09    1.44   338.97148   110.39212   194.55862
   284  H   1.0    0.05    1.09    1.44   338.91857   108.88223   192.02828
   285  H   1.0    0.08    1.09    1.44   342.83786   108.93892   192.13411
   286  H   1.0    0.07    1.11    1.45   342.84164   111.66580   191.80718
   287  H   1.0    0.07    1.09    1.44   342.88510   110.58676   194.32997
   288  N   5.0   -0.16    3.56    2.12   338.46126   120.41334   192.44024
   289  C   4.0    0.04    4.40    4.38   337.01373   122.10842   190.82642
   290  C   4.0    0.08    3.22    3.04   335.39990   120.48515   189.06708
   291  O   6.0   -0.29    1.13    1.80   336.28051   118.54062   188.10143
   292  C   4.0   -0.05    4.44    4.45   338.73716   123.87154   189.30141
   293  C   4.0   -0.03    4.32    4.24   340.16012   125.86898   190.86421
   294  C   4.0   -0.08    4.21    4.02   341.94213   127.34674   189.12188
   295  C   4.0   -0.08    4.26    4.12   338.35543   127.53571   192.22292
   296  H   1.0    0.09    1.15    1.45   339.68580   119.66123   191.68057
   297  H   1.0    0.06    1.13    1.45   335.95359   123.18557   191.86388
   298  H   1.0    0.05    1.09    1.44   339.96548   122.85108   188.40001
   299  H   1.0    0.05    1.09    1.44   337.72426   124.73136   188.03907
   300  H   1.0    0.05    1.13    1.45   341.17679   125.04884   192.15111
   301  H   1.0    0.05    1.05    1.44   342.84353   128.60908   190.09698
   302  H   1.0    0.05    1.05    1.44   343.14400   126.19401   188.35654
   303  H   1.0    0.05    1.06    1.44   340.96703   128.17255   187.80852
   304  H   1.0    0.05    1.06    1.44   339.28518   128.78104   193.19613
   305  H   1.0    0.06    1.06    1.44   337.27829   128.38987   191.00972
   306  H   1.0    0.06    1.06    1.44   337.32175   126.52660   193.35109
   307  N   5.0   -0.23    3.27    1.97   330.80409   127.49981   184.42969
   308  C   4.0    0.03    4.39    4.35   332.35933   128.74136   186.35532
   309  C   4.0    0.15    3.47    3.10   331.23116   128.57317   188.98204
   310  O   6.0   -0.30    1.24    1.80   332.25540   129.66355   190.77728
   311  C   4.0   -0.05    4.40    4.38   332.78074   131.52115   185.69959
   312  C   4.0   -0.05    4.34    4.27   330.45071   133.18033   185.64857
   313  C   4.0   -0.06    4.31    4.22   331.03085   135.85618   184.84732
   314  C   4.0   -0.04    4.30    4.19   328.68381   137.48134   184.65268
   315  N   5.0   -0.16    4.15    3.29   327.43848   137.79315   187.12255
   316  H   1.0    0.10    1.08    1.44   329.25640   127.99492   184.39190
   317  H   1.0    0.05    1.13    1.45   333.95615   127.84185   186.36477
   318  H   1.0    0.05    1.10    1.44   333.96182   132.22601   186.91090
   319  H   1.0    0.04    1.10    1.44   333.58576   131.60807   184.05553
   320  H   1.0    0.05    1.10    1.44   329.21861   132.45845   184.49961
   321  H   1.0    0.05    1.10    1.44   329.68537   133.19922   187.31342
   322  H   1.0    0.05    1.09    1.44   332.18926   136.61018   186.05108
   323  H   1.0    0.05    1.09    1.44   331.88501   135.82972   183.22594
   324  H   1.0    0.05    1.09    1.44   329.13357   139.12729   183.98183
   325  H   1.0    0.05    1.09    1.44   327.51029   136.72167   183.46782
   326  H   1.0    0.08    1.09    1.44   326.20260   138.92509   186.98838
   327  H   1.0    0.07    1.09    1.44   326.79598   136.31916   187.61766
   328  H   1.0    0.08    1.09    1.44   328.56287   138.32227   188.25639
   329  N   5.0   -0.15    3.55    2.11   329.18648   127.12564   189.26739
   330  C   4.0    0.03    4.58    4.64   327.98273   126.83085   191.74293
   331  C   4.0    0.16    3.55    3.14   329.72505   125.37198   193.47014
   332  O   6.0   -0.30    1.27    1.80   330.83243   123.48603   192.66512
   333  C   4.0    0.05    4.38    4.35   325.53931   125.39654   191.47837
   334  O   6.0   -0.27    2.15    1.85   323.99729   126.60975   189.59809
   335  C   4.0   -0.07    4.20    4.01   324.09367   125.28127   193.95769
   336  H   1.0    0.09    1.14    1.45   328.47027   126.30361   188.06175
   337  H   1.0    0.05    1.13    1.45   327.64257   128.49192   192.44024
   338  H   1.0    0.05    1.12    1.45   325.93993   123.67878   190.97948
   339  H   1.0    0.14    1.09    1.44   324.77208   126.63621   188.21293
   340  H   1.0    0.06    1.05    1.44   322.53654   124.34586   193.71392
   341  H   1.0    0.05    1.06    1.44   325.11790   124.44223   195.22570
   342  H   1.0    0.06    1.06    1.44   323.70250   126.98202   194.51705
   343  N   5.0   -0.16    3.50    2.08   330.07843   126.22613   195.81529
   344  C   4.0    0.04    4.56    4.61   331.69604   124.79939   197.48392
   345  C   4.0    0.16    3.46    3.10   330.30142   122.52227   198.47414
   346  O   6.0   -0.32    1.26    1.80   328.39469   122.77361   199.78561
   347  C   4.0   -0.05    4.42    4.41   332.64468   126.49826   199.64199
   348  C   4.0   -0.04    4.32    4.23   334.14134   128.73191   198.80106
   349  C   4.0    0.25    3.16    3.03   335.28085   130.13220   201.01771
   350  O   6.0   -0.27    1.17    1.80   333.90135   130.89565   202.81106
   351  O   6.0   -0.29    1.22    1.80   337.60521   130.41755   200.99314
   352  H   1.0    0.10    1.13    1.45   329.42081   127.57351   196.44079
   353  H   1.0    0.07    1.15    1.45   333.16057   124.20224   196.55795
   354  H   1.0    0.06    1.10    1.44   331.20093   127.08596   200.60764
   355  H   1.0    0.05    1.10    1.44   333.67458   125.49103   200.77582
   356  H   1.0    0.06    1.10    1.44   335.47549   128.18389   197.67100
   357  H   1.0    0.06    1.10    1.44   333.06420   129.86764   197.84675
   358  N   5.0   -0.15    3.55    2.11   331.20282   120.29806   197.70124
   359  C   4.0    0.03    4.57    4.63   330.10867   117.90000   198.47603
   360  C   4.0    0.15    3.50    3.11   331.94170   116.72081   200.32040
   361  O   6.0   -0.30    1.31    1.80   334.21126   117.09876   200.12198
   362  C   4.0   -0.02    4.36    4.31   329.62490   116.09909   196.19513
   363  C   4.0   -0.08    4.20    4.00   327.80320   117.35765   194.29595
   364  C   4.0   -0.07    4.25    4.09   332.08154   115.32620   194.94602
   365  H   1.0    0.12    1.15    1.45   332.47838   120.14878   196.70346
   366  H   1.0    0.05    1.13    1.45   328.46839   118.18346   199.24326
   367  H   1.0    0.05    1.13    1.45   328.83499   114.56653   196.81685
   368  H   1.0    0.05    1.05    1.44   327.51218   116.22570   192.88433
   369  H   1.0    0.05    1.05    1.44   326.20827   117.72048   195.12554
   370  H   1.0    0.06    1.05    1.44   328.54208   118.92045   193.68368
   371  H   1.0    0.05    1.06    1.44   331.72627   114.20937   193.53628
   372  H   1.0    0.06    1.06    1.44   332.95459   116.81908   194.33753
   373  H   1.0    0.05    1.06    1.44   333.13979   114.45503   196.16300
   374  N   5.0   -0.16    3.56    2.13   330.88723   115.28651   202.08918
   375  C   4.0    0.04    4.52    4.56   332.35177   114.05819   204.02048
   376  C   4.0    0.07    3.32    3.06   331.45982   111.33509   204.16599
   377  O   6.0   -0.28    1.15    1.80   329.19404   110.80408   203.78427
   378  C   4.0   -0.02    4.44    4.45   331.86800   115.30163   206.57350
   379  C   4.0   -0.07    4.29    4.18   329.09010   115.11644   207.27270
   380  C   4.0   -0.08    4.26    4.12   333.52340   114.13945   208.57283
   381  H   1.0    0.10    1.14    1.45   329.28853   115.00683   202.18745
   382  H   1.0    0.06    1.13    1.45   334.13756   114.17346   203.62364
   383  H   1.0    0.06    1.13    1.45   332.29508   117.07986   206.45445
   384  H   1.0    0.05    1.06    1.44   328.81420   115.91579   208.89976
   385  H   1.0    0.06    1.06    1.44   328.08099   115.96303   205.99903
   386  H   1.0    0.07    1.07    1.44   328.59878   113.35332   207.36719
   387  H   1.0    0.05    1.06    1.44   333.19459   114.94825   210.18477
   388  H   1.0    0.05    1.06    1.44   333.15868   112.34799   208.70322
   389  H   1.0    0.07    1.06    1.44   335.28463   114.37188   208.12119
   390  N   5.0   -0.21    3.27    1.97   322.65559   117.78662   203.82206
   391  C   4.0    0.03    4.31    4.21   323.62502   120.24326   202.98680
   392  C   4.0    0.16    3.47    3.10   324.87791   121.41678   205.31872
   393  O   6.0   -0.26    1.28    1.80   324.18249   120.76294   207.44278
   394  C   4.0   -0.08    4.19    3.98   321.40081   121.92134   202.08162
   395  H   1.0    0.12    1.08    1.44   321.36113   117.87166   204.80094
   396  H   1.0    0.05    1.11    1.45   324.80610   120.08453   201.59407
   397  H   1.0    0.05    1.05    1.44   322.04521   123.54650   201.52982
   398  H   1.0    0.05    1.05    1.44   320.54287   121.09931   200.68701
   399  H   1.0    0.06    1.05    1.44   320.22162   122.17078   203.46301
   400  N   5.0   -0.17    3.48    2.06   326.65236   123.14210   204.89543
   401  C   4.0    0.04    4.35    4.30   327.99784   124.34964   206.99113
   402  C   4.0    0.11    3.29    3.05   326.07977   125.31907   208.90731
   403  O   6.0   -0.25    1.13    1.80   326.08355   124.59908   211.06538
   404  C   4.0   -0.07    4.24    4.08   329.56632   126.50014   205.98580
   405  H   1.0    0.11    1.15    1.45   327.10778   123.64288   203.41766
   406  H   1.0    0.06    1.12    1.45   329.10522   123.14021   207.81127
   407  H   1.0    0.06    1.06    1.44   330.46016   127.30517   207.36908
   408  H   1.0    0.05    1.06    1.44   330.77763   125.85764   204.76881
   409  H   1.0    0.06    1.06    1.44   328.47405   127.72658   205.17133
   410  H   1.0    0.10    1.08    1.44   362.81494   120.33785   208.95295
   411  H   1.0    0.06    1.04    1.43   363.75047   115.72751   204.42743
   412  H   1.0    0.10    1.08    1.44   360.92330   111.70770   212.37767
   413  H   1.0    0.07    1.04    1.43   359.28375   105.21945   206.28032
   414  H   1.0    0.11    1.08    1.44   352.33559   103.02852   211.48592
   415  H   1.0    0.08    1.04    1.44   352.76551    99.14840   206.41260
   416  H   1.0    0.10    1.07    1.44   351.39967   138.15746   190.58617
   417  H   1.0    0.06    1.04    1.44   355.43215   119.73847   189.07217
   418  H   1.0    0.10    1.08    1.44   346.90892   118.35557   192.11084
   419  H   1.0    0.05    1.04    1.43   356.57628   138.45912   203.10019
   420  H   1.0    0.10    1.09    1.44   360.64009   130.93541   207.32852
   421  H   1.0    0.07    1.04    1.43   335.59298   121.98373   219.23846
   422  H   1.0    0.10    1.08    1.44   339.02562   111.69654   216.76739
   423  H   1.0    0.06    1.04    1.43   333.61857   120.98819   188.68647
   424  H   1.0    0.10    1.08    1.44   331.45797   127.80355   182.88932
   425  H   1.0    0.06    1.04    1.43   332.68978   109.95822   204.56911
   426  H   1.0    0.10    1.08    1.44   322.19186   116.86888   202.46734
   427  H   1.0    0.07    1.05    1.44   324.77710   126.58379   208.38330

  Z AO/shell   Hii/eV     exponent
  1     Wed Apr 25 08:07:45 CEST 2018   EN: 2.200 GM2: 0.406  GM3: 0.0800  RAES: 1.40
     1s    -10.707211    1.230000
  6     Wed Apr 25 08:07:45 CEST 2018   EN: 2.550 GM2: 0.538  GM3: 0.1500  RAES: 3.00
     2s    -13.970922    2.096432
     2p    -10.063292    1.800000
  7     Wed Apr 25 08:07:45 CEST 2018   EN: 3.040 GM2: 0.461  GM3:-0.0640  RAES: 1.90
     2s    -16.686243    2.339881
     2p    -12.523956    2.014332
  8     Wed Apr 25 08:07:45 CEST 2018   EN: 3.440 GM2: 0.452  GM3:-0.0517  RAES: 1.80
     2s    -20.229985    2.439742
     2p    -15.503117    2.137023
 no old-style atom pair restraining (fixing) potential

molecular fragmentation (1/2 indicates fragments):
111111111122222222222222222222222222222222222222222222222222222222222222
222222222222222222222222222222222222222222222222222222222222222222222222
222222222222222222222222222222222222222222222222222222222222222222222222
222222222222222222222222222222222222222222222222222222222222222222222222
222222222222222222222222222222222222222222222222222222222222222222222222
2222222222222222222222222222222222222222222222222112222222222222222
# atoms in fragment 1/2:    12   415
 fragment masses (1/2) :       73.09     2733.30
CMA distance (Bohr)    :  20.100
constraining FC (au)   :  0.0500
           ------------------------------------------------- 
          |        Self-Consistent Charge Iterations        |
           ------------------------------------------------- 

 Ncao       : 1015
 Nao        : 1015
 Nshell     : 623
 Nel        : 1124
 T(el)      :   500.0
 intcut     :    35.0
 scfconv/Eh :  0.100E-06
   qconv/e  :  0.100E-04
 intneglect :  0.100E-08
 broydamp   :      0.400
 iter      E             dE          RMSdq      gap      omega  full diag
   1   -646.6099051 -0.646610E+03  0.457E+00    2.83       0.0  T
   2   -648.1741110 -0.156421E+01  0.214E+00    1.79       1.0  T
   3   -648.2645820 -0.904711E-01  0.125E+00    1.90       1.0  T
   4   -648.3647385 -0.100156E+00  0.253E-01    1.25       1.0  T
   5   -648.3719952 -0.725666E-02  0.117E-01    1.44       1.0  T
   6   -648.3730518 -0.105656E-02  0.505E-02    1.41       1.0  T
   7   -648.3732892 -0.237410E-03  0.205E-02    1.40       1.0  T
   8   -648.3733156 -0.264353E-04  0.104E-02    1.39       1.0  T
   9   -648.3733284 -0.127940E-04  0.451E-03    1.38       1.1  T
  10   -648.3733306 -0.219373E-05  0.183E-03    1.38       2.6  T
  11   -648.3733309 -0.275028E-06  0.779E-04    1.38       6.2  T
  12   -648.3733309 -0.396669E-07  0.366E-04    1.38      13.2  T
  13   -648.3733309 -0.133709E-07  0.158E-04    1.38      30.7  T
  14   -648.3733309 -0.215073E-08  0.696E-05    1.38      69.6  T
  15   -648.3733309 -0.315822E-09  0.290E-05    1.38     167.1  T
speedup  1.00
cpu  time for SCC    7.10 s
wall time for SCC    7.10 s

   *** convergence criteria satisfied after 15 iterations ***

          eigenvalues
 #    :         550        551        552        553        554        555        556        557
 occ. :        2.000      2.000      2.000      2.000      2.000      2.000      2.000      2.000
 eps  :       -10.599    -10.357    -10.309    -10.142    -10.030     -9.993     -9.956     -9.936
 #    :         558        559        560        561        562        563        564        565
 occ. :        2.000      2.000      2.000      2.000      2.000      0.000      0.000      0.000
 eps  :        -9.855     -9.832     -9.775     -9.768     -9.677     -8.299     -8.132     -8.088
 #    :         566        567        568        569        570        571        572        573
 occ. :        0.000      0.000      0.000      0.000      0.000      0.000      0.000      0.000
 eps  :        -8.069     -7.969     -7.897     -7.858     -7.676     -7.435     -6.554     -6.531


   #   Z            q   n(s)   n(p)   n(d)      C6AA      α(0)
   1   7 N     -0.424  1.284  4.140  0.000    31.043     8.275
   2   6 C      0.028  1.037  2.936  0.000    20.130     6.391
   3   6 C      0.190  1.099  2.711  0.000    23.941     8.013
   4   8 O     -0.360  1.752  4.608  0.000    20.896     6.129
   5   6 C     -0.162  0.984  3.178  0.000    23.682     6.936
   6   1 H      0.193  0.807  0.000  0.000     1.142     1.674
   7   1 H      0.060  0.940  0.000  0.000     2.196     2.317
   8   1 H      0.074  0.926  0.000  0.000     2.039     2.233
   9   1 H      0.077  0.923  0.000  0.000     2.009     2.216
  10   1 H      0.076  0.924  0.000  0.000     2.017     2.221
  11   7 N     -0.424  1.283  4.141  0.000    31.054     8.276
  12   6 C      0.028  1.028  2.944  0.000    20.112     6.386
  13   6 C      0.260  1.053  2.688  0.000    22.626     7.789
  14   8 O     -0.527  1.763  4.764  0.000    24.384     6.621
  15   6 C     -0.154  0.976  3.178  0.000    23.502     6.907
  16   1 H      0.186  0.814  0.000  0.000     1.181     1.702
  17   1 H      0.050  0.950  0.000  0.000     2.317     2.380
  18   1 H      0.061  0.939  0.000  0.000     2.192     2.315
  19   1 H      0.063  0.937  0.000  0.000     2.167     2.302
  20   1 H      0.080  0.920  0.000  0.000     1.977     2.199
  21   7 N     -0.169  1.205  3.964  0.000    24.656     7.375
  22   6 C      0.015  1.037  2.948  0.000    20.328     6.420
  23   6 C      0.197  1.089  2.714  0.000    23.798     7.989
  24   8 O     -0.374  1.770  4.604  0.000    21.177     6.170
  25   6 C     -0.101  1.014  3.087  0.000    22.412     6.736
  26   6 C     -0.029  1.021  3.007  0.000    21.043     6.524
  27   6 C     -0.155  0.977  3.178  0.000    23.530     6.911
  28   6 C     -0.161  0.975  3.187  0.000    23.649     6.928
  29   1 H      0.239  0.761  0.000  0.000     0.928     1.509
  30   1 H      0.104  0.896  0.000  0.000     1.747     2.067
  31   1 H      0.068  0.932  0.000  0.000     2.102     2.267
  32   1 H      0.079  0.921  0.000  0.000     1.985     2.203
  33   1 H      0.064  0.936  0.000  0.000     2.150     2.293
  34   1 H      0.063  0.937  0.000  0.000     2.159     2.297
  35   1 H      0.051  0.949  0.000  0.000     2.313     2.378
  36   1 H      0.061  0.939  0.000  0.000     2.189     2.314
  37   1 H      0.066  0.934  0.000  0.000     2.127     2.280
  38   1 H      0.062  0.938  0.000  0.000     2.176     2.307
  39   1 H      0.056  0.944  0.000  0.000     2.251     2.346
  40   7 N     -0.419  1.281  4.138  0.000    30.921     8.259
  41   6 C      0.035  1.026  2.939  0.000    20.000     6.369
  42   6 C      0.199  1.095  2.706  0.000    23.760     7.983
  43   8 O     -0.393  1.759  4.635  0.000    21.550     6.224
  44   6 C     -0.147  0.978  3.169  0.000    23.378     6.890
  45   1 H      0.186  0.814  0.000  0.000     1.182     1.703
  46   1 H      0.078  0.922  0.000  0.000     1.998     2.210
  47   1 H      0.074  0.926  0.000  0.000     2.044     2.236
  48   1 H      0.072  0.928  0.000  0.000     2.062     2.245
  49   1 H      0.068  0.932  0.000  0.000     2.109     2.271
  50   7 N     -0.413  1.290  4.124  0.000    30.744     8.235
  51   6 C      0.017  1.041  2.942  0.000    20.294     6.416
  52   6 C      0.262  1.052  2.686  0.000    22.577     7.781
  53   8 O     -0.505  1.766  4.739  0.000    23.885     6.553
  54   6 C     -0.094  1.012  3.082  0.000    22.277     6.717
  55   6 C     -0.025  1.034  2.990  0.000    20.977     6.514
  56   6 C     -0.152  0.980  3.172  0.000    23.474     6.905
  57   6 C     -0.152  0.977  3.176  0.000    23.470     6.902
  58   1 H      0.179  0.821  0.000  0.000     1.218     1.729
  59   1 H      0.061  0.939  0.000  0.000     2.190     2.314
  60   1 H      0.044  0.956  0.000  0.000     2.401     2.423
  61   1 H      0.050  0.950  0.000  0.000     2.324     2.384
  62   1 H      0.045  0.955  0.000  0.000     2.386     2.416
  63   1 H      0.059  0.941  0.000  0.000     2.215     2.327
  64   1 H      0.043  0.957  0.000  0.000     2.412     2.429
  65   1 H      0.057  0.943  0.000  0.000     2.237     2.339
  66   1 H      0.055  0.945  0.000  0.000     2.259     2.350
  67   1 H      0.057  0.943  0.000  0.000     2.239     2.340
  68   1 H      0.050  0.950  0.000  0.000     2.316     2.380
  69   7 N     -0.190  1.209  3.981  0.000    25.123     7.444
  70   6 C      0.010  1.035  2.955  0.000    20.401     6.430
  71   6 C      0.266  1.041  2.694  0.000    22.517     7.771
  72   8 O     -0.493  1.749  4.743  0.000    23.621     6.516
  73   6 C     -0.151  0.977  3.174  0.000    23.449     6.900
  74   1 H      0.214  0.786  0.000  0.000     1.038     1.596
  75   1 H      0.093  0.907  0.000  0.000     1.850     2.127
  76   1 H      0.081  0.919  0.000  0.000     1.972     2.196
  77   1 H      0.075  0.925  0.000  0.000     2.027     2.226
  78   1 H      0.075  0.925  0.000  0.000     2.033     2.230
  79   7 N     -0.169  1.209  3.960  0.000    24.664     7.376
  80   6 C      0.006  1.043  2.951  0.000    20.463     6.439
  81   6 C      0.200  1.088  2.712  0.000    23.748     7.981
  82   8 O     -0.338  1.737  4.602  0.000    20.485     6.068
  83   6 C     -0.031  1.034  2.997  0.000    21.090     6.531
  84   6 C     -0.155  0.977  3.178  0.000    23.529     6.911
  85   6 C     -0.164  0.978  3.186  0.000    23.706     6.937
  86   1 H      0.225  0.775  0.000  0.000     0.987     1.556
  87   1 H      0.094  0.906  0.000  0.000     1.845     2.124
  88   1 H      0.074  0.926  0.000  0.000     2.044     2.235
  89   1 H      0.072  0.928  0.000  0.000     2.063     2.246
  90   1 H      0.061  0.939  0.000  0.000     2.189     2.314
  91   1 H      0.062  0.938  0.000  0.000     2.170     2.303
  92   1 H      0.075  0.925  0.000  0.000     2.031     2.228
  93   1 H      0.066  0.934  0.000  0.000     2.130     2.282
  94   1 H      0.051  0.949  0.000  0.000     2.303     2.373
  95   7 N     -0.406  1.283  4.123  0.000    30.546     8.208
  96   6 C      0.021  1.034  2.945  0.000    20.225     6.404
  97   6 C      0.264  1.046  2.690  0.000    22.541     7.775
  98   8 O     -0.494  1.738  4.757  0.000    23.659     6.521
  99   6 C     -0.095  1.005  3.090  0.000    22.299     6.719
 100   6 C     -0.017  1.085  2.931  0.000    28.420     8.744
 101   6 C     -0.060  1.064  2.996  0.000    29.499     8.907
 102   6 C     -0.066  1.058  3.007  0.000    29.631     8.927
 103   6 C     -0.076  1.052  3.024  0.000    29.906     8.968
 104   6 C     -0.105  1.047  3.058  0.000    30.644     9.078
 105   6 C      0.129  1.047  2.824  0.000    25.179     8.225
 106   8 O     -0.451  1.684  4.767  0.000    21.865     6.312
 107   1 H      0.183  0.817  0.000  0.000     1.199     1.715
 108   1 H      0.059  0.941  0.000  0.000     2.207     2.323
 109   1 H      0.061  0.939  0.000  0.000     2.188     2.313
 110   1 H      0.054  0.946  0.000  0.000     2.272     2.357
 111   1 H      0.091  0.909  0.000  0.000     1.866     2.136
 112   1 H      0.061  0.939  0.000  0.000     2.182     2.310
 113   1 H      0.078  0.922  0.000  0.000     2.001     2.212
 114   1 H      0.078  0.922  0.000  0.000     2.000     2.211
 115   1 H      0.350  0.650  0.000  0.000     0.587     1.203
 116   7 N     -0.183  1.215  3.968  0.000    24.968     7.421
 117   6 C      0.012  1.039  2.950  0.000    20.378     6.427
 118   6 C      0.268  1.044  2.688  0.000    22.471     7.763
 119   8 O     -0.503  1.747  4.756  0.000    23.857     6.549
 120   6 C      0.069  0.993  2.939  0.000    19.620     6.341
 121   8 O     -0.473  1.659  4.814  0.000    22.321     6.378
 122   1 H      0.234  0.766  0.000  0.000     0.948     1.525
 123   1 H      0.088  0.912  0.000  0.000     1.896     2.153
 124   1 H      0.044  0.956  0.000  0.000     2.393     2.419
 125   1 H      0.066  0.934  0.000  0.000     2.126     2.280
 126   1 H      0.308  0.692  0.000  0.000     0.697     1.311
 127   7 N     -0.159  1.206  3.953  0.000    24.446     7.343
 128   6 C      0.012  1.034  2.954  0.000    20.376     6.426
 129   6 C      0.269  1.040  2.691  0.000    22.463     7.761
 130   8 O     -0.499  1.752  4.746  0.000    23.751     6.534
 131   6 C     -0.163  0.984  3.178  0.000    23.694     6.937
 132   1 H      0.221  0.779  0.000  0.000     1.003     1.569
 133   1 H      0.092  0.908  0.000  0.000     1.861     2.133
 134   1 H      0.087  0.913  0.000  0.000     1.905     2.158
 135   1 H      0.089  0.911  0.000  0.000     1.891     2.150
 136   1 H      0.073  0.927  0.000  0.000     2.057     2.243
 137   7 N     -0.172  1.197  3.974  0.000    24.711     7.383
 138   6 C      0.011  1.039  2.950  0.000    20.401     6.431
 139   6 C      0.181  1.087  2.731  0.000    24.102     8.041
 140   8 O     -0.356  1.762  4.593  0.000    20.817     6.117
 141   6 C      0.117  1.022  2.862  0.000    18.760     6.182
 142   8 O     -0.479  1.672  4.807  0.000    22.445     6.396
 143   6 C     -0.174  0.981  3.193  0.000    23.918     6.969
 144   1 H      0.236  0.764  0.000  0.000     0.939     1.518
 145   1 H      0.114  0.886  0.000  0.000     1.666     2.018
 146   1 H      0.050  0.950  0.000  0.000     2.321     2.382
 147   1 H      0.322  0.678  0.000  0.000     0.659     1.274
 148   1 H      0.082  0.918  0.000  0.000     1.954     2.186
 149   1 H      0.075  0.925  0.000  0.000     2.029     2.227
 150   1 H      0.085  0.915  0.000  0.000     1.931     2.173
 151   7 N     -0.403  1.273  4.130  0.000    30.458     8.196
 152   6 C      0.013  1.029  2.958  0.000    20.363     6.426
 153   6 C      0.269  1.044  2.687  0.000    22.457     7.760
 154   8 O     -0.495  1.740  4.755  0.000    23.674     6.524
 155   6 C      0.063  0.989  2.948  0.000    19.688     6.348
 156   8 O     -0.505  1.685  4.820  0.000    22.993     6.473
 157   1 H      0.194  0.806  0.000  0.000     1.138     1.671
 158   1 H      0.064  0.936  0.000  0.000     2.153     2.294
 159   1 H      0.043  0.957  0.000  0.000     2.403     2.424
 160   1 H      0.051  0.949  0.000  0.000     2.309     2.376
 161   1 H      0.345  0.655  0.000  0.000     0.599     1.215
 162   7 N     -0.190  1.209  3.980  0.000    25.120     7.444
 163   6 C      0.004  1.048  2.948  0.000    20.521     6.450
 164   6 C      0.277  1.041  2.683  0.000    22.320     7.736
 165   8 O     -0.512  1.752  4.759  0.000    24.046     6.575
 166   6 C     -0.045  1.050  2.994  0.000    21.336     6.570
 167   6 C     -0.095  1.008  3.088  0.000    22.310     6.723
 168   6 C     -0.158  0.982  3.176  0.000    23.606     6.926
 169   6 C     -0.155  0.978  3.177  0.000    23.542     6.916
 170   1 H      0.220  0.780  0.000  0.000     1.010     1.574
 171   1 H      0.082  0.918  0.000  0.000     1.961     2.190
 172   1 H      0.064  0.936  0.000  0.000     2.150     2.293
 173   1 H      0.059  0.941  0.000  0.000     2.211     2.325
 174   1 H      0.056  0.944  0.000  0.000     2.250     2.346
 175   1 H      0.084  0.916  0.000  0.000     1.939     2.177
 176   1 H      0.050  0.950  0.000  0.000     2.315     2.379
 177   1 H      0.059  0.941  0.000  0.000     2.208     2.324
 178   1 H      0.069  0.931  0.000  0.000     2.099     2.265
 179   1 H      0.063  0.937  0.000  0.000     2.167     2.302
 180   1 H      0.067  0.933  0.000  0.000     2.118     2.276
 181   7 N     -0.186  1.215  3.971  0.000    25.042     7.432
 182   6 C      0.025  1.036  2.940  0.000    20.161     6.393
 183   6 C      0.266  1.045  2.689  0.000    22.507     7.768
 184   8 O     -0.472  1.730  4.742  0.000    23.182     6.455
 185   6 C     -0.120  1.013  3.107  0.000    22.772     6.791
 186   6 C      0.283  1.038  2.679  0.000    22.206     7.716
 187   8 O     -0.511  1.756  4.755  0.000    24.034     6.573
 188   7 N     -0.280  1.193  4.087  0.000    27.244     7.752
 189   1 H      0.239  0.761  0.000  0.000     0.925     1.507
 190   1 H      0.085  0.915  0.000  0.000     1.923     2.168
 191   1 H      0.099  0.901  0.000  0.000     1.790     2.092
 192   1 H      0.082  0.918  0.000  0.000     1.954     2.186
 193   1 H      0.247  0.753  0.000  0.000     0.894     1.481
 194   1 H      0.221  0.779  0.000  0.000     1.005     1.570
 195   7 N     -0.166  1.202  3.965  0.000    24.601     7.366
 196   6 C      0.006  1.040  2.954  0.000    20.472     6.442
 197   6 C      0.266  1.042  2.692  0.000    22.506     7.769
 198   8 O     -0.492  1.745  4.746  0.000    23.604     6.514
 199   6 C      0.107  1.027  2.866  0.000    18.900     6.205
 200   8 O     -0.514  1.695  4.819  0.000    23.200     6.502
 201   6 C     -0.161  0.980  3.181  0.000    23.660     6.931
 202   1 H      0.218  0.782  0.000  0.000     1.020     1.582
 203   1 H      0.106  0.894  0.000  0.000     1.731     2.057
 204   1 H      0.058  0.942  0.000  0.000     2.225     2.332
 205   1 H      0.348  0.652  0.000  0.000     0.593     1.209
 206   1 H      0.080  0.920  0.000  0.000     1.980     2.200
 207   1 H      0.072  0.928  0.000  0.000     2.058     2.243
 208   1 H      0.071  0.929  0.000  0.000     2.075     2.252
 209   7 N     -0.176  1.204  3.972  0.000    24.820     7.399
 210   6 C      0.010  1.039  2.951  0.000    20.402     6.431
 211   6 C      0.199  1.086  2.715  0.000    23.759     7.983
 212   8 O     -0.359  1.761  4.598  0.000    20.887     6.127
 213   6 C      0.110  1.023  2.866  0.000    18.844     6.194
 214   8 O     -0.488  1.676  4.812  0.000    22.633     6.422
 215   6 C     -0.171  0.981  3.190  0.000    23.871     6.963
 216   1 H      0.231  0.769  0.000  0.000     0.961     1.536
 217   1 H      0.109  0.891  0.000  0.000     1.701     2.039
 218   1 H      0.060  0.940  0.000  0.000     2.194     2.316
 219   1 H      0.339  0.661  0.000  0.000     0.614     1.230
 220   1 H      0.077  0.923  0.000  0.000     2.012     2.218
 221   1 H      0.058  0.942  0.000  0.000     2.221     2.331
 222   1 H      0.098  0.902  0.000  0.000     1.805     2.101
 223   7 N     -0.419  1.286  4.133  0.000    30.912     8.257
 224   6 C      0.024  1.026  2.951  0.000    20.182     6.397
 225   6 C      0.271  1.039  2.690  0.000    22.423     7.755
 226   8 O     -0.513  1.755  4.758  0.000    24.068     6.578
 227   6 C     -0.160  0.980  3.180  0.000    23.637     6.927
 228   1 H      0.178  0.822  0.000  0.000     1.225     1.733
 229   1 H      0.064  0.936  0.000  0.000     2.152     2.294
 230   1 H      0.066  0.934  0.000  0.000     2.126     2.280
 231   1 H      0.068  0.932  0.000  0.000     2.107     2.270
 232   1 H      0.060  0.940  0.000  0.000     2.202     2.320
 233   7 N     -0.183  1.202  3.981  0.000    24.963     7.420
 234   6 C      0.009  1.035  2.956  0.000    20.425     6.434
 235   6 C      0.271  1.043  2.686  0.000    22.425     7.755
 236   8 O     -0.477  1.743  4.735  0.000    23.291     6.470
 237   6 C     -0.111  1.017  3.094  0.000    22.599     6.765
 238   6 C     -0.031  1.033  2.998  0.000    21.086     6.531
 239   6 C     -0.154  0.977  3.176  0.000    23.510     6.909
 240   6 C     -0.154  0.975  3.179  0.000    23.507     6.908
 241   1 H      0.222  0.778  0.000  0.000     1.002     1.568
 242   1 H      0.080  0.920  0.000  0.000     1.973     2.197
 243   1 H      0.078  0.922  0.000  0.000     1.997     2.210
 244   1 H      0.075  0.925  0.000  0.000     2.029     2.227
 245   1 H      0.052  0.948  0.000  0.000     2.295     2.369
 246   1 H      0.054  0.946  0.000  0.000     2.274     2.358
 247   1 H      0.064  0.936  0.000  0.000     2.149     2.292
 248   1 H      0.066  0.934  0.000  0.000     2.126     2.280
 249   1 H      0.054  0.946  0.000  0.000     2.264     2.353
 250   1 H      0.060  0.940  0.000  0.000     2.195     2.317
 251   1 H      0.042  0.958  0.000  0.000     2.422     2.433
 252   7 N     -0.182  1.208  3.974  0.000    24.947     7.418
 253   6 C      0.016  1.038  2.946  0.000    20.307     6.416
 254   6 C      0.266  1.040  2.694  0.000    22.515     7.770
 255   8 O     -0.474  1.736  4.738  0.000    23.208     6.459
 256   6 C     -0.113  1.008  3.105  0.000    22.632     6.770
 257   6 C      0.288  1.031  2.681  0.000    22.119     7.701
 258   8 O     -0.469  1.734  4.735  0.000    23.110     6.445
 259   7 N     -0.299  1.187  4.112  0.000    27.700     7.817
 260   1 H      0.213  0.787  0.000  0.000     1.040     1.597
 261   1 H      0.105  0.895  0.000  0.000     1.743     2.064
 262   1 H      0.092  0.908  0.000  0.000     1.855     2.129
 263   1 H      0.079  0.921  0.000  0.000     1.990     2.206
 264   1 H      0.215  0.785  0.000  0.000     1.034     1.593
 265   1 H      0.207  0.793  0.000  0.000     1.072     1.622
 266   7 N     -0.171  1.207  3.964  0.000    24.701     7.381
 267   6 C     -0.000  1.040  2.960  0.000    20.589     6.461
 268   6 C      0.267  1.043  2.690  0.000    22.494     7.766
 269   8 O     -0.510  1.764  4.745  0.000    24.004     6.569
 270   6 C     -0.124  1.013  3.111  0.000    22.864     6.805
 271   6 C     -0.128  1.009  3.118  0.000    22.930     6.815
 272   6 C     -0.122  1.009  3.113  0.000    22.829     6.800
 273   6 C     -0.086  1.008  3.077  0.000    22.199     6.720
 274   7 N     -0.123  1.132  3.990  0.000    23.660     7.224
 275   1 H      0.236  0.764  0.000  0.000     0.938     1.517
 276   1 H      0.096  0.904  0.000  0.000     1.826     2.113
 277   1 H      0.100  0.900  0.000  0.000     1.787     2.090
 278   1 H      0.088  0.912  0.000  0.000     1.899     2.155
 279   1 H      0.084  0.916  0.000  0.000     1.941     2.179
 280   1 H      0.081  0.919  0.000  0.000     1.969     2.194
 281   1 H      0.104  0.896  0.000  0.000     1.751     2.069
 282   1 H      0.110  0.890  0.000  0.000     1.700     2.039
 283   1 H      0.131  0.869  0.000  0.000     1.529     1.933
 284   1 H      0.138  0.862  0.000  0.000     1.475     1.899
 285   1 H      0.297  0.703  0.000  0.000     0.722     1.331
 286   1 H      0.286  0.714  0.000  0.000     0.758     1.363
 287   1 H      0.273  0.727  0.000  0.000     0.798     1.399
 288   7 N     -0.175  1.204  3.972  0.000    24.792     7.395
 289   6 C      0.012  1.037  2.951  0.000    20.376     6.427
 290   6 C      0.191  1.092  2.717  0.000    23.922     8.010
 291   8 O     -0.344  1.749  4.594  0.000    20.590     6.084
 292   6 C     -0.102  1.018  3.084  0.000    22.434     6.740
 293   6 C     -0.027  1.030  2.997  0.000    21.013     6.519
 294   6 C     -0.159  0.981  3.178  0.000    23.620     6.926
 295   6 C     -0.142  0.970  3.172  0.000    23.269     6.873
 296   1 H      0.234  0.766  0.000  0.000     0.946     1.523
 297   1 H      0.096  0.904  0.000  0.000     1.819     2.109
 298   1 H      0.089  0.911  0.000  0.000     1.891     2.150
 299   1 H      0.076  0.924  0.000  0.000     2.024     2.224
 300   1 H      0.048  0.952  0.000  0.000     2.348     2.396
 301   1 H      0.052  0.948  0.000  0.000     2.300     2.371
 302   1 H      0.067  0.933  0.000  0.000     2.118     2.276
 303   1 H      0.066  0.934  0.000  0.000     2.134     2.284
 304   1 H      0.039  0.961  0.000  0.000     2.460     2.452
 305   1 H      0.062  0.938  0.000  0.000     2.170     2.304
 306   1 H      0.039  0.961  0.000  0.000     2.456     2.450
 307   7 N     -0.432  1.293  4.139  0.000    31.272     8.305
 308   6 C      0.016  1.036  2.947  0.000    20.309     6.418
 309   6 C      0.266  1.046  2.688  0.000    22.505     7.769
 310   8 O     -0.509  1.765  4.744  0.000    23.987     6.567
 311   6 C     -0.099  1.006  3.093  0.000    22.375     6.731
 312   6 C     -0.102  1.000  3.102  0.000    22.424     6.740
 313   6 C     -0.116  1.006  3.110  0.000    22.709     6.782
 314   6 C     -0.074  1.013  3.061  0.000    21.991     6.689
 315   7 N     -0.137  1.141  3.996  0.000    23.952     7.269
 316   1 H      0.182  0.818  0.000  0.000     1.203     1.718
 317   1 H      0.077  0.923  0.000  0.000     2.013     2.218
 318   1 H      0.066  0.934  0.000  0.000     2.134     2.284
 319   1 H      0.070  0.930  0.000  0.000     2.085     2.258
 320   1 H      0.072  0.928  0.000  0.000     2.066     2.247
 321   1 H      0.056  0.944  0.000  0.000     2.251     2.346
 322   1 H      0.086  0.914  0.000  0.000     1.920     2.167
 323   1 H      0.100  0.900  0.000  0.000     1.787     2.090
 324   1 H      0.132  0.868  0.000  0.000     1.520     1.928
 325   1 H      0.133  0.867  0.000  0.000     1.514     1.924
 326   1 H      0.295  0.705  0.000  0.000     0.728     1.336
 327   1 H      0.284  0.716  0.000  0.000     0.764     1.369
 328   1 H      0.287  0.713  0.000  0.000     0.752     1.358
 329   7 N     -0.185  1.205  3.980  0.000    25.010     7.427
 330   6 C      0.003  1.037  2.960  0.000    20.524     6.449
 331   6 C      0.266  1.042  2.692  0.000    22.511     7.771
 332   8 O     -0.485  1.740  4.746  0.000    23.459     6.494
 333   6 C      0.103  1.022  2.874  0.000    18.950     6.211
 334   8 O     -0.493  1.686  4.807  0.000    22.738     6.437
 335   6 C     -0.163  0.980  3.184  0.000    23.708     6.939
 336   1 H      0.223  0.777  0.000  0.000     0.996     1.563
 337   1 H      0.085  0.915  0.000  0.000     1.932     2.173
 338   1 H      0.059  0.941  0.000  0.000     2.210     2.325
 339   1 H      0.338  0.662  0.000  0.000     0.616     1.233
 340   1 H      0.090  0.910  0.000  0.000     1.875     2.141
 341   1 H      0.057  0.943  0.000  0.000     2.239     2.340
 342   1 H      0.077  0.923  0.000  0.000     2.008     2.216
 343   7 N     -0.182  1.209  3.973  0.000    24.940     7.417
 344   6 C      0.014  1.034  2.952  0.000    20.329     6.417
 345   6 C      0.263  1.044  2.693  0.000    22.560     7.778
 346   8 O     -0.510  1.742  4.768  0.000    24.010     6.570
 347   6 C     -0.065  0.998  3.067  0.000    21.729     6.634
 348   6 C     -0.110  1.008  3.103  0.000    22.592     6.765
 349   6 C      0.365  1.024  2.611  0.000    20.805     7.465
 350   8 O     -0.668  1.785  4.883  0.000    27.855     7.076
 351   8 O     -0.648  1.764  4.884  0.000    27.338     7.010
 352   1 H      0.213  0.787  0.000  0.000     1.044     1.601
 353   1 H      0.097  0.903  0.000  0.000     1.812     2.105
 354   1 H      0.058  0.942  0.000  0.000     2.220     2.330
 355   1 H      0.035  0.965  0.000  0.000     2.520     2.482
 356   1 H      0.048  0.952  0.000  0.000     2.346     2.395
 357   1 H      0.050  0.950  0.000  0.000     2.313     2.378
 358   7 N     -0.162  1.208  3.953  0.000    24.498     7.351
 359   6 C      0.001  1.040  2.959  0.000    20.568     6.456
 360   6 C      0.264  1.039  2.697  0.000    22.548     7.777
 361   8 O     -0.477  1.732  4.745  0.000    23.285     6.470
 362   6 C     -0.039  1.044  2.994  0.000    21.227     6.553
 363   6 C     -0.158  0.980  3.177  0.000    23.593     6.923
 364   6 C     -0.159  0.976  3.183  0.000    23.614     6.925
 365   1 H      0.235  0.765  0.000  0.000     0.944     1.522
 366   1 H      0.076  0.924  0.000  0.000     2.022     2.223
 367   1 H      0.071  0.929  0.000  0.000     2.078     2.254
 368   1 H      0.079  0.921  0.000  0.000     1.984     2.203
 369   1 H      0.053  0.947  0.000  0.000     2.284     2.363
 370   1 H      0.059  0.941  0.000  0.000     2.205     2.322
 371   1 H      0.083  0.917  0.000  0.000     1.949     2.183
 372   1 H      0.059  0.941  0.000  0.000     2.205     2.322
 373   1 H      0.065  0.935  0.000  0.000     2.146     2.291
 374   7 N     -0.174  1.201  3.974  0.000    24.772     7.392
 375   6 C      0.012  1.036  2.951  0.000    20.364     6.423
 376   6 C      0.191  1.089  2.720  0.000    23.917     8.010
 377   8 O     -0.369  1.769  4.599  0.000    21.064     6.153
 378   6 C     -0.024  1.034  2.991  0.000    20.967     6.511
 379   6 C     -0.152  0.975  3.177  0.000    23.474     6.904
 380   6 C     -0.160  0.977  3.183  0.000    23.635     6.927
 381   1 H      0.218  0.782  0.000  0.000     1.019     1.581
 382   1 H      0.113  0.887  0.000  0.000     1.667     2.019
 383   1 H      0.065  0.935  0.000  0.000     2.142     2.289
 384   1 H      0.054  0.946  0.000  0.000     2.269     2.355
 385   1 H      0.057  0.943  0.000  0.000     2.239     2.340
 386   1 H      0.066  0.934  0.000  0.000     2.133     2.284
 387   1 H      0.058  0.942  0.000  0.000     2.227     2.334
 388   1 H      0.061  0.939  0.000  0.000     2.181     2.309
 389   1 H      0.083  0.917  0.000  0.000     1.945     2.181
 390   7 N     -0.413  1.288  4.125  0.000    30.739     8.234
 391   6 C      0.020  1.039  2.941  0.000    20.260     6.411
 392   6 C      0.268  1.047  2.685  0.000    22.471     7.763
 393   8 O     -0.495  1.760  4.735  0.000    23.669     6.523
 394   6 C     -0.156  0.983  3.173  0.000    23.559     6.918
 395   1 H      0.182  0.818  0.000  0.000     1.204     1.719
 396   1 H      0.068  0.932  0.000  0.000     2.103     2.267
 397   1 H      0.059  0.941  0.000  0.000     2.206     2.322
 398   1 H      0.076  0.924  0.000  0.000     2.023     2.224
 399   1 H      0.054  0.946  0.000  0.000     2.273     2.357
 400   7 N     -0.195  1.216  3.979  0.000    25.238     7.461
 401   6 C      0.022  1.033  2.944  0.000    20.203     6.400
 402   6 C      0.210  1.078  2.712  0.000    23.543     7.946
 403   8 O     -0.356  1.747  4.609  0.000    20.823     6.118
 404   6 C     -0.152  0.979  3.174  0.000    23.471     6.903
 405   1 H      0.229  0.771  0.000  0.000     0.968     1.541
 406   1 H      0.089  0.911  0.000  0.000     1.892     2.151
 407   1 H      0.072  0.928  0.000  0.000     2.063     2.246
 408   1 H      0.075  0.925  0.000  0.000     2.029     2.227
 409   1 H      0.079  0.921  0.000  0.000     1.986     2.204
 410   1 H      0.172  0.828  0.000  0.000     1.261     1.759
 411   1 H      0.078  0.922  0.000  0.000     2.003     2.213
 412   1 H      0.172  0.828  0.000  0.000     1.258     1.757
 413   1 H      0.070  0.930  0.000  0.000     2.087     2.259
 414   1 H      0.178  0.822  0.000  0.000     1.224     1.733
 415   1 H      0.068  0.932  0.000  0.000     2.105     2.268
 416   1 H      0.180  0.820  0.000  0.000     1.215     1.727
 417   1 H      0.073  0.927  0.000  0.000     2.052     2.240
 418   1 H      0.194  0.806  0.000  0.000     1.136     1.669
 419   1 H      0.095  0.905  0.000  0.000     1.834     2.117
 420   1 H      0.188  0.812  0.000  0.000     1.169     1.693
 421   1 H      0.092  0.908  0.000  0.000     1.859     2.132
 422   1 H      0.182  0.818  0.000  0.000     1.202     1.717
 423   1 H      0.084  0.916  0.000  0.000     1.936     2.176
 424   1 H      0.194  0.806  0.000  0.000     1.139     1.672
 425   1 H      0.093  0.907  0.000  0.000     1.853     2.128
 426   1 H      0.186  0.814  0.000  0.000     1.177     1.700
 427   1 H      0.069  0.931  0.000  0.000     2.092     2.262

 Mol. C6AA /au·bohr⁶  :    1556800.491070
 Mol. C8AA /au·bohr⁸  :   34223679.073564
 Mol. α(0) /au        :       1857.659288

 
molecular dipole:
                 x           y           z       tot (Debye)
 q only:      340.480     117.830     168.297
   full:      340.335     120.360     169.902    1014.115
molecular quadrupole (traceless):
                xx          xy          yy          xz          yz          zz
 q only:    95438.342   59962.523  -57759.494   86343.516   29291.788  -37678.848
  q+dip:    94735.803   61245.762  -57437.544   87159.272   30332.773  -37298.258
   full:    94735.325   61245.506  -57439.014   87162.462   30331.302  -37296.311
speedup  1.00
cpu  time for grad    9.08 s
wall time for grad    9.08 s

SCC energy    :    -648.3905779
rep           :      13.9777340
ES            :       1.9664202
AES           :      -0.0474930
AXC           :       0.0938192
disp          :      -0.5155885
XB            :       0.0000000
fix           :       0.0000000
Gborn         :       0.0000000
Gsasa         :       0.0000000
Ghb           :       0.0000000
Gshift        :       0.0000000
Gsolv         :      -0.4653099     -291.99
Etot ala COSMO:    -648.3905779
grad norm     :       2.6378656
total E       :    -634.3594192
atomizationE  :     112.7574029    70756.34
(atE without considering molecular charge,
 total energy contains solvation terms)
H-L gap (eV)  :          1.3785

------------------------------------------------------------------------
 * finished run on 2019/03/07 at 11:37:56.269     
------------------------------------------------------------------------
 total:
 * wall-time:     0 d,  0 h,  0 min, 10.166 sec
 *  cpu-time:     0 d,  0 h,  0 min,  9.974 sec
 * ratio c/w:     0.981 speedup
 SCF:
 * wall-time:     0 d,  0 h,  0 min,  9.816 sec
 *  cpu-time:     0 d,  0 h,  0 min,  9.815 sec
 * ratio c/w:     1.000 speedup

