      -----------------------------------------------------------      
     |                   =====================                   |     
     |                           x T B                           |     
     |                   =====================                   |     
     |                         S. Grimme                         |     
     |          Mulliken Center for Theoretical Chemistry        |     
     |                    University of Bonn                     |     
     |                Version 6.1 RC1 (SAW190329)                |     
      -----------------------------------------------------------      

   This program is distributed in the hope that it will be useful,
   but WITHOUT ANY WARRANTY; without even the implied warranty of
   MERCHANTABILITY or FITNESS FOR A PARTICULAR PURPOSE.
   
   FOR NON-COMMERCIAL, ACADEMIA USE ONLY.
   
   Cite this work as:
   S. Grimme, C. Bannwarth, P. Shushkov, J. Comput. Theory Chem., 2017,
   13, 1989-2009. DOI: 10.1021/acs.jctc.7b00118
   C. Bannwarth, S. Ehlert and S. Grimme., J. Comput. Theory Chem., 2019,
   just accepted. DOI: 10.1021/acs.jctc.8b01176
   
   for sTDA-xTB:
   S. Grimme and C. Bannwarth, J. Chem. Phys., 2016, 145, 054103.
   DOI: 10.1063/1.4959605
   
   in the mass-spec context:
   V. Asgeirsson, C. Bauer and S. Grimme, Chem. Sci., 2017, 8, 4879.
   DOI: 10.1039/c7sc00601b
   
   for metadynamics refer to:
   S. Grimme, ChemRxiv, Preprint. DOI: 10.26434/chemrxiv.7660532.v1
   
   with help from (in alphabetical order)
   C. Bannwarth, F. Bohle, G. Brandenburg, E. Caldeweyher, M. Checinski,
   S. Dohm, S. Ehlert, S. Ehrlich, F. März, H. Neugebauer, J. Pisarek,
   P. Pracht, P. Shushkov, and S. Spicher.
   
 * started run on 2019/05/31 at 05:34:51.322     

           -------------------------------------------------
          |                Calculation Setup                |
           -------------------------------------------------

          program call               : /home/lum/install/xtb/xtb-190329/bin/xtb xtb_tmp.xyz --chrg -6 --grad --gfn 2 --etemp 500 --acc 0.1 --gbsa h2o --parallel 2
          hostname                   : cpu02
          coordinate file            : xtb_tmp.xyz
          omp threads                :                     2
          number of atoms            :                   491
          number of electrons        :                  1384
          charge                     :                    -6
          spin                       :                   0.0
          first test random number   :      0.97234905122298


molecular fragmentation (1/2 indicates fragments):
111111111111111111111111111111111111111111111111111111111111111111111111
111111111111111111111111111111111111111111111111111111111111111111111111
122222222222222222222222222222222222222222222222222222222222222222222222
222222222222222222222222222222222222222222222222222222222222222222222222
222222222222222222222222222222222222222222222222222222222222222222222222
222222222222222222222222222222222222222222222222222222222222222222222222
22222222222222222222222222222222222222222112222222222222222
# atoms in fragment 1/2:   147   344
 fragment masses (1/2) :     1078.14     2420.69
CMA distance (Bohr)    :   6.518
constraining FC (au)   :  0.0500

########################################################################
# WARNING! Please study the warnings concerning your input carefully
#  - XTBPATH is not set, using XTBHOME instead
#  - Process number higher than OMP_NUM_THREADS, I hope you know what you are doing.
########################################################################

           ------------------------------------------------- 
          |                 G F N 2 - x T B                 |
          | Geometry, Frequencies, Noncovalent interactions |
          |            JCTC 2018 parametrisation            |
           ------------------------------------------------- 
 
             k(s)              :                1.8500
             k(p)              :                2.2300
             k(d)              :                2.2300
             k(f)              :                2.0000
             kEN (H0ij)        :               -2.0000
             D4 a1             :                0.5200
             D4 a2             :                5.0000
             D4 s6             :                1.0000
             D4 s8             :                2.7000
             D4 s9             :                5.0000
             alphaj            :                2.0000

  Z AO/shell   Hii/eV     exponent
  1     Wed Apr 25 08:07:45 CEST 2018   EN: 2.200 GM2: 0.406  GM3: 0.0800  RAES: 1.40
     1s    -10.707211    1.230000
  6     Wed Apr 25 08:07:45 CEST 2018   EN: 2.550 GM2: 0.538  GM3: 0.1500  RAES: 3.00
     2s    -13.970922    2.096432
     2p    -10.063292    1.800000
  7     Wed Apr 25 08:07:45 CEST 2018   EN: 3.040 GM2: 0.461  GM3:-0.0640  RAES: 1.90
     2s    -16.686243    2.339881
     2p    -12.523956    2.014332
  8     Wed Apr 25 08:07:45 CEST 2018   EN: 3.440 GM2: 0.452  GM3:-0.0517  RAES: 1.80
     2s    -20.229985    2.439742
     2p    -15.503117    2.137023

 Solvent             : h2o
 Using internal parameter file: .param_gbsa2_h2o
 Gsolv ref. state (COSMO-RS): gsolv [1 M gas/solution]
 temperature (mdtemp)       :    298.150000000000     
 dielectric constant        :    80.2000000000000     
 rho                        :    1.00000000000000     
 mass                       :    18.0000000000000     
 surface tension            :    15.5689454083859     
 probe radius               :   0.975313790000000     
 vdW radii scaling          :    1.00000000000000     
 Gshift (Eh)                :   1.857443126794793E-003
 c1                         :    1.55243817000000     
 soset                      :   0.130326360000000     
 HB correction              :  T
 Number of grid points      :          230

            Z     q(EN)     CN     RAES       Cart. coordinates
     1  N   5.0   -0.71    3.00    1.93   380.52870   139.77874   205.24782
     2  C   4.0    0.08    3.99    3.60   381.29953   137.91556   207.07509
     3  C   4.0    0.28    3.01    3.02   379.84216   138.35500   209.53529
     4  O   6.0   -0.41    1.00    1.80   379.40172   140.50613   210.27494
     5  C   4.0   -0.13    3.99    3.60   384.14364   138.20437   207.68214
     6  C   4.0   -0.04    3.03    3.02   385.74246   137.79838   205.37771
     7  C   4.0   -0.13    3.03    3.02   386.11340   139.73778   203.64338
     8  C   4.0   -0.11    3.03    3.02   386.83562   135.46276   204.90371
     9  C   4.0   -0.10    3.03    3.02   387.50294   139.35341   201.47096
    10  C   4.0   -0.12    3.03    3.02   388.23711   135.05417   202.73546
    11  C   4.0    0.09    3.03    3.02   388.56454   136.99262   200.99087
    12  O   6.0   -0.52    1.99    1.83   389.90885   136.67752   198.82776
    13  H   1.0    0.29    1.00    1.43   380.14154   141.49869   205.98715
    14  H   1.0    0.15    0.99    1.43   380.92429   136.03063   206.32665
    15  H   1.0    0.11    0.99    1.43   384.43436   140.10493   208.44007
    16  H   1.0    0.11    0.99    1.43   384.60575   136.80171   209.12053
    17  H   1.0    0.09    0.99    1.43   385.32728   141.58623   204.01776
    18  H   1.0    0.12    0.99    1.43   386.59321   133.95065   206.25458
    19  H   1.0    0.10    1.00    1.43   387.83758   140.87417   200.15522
    20  H   1.0    0.09    0.99    1.43   389.08012   133.22367   202.40408
    21  H   1.0    0.23    0.99    1.43   390.42343   134.93559   198.66363
    22  N   5.0   -0.49    3.01    1.93   379.29010   136.24626   210.79108
    23  C   4.0    0.09    3.99    3.61   377.88244   136.20910   213.13591
    24  C   4.0    0.29    3.03    3.02   379.48012   135.02637   215.21248
    25  O   6.0   -0.45    1.00    1.80   380.65930   133.05480   214.83653
    26  C   4.0   -0.18    3.99    3.60   375.49330   134.61471   212.86212
    27  H   1.0    0.28    1.00    1.43   379.71689   134.55090   209.99749
    28  H   1.0    0.17    0.99    1.43   377.37815   138.15028   213.62768
    29  H   1.0    0.13    0.99    1.43   374.47337   134.63121   214.64389
    30  H   1.0    0.13    0.99    1.43   374.30139   135.41318   211.39262
    31  H   1.0    0.11    0.99    1.43   375.99016   132.68768   212.35379
    32  N   5.0   -0.47    3.01    1.93   379.54766   136.21275   217.42560
    33  C   4.0    0.09    4.01    3.63   380.69767   134.94395   219.55537
    34  C   4.0    0.29    3.01    3.02   379.19714   132.55630   220.18514
    35  O   6.0   -0.39    1.00    1.80   376.88514   132.45891   220.12774
    36  C   4.0   -0.09    3.98    3.59   380.85049   136.63650   221.88208
    37  C   4.0    0.33    2.99    3.02   378.29523   137.96514   222.47979
    38  O   6.0   -0.40    1.00    1.80   377.50007   139.48805   220.85338
    39  O   6.0   -0.39    1.00    1.80   377.28454   137.46416   224.54200
    40  H   1.0    0.29    1.00    1.43   378.39867   137.68977   217.87421
    41  H   1.0    0.15    0.99    1.43   382.62674   134.40005   219.01398
    42  H   1.0    0.13    0.99    1.43   381.42074   135.51213   223.51702
    43  H   1.0    0.14    0.99    1.43   382.26179   138.10185   221.53627
    44  N   5.0   -0.48    3.01    1.93   380.67101   130.57939   220.71410
    45  C   4.0    0.08    3.99    3.61   379.76089   128.24334   221.77331
    46  C   4.0    0.29    3.02    3.02   380.55812   128.14341   224.55329
    47  O   6.0   -0.40    1.00    1.80   382.05093   129.64663   225.46710
    48  C   4.0    0.04    3.98    3.58   380.99187   125.93544   220.43401
    49  O   6.0   -0.51    1.99    1.82   383.47370   125.56152   221.33481
    50  C   4.0   -0.20    3.98    3.59   380.90764   126.21620   217.56898
    51  H   1.0    0.29    1.00    1.43   382.56238   130.85403   220.82636
    52  H   1.0    0.12    0.99    1.43   377.70432   128.24135   221.57370
    53  H   1.0    0.10    0.99    1.43   379.95903   124.23539   221.00673
    54  H   1.0    0.32    0.99    1.43   384.45429   127.06450   220.91958
    55  H   1.0    0.10    0.99    1.43   381.75194   124.55595   216.70738
    56  H   1.0    0.10    0.99    1.43   378.96371   126.41892   216.94769
    57  H   1.0    0.15    0.99    1.43   381.94136   127.89792   216.99656
    58  N   5.0   -0.49    3.01    1.93   379.69029   126.11739   225.81817
    59  C   4.0    0.10    4.00    3.61   380.36982   125.75183   228.43760
    60  C   4.0    0.27    3.01    3.02   383.10157   124.83856   228.72973
    61  O   6.0   -0.45    1.00    1.80   384.20926   125.05960   230.75276
    62  C   4.0    0.03    3.98    3.59   378.62061   123.72732   229.61615
    63  O   6.0   -0.52    1.99    1.82   376.18083   124.08508   228.59031
    64  C   4.0   -0.24    3.98    3.59   378.63495   123.92183   232.48650
    65  H   1.0    0.25    1.00    1.43   378.09211   125.23557   225.25360
    66  H   1.0    0.13    0.99    1.43   380.18680   127.54527   229.46444
    67  H   1.0    0.10    0.99    1.43   379.33745   121.86190   229.02514
    68  H   1.0    0.22    0.99    1.43   374.97575   123.14209   229.58905
    69  H   1.0    0.07    0.99    1.43   377.61945   122.34083   233.31425
    70  H   1.0    0.11    0.99    1.43   380.57033   123.91512   233.16999
    71  H   1.0    0.09    0.99    1.43   377.74413   125.68488   233.05398
    72  N   5.0   -0.48    3.01    1.93   384.06143   123.55215   226.77528
    73  C   4.0    0.07    4.00    3.62   386.48027   122.26630   227.05487
    74  C   4.0    0.30    3.01    3.02   388.40852   124.14139   228.12415
    75  O   6.0   -0.45    1.00    1.80   388.69177   126.23845   227.17657
    76  C   4.0   -0.09    3.98    3.59   387.38521   121.18409   224.51691
    77  C   4.0   -0.16    3.98    3.59   385.44819   119.33508   223.40460
    78  C   4.0   -0.22    3.98    3.59   389.94726   119.89925   224.86896
    79  C   4.0   -0.24    3.98    3.59   385.81422   118.97145   220.56937
    80  H   1.0    0.28    1.00    1.43   383.45860   123.92709   224.99218
    81  H   1.0    0.10    0.99    1.43   386.20447   120.73454   228.42297
    82  H   1.0    0.13    0.99    1.43   387.58889   122.78578   223.22924
    83  H   1.0    0.09    0.99    1.43   385.62165   117.52481   224.37533
    84  H   1.0    0.11    0.99    1.43   383.54552   120.05608   223.72976
    85  H   1.0    0.12    0.99    1.43   390.60566   119.11028   223.09383
    86  H   1.0    0.14    0.99    1.43   391.37497   121.20563   225.55958
    87  H   1.0    0.10    0.99    1.43   389.80411   118.35764   226.22194
    88  H   1.0    0.09    0.99    1.43   384.38154   117.69501   219.84105
    89  H   1.0    0.11    0.99    1.43   385.63168   120.78099   219.61563
    90  H   1.0    0.12    0.99    1.43   387.65913   118.17299   220.15415
    91  N   5.0   -0.47    3.01    1.93   389.66991   123.36831   230.17061
    92  C   4.0    0.07    3.99    3.60   391.56049   124.87215   231.45469
    93  C   4.0    0.27    3.01    3.02   394.15745   124.50946   230.19542
    94  O   6.0   -0.43    1.00    1.80   394.49359   122.96604   228.51342
    95  C   4.0   -0.22    3.98    3.59   391.65053   124.10437   234.23341
    96  H   1.0    0.22    1.00    1.43   389.53609   121.54883   230.72201
    97  H   1.0    0.14    0.99    1.43   391.02351   126.86473   231.26141
    98  H   1.0    0.10    0.99    1.43   392.90935   125.33703   235.28366
    99  H   1.0    0.10    0.99    1.43   389.76499   124.23470   235.03538
   100  H   1.0    0.11    0.99    1.43   392.33773   122.17354   234.40797
   101  N   5.0   -0.49    3.01    1.93   395.96073   126.03760   231.09634
   102  C   4.0    0.07    3.99    3.60   398.58217   125.92533   230.32067
   103  C   4.0    0.27    3.01    3.02   400.18467   125.05084   232.57228
   104  O   6.0   -0.44    1.00    1.80   399.92442   126.01897   234.65953
   105  C   4.0   -0.13    3.99    3.60   399.51153   128.55877   229.53300
   106  C   4.0   -0.09    3.98    3.58   397.90578   129.76831   227.44516
   107  C   4.0   -0.22    3.98    3.59   398.51468   132.58347   227.26124
   108  C   4.0   -0.23    3.98    3.59   398.33731   128.48351   224.90185
   109  H   1.0    0.25    1.00    1.43   395.55198   127.31159   232.45754
   110  H   1.0    0.14    0.99    1.43   398.73313   124.57541   228.76820
   111  H   1.0    0.12    0.99    1.43   399.45334   129.76347   231.20941
   112  H   1.0    0.10    0.99    1.43   401.46717   128.38284   228.90282
   113  H   1.0    0.15    0.99    1.43   395.90900   129.58198   227.96268
   114  H   1.0    0.12    0.99    1.43   397.34337   133.48178   225.83087
   115  H   1.0    0.12    0.99    1.43   398.14478   133.53593   229.04459
   116  H   1.0    0.09    0.99    1.43   400.49048   132.85888   226.77034
   117  H   1.0    0.10    0.99    1.43   397.18889   129.40897   223.47270
   118  H   1.0    0.09    0.99    1.43   400.31668   128.61240   224.36693
   119  H   1.0    0.11    0.99    1.43   397.81687   126.49924   224.99100
   120  N   5.0   -0.50    3.01    1.93   401.88430   123.24223   232.07549
   121  C   4.0    0.09    4.00    3.62   403.64096   122.35328   233.96590
   122  C   4.0    0.30    3.02    3.02   406.28512   123.17954   233.15929
   123  O   6.0   -0.43    1.00    1.80   407.45396   122.14766   231.45142
   124  C   4.0   -0.09    3.98    3.59   403.66935   119.49647   234.33996
   125  C   4.0    0.31    3.00    3.02   406.02480   118.82619   235.95883
   126  O   6.0   -0.42    1.00    1.80   406.82508   120.57760   237.36225
   127  O   6.0   -0.42    1.00    1.80   406.97178   116.69938   235.76764
   128  H   1.0    0.29    1.00    1.43   402.04295   122.53618   230.29773
   129  H   1.0    0.14    0.99    1.43   403.12207   123.27127   235.74707
   130  H   1.0    0.11    0.99    1.43   401.96788   118.84841   235.30589
   131  H   1.0    0.13    0.99    1.43   403.80927   118.48949   232.54533
   132  N   5.0   -0.48    3.01    1.93   407.15603   125.26809   234.32605
   133  C   4.0    0.07    3.99    3.61   409.58113   126.33032   233.67360
   134  C   4.0    0.06    3.00    3.02   411.85030   124.98341   234.86886
   135  O   6.0   -0.44    1.00    1.80   414.00008   125.58164   234.23680
   136  C   4.0   -0.11    3.99    3.60   409.65658   129.16975   234.25358
   137  C   4.0    0.26    3.00    3.02   408.15748   130.56312   232.23171
   138  O   6.0   -0.47    1.00    1.80   409.13339   131.25700   230.25724
   139  N   5.0   -0.66    3.00    1.93   405.71736   130.97485   232.76499
   140  H   1.0    0.23    1.00    1.43   406.33794   125.79502   235.96702
   141  H   1.0    0.15    0.99    1.43   409.80917   126.05676   231.62773
   142  H   1.0    0.09    0.99    1.43   408.90837   129.52877   236.13652
   143  H   1.0    0.12    0.99    1.43   411.62347   129.77868   234.15545
   144  H   1.0    0.26    1.00    1.43   404.60065   131.71848   231.40980
   145  H   1.0    0.26    1.00    1.43   404.86299   130.18459   234.26766
   146  N   5.0   -0.68    3.00    1.93   404.44080   144.92842   231.95573
   147  C   4.0    0.08    3.98    3.59   402.82970   143.29256   230.46877
   148  C   4.0    0.28    3.02    3.02   404.10787   142.90201   227.91156
   149  O   6.0   -0.38    1.00    1.80   405.80832   144.29433   227.16613
   150  C   4.0   -0.08    3.98    3.59   400.20580   144.42881   230.11855
   151  C   4.0    0.31    2.99    3.02   398.63324   144.54690   232.60076
   152  O   6.0   -0.45    1.00    1.80   399.70453   144.25983   234.65061
   153  O   6.0   -0.48    1.00    1.80   396.31056   144.96334   232.30165
   154  H   1.0    0.27    1.00    1.43   403.72518   146.58613   232.55434
   155  H   1.0    0.11    0.99    1.43   402.68317   141.45377   231.42111
   156  H   1.0    0.13    0.99    1.43   400.35782   146.34958   229.36620
   157  H   1.0    0.14    0.99    1.43   399.12560   143.32135   228.75540
   158  N   5.0   -0.49    3.01    1.93   403.33541   140.90655   226.57839
   159  C   4.0    0.06    3.99    3.61   404.36441   140.45639   224.08187
   160  C   4.0    0.07    3.00    3.02   403.06566   142.21521   222.18554
   161  O   6.0   -0.44    1.00    1.80   400.80969   142.73734   222.32259
   162  C   4.0   -0.15    3.99    3.60   404.07809   137.69289   223.29822
   163  C   4.0   -0.11    3.98    3.58   406.14920   135.97550   224.37633
   164  C   4.0   -0.21    3.98    3.59   406.21242   136.03572   227.26016
   165  C   4.0   -0.24    3.98    3.59   405.72096   133.28278   223.43240
   166  H   1.0    0.25    1.00    1.43   401.74325   139.99276   227.10066
   167  H   1.0    0.12    0.99    1.43   406.36788   140.96478   224.17269
   168  H   1.0    0.11    0.99    1.43   402.22708   137.01968   223.90873
   169  H   1.0    0.08    0.99    1.43   404.14866   137.60028   221.23938
   170  H   1.0    0.10    0.99    1.43   407.97262   136.64490   223.66583
   171  H   1.0    0.13    0.99    1.43   407.53951   134.63747   227.97316
   172  H   1.0    0.12    0.99    1.43   406.77940   137.87986   227.96317
   173  H   1.0    0.10    0.99    1.43   404.35059   135.61750   228.02865
   174  H   1.0    0.10    0.99    1.43   407.18075   132.03570   224.15316
   175  H   1.0    0.09    0.99    1.43   403.90032   132.58548   224.07945
   176  H   1.0    0.09    0.99    1.43   405.74855   133.21042   221.38059
   177  N   5.0   -0.68    3.00    1.93   400.64941   142.40366   216.20083
   178  C   4.0    0.06    3.98    3.58   399.59960   141.05070   214.06244
   179  C   4.0    0.07    3.00    3.02   399.23236   142.86494   211.83417
   180  O   6.0   -0.42    1.00    1.80   398.73799   145.11820   212.13978
   181  C   4.0   -0.13    3.99    3.60   397.09778   139.81824   214.84780
   182  C   4.0   -0.05    3.03    3.02   395.73034   138.55781   212.69960
   183  C   4.0   -0.10    3.03    3.02   396.22236   136.04768   212.10648
   184  C   4.0   -0.10    3.03    3.02   393.90846   139.84755   211.31314
   185  C   4.0   -0.11    3.03    3.02   394.87891   134.82700   210.22580
   186  C   4.0   -0.11    3.03    3.02   392.56177   138.63264   209.42734
   187  C   4.0   -0.11    3.03    3.02   393.02391   136.11162   208.89888
   188  H   1.0    0.33    1.00    1.43   399.36631   143.14550   217.41850
   189  H   1.0    0.09    0.99    1.43   400.95038   139.59943   213.46112
   190  H   1.0    0.09    0.99    1.43   397.53029   138.42760   216.30807
   191  H   1.0    0.13    0.99    1.43   395.90732   141.28235   215.68325
   192  H   1.0    0.12    1.00    1.43   397.66919   135.04347   213.13566
   193  H   1.0    0.11    0.99    1.43   393.53041   141.82191   211.71622
   194  H   1.0    0.11    1.00    1.43   395.29935   132.87816   209.79830
   195  H   1.0    0.11    0.99    1.43   391.15027   139.66989   208.37161
   196  H   1.0    0.11    1.00    1.43   391.93197   135.18071   207.44948
   197  N   5.0   -0.71    3.00    1.93   405.88984   134.92465   210.47246
   198  C   4.0    0.06    3.98    3.59   406.14285   136.10875   212.90919
   199  C   4.0    0.04    3.01    3.02   408.78953   137.22174   213.16730
   200  O   6.0   -0.45    1.00    1.80   410.65239   136.15177   212.30104
   201  C   4.0   -0.14    3.99    3.61   405.87016   134.15982   215.06232
   202  C   4.0   -0.05    3.03    3.02   403.36428   132.83564   215.07553
   203  C   4.0   -0.13    3.04    3.02   402.88848   130.90240   213.36155
   204  C   4.0   -0.13    3.03    3.02   401.51549   133.44037   216.83368
   205  C   4.0   -0.10    3.03    3.02   400.64161   129.58280   213.40475
   206  C   4.0   -0.12    3.03    3.02   399.27286   132.09713   216.92829
   207  C   4.0    0.09    3.03    3.02   398.83824   130.15198   215.22416
   208  O   6.0   -0.53    1.99    1.83   396.66969   128.74346   215.29833
   209  H   1.0    0.26    1.00    1.43   407.30295   133.72551   210.01308
   210  H   1.0    0.10    0.99    1.43   404.70799   137.58921   213.04185
   211  H   1.0    0.11    0.99    1.43   407.36909   132.76723   214.78739
   212  H   1.0    0.08    0.99    1.43   406.17930   135.13540   216.85212
   213  H   1.0    0.09    1.00    1.43   404.32249   130.40314   212.00412
   214  H   1.0    0.09    1.00    1.43   401.83421   134.94328   218.17647
   215  H   1.0    0.11    1.00    1.43   400.29871   128.11229   212.04440
   216  H   1.0    0.10    0.99    1.43   397.88067   132.55876   218.35104
   217  H   1.0    0.24    0.99    1.43   395.64226   129.29219   216.70476
   218  N   5.0   -0.72    3.00    1.93   406.41722   123.03513   215.55437
   219  C   4.0    0.08    3.99    3.60   404.67666   122.12927   217.46255
   220  C   4.0    0.28    3.01    3.02   403.65927   119.55314   216.63595
   221  O   6.0   -0.45    1.00    1.80   402.86196   119.20080   214.49433
   222  C   4.0   -0.09    3.98    3.58   402.49404   124.03733   217.80453
   223  C   4.0   -0.22    3.98    3.59   400.59516   123.05295   219.73647
   224  C   4.0   -0.23    3.98    3.59   403.54831   126.58277   218.65727
   225  H   1.0    0.26    1.00    1.43   405.81102   122.86889   213.75208
   226  H   1.0    0.14    0.99    1.43   405.70978   121.93741   219.23553
   227  H   1.0    0.12    0.99    1.43   401.56772   124.25941   215.96917
   228  H   1.0    0.10    0.99    1.43   399.08606   124.41697   220.00839
   229  H   1.0    0.14    0.99    1.43   399.78088   121.25830   219.15458
   230  H   1.0    0.13    0.99    1.43   401.51795   122.74571   221.54975
   231  H   1.0    0.11    0.99    1.43   402.02482   127.92239   218.95806
   232  H   1.0    0.09    0.99    1.43   404.57203   126.34969   220.42305
   233  H   1.0    0.09    0.99    1.43   404.83704   127.36655   217.26366
   234  N   5.0   -0.50    3.02    1.93   403.77509   117.76477   218.42189
   235  C   4.0    0.07    3.99    3.61   402.53125   115.33348   218.19242
   236  C   4.0    0.31    3.02    3.02   399.70393   115.88438   218.50383
   237  O   6.0   -0.44    1.00    1.80   398.83694   116.78742   220.45619
   238  C   4.0   -0.09    3.98    3.59   403.50646   113.54094   220.21234
   239  C   4.0    0.32    2.99    3.02   401.95533   111.05868   220.29581
   240  O   6.0   -0.42    1.00    1.80   403.08375   109.03521   220.59409
   241  O   6.0   -0.43    1.00    1.80   399.60914   111.31727   220.02823
   242  H   1.0    0.29    1.00    1.43   404.31853   118.26950   220.18267
   243  H   1.0    0.12    0.99    1.43   402.90931   114.57596   216.30110
   244  H   1.0    0.11    0.99    1.43   405.50401   113.10300   219.94750
   245  H   1.0    0.14    0.99    1.43   403.25980   114.40050   222.07556
   246  N   5.0   -0.49    3.00    1.93   398.31272   115.75023   216.38972
   247  C   4.0    0.07    3.99    3.60   395.70867   116.60093   216.34633
   248  C   4.0    0.07    3.00    3.02   393.92729   114.93518   217.92238
   249  O   6.0   -0.46    1.00    1.80   391.82725   115.70898   218.50282
   250  C   4.0   -0.16    3.98    3.59   394.70293   116.79496   213.62539
   251  C   4.0   -0.17    3.98    3.58   394.49315   119.50320   212.63861
   252  C   4.0   -0.14    3.98    3.58   397.03447   120.88826   212.53320
   253  C   4.0   -0.07    3.98    3.58   396.98710   123.07094   210.65399
   254  N   5.0   -0.73    3.98    2.81   395.24394   125.12651   211.47773
   255  H   1.0    0.22    1.00    1.43   399.02424   114.91249   214.83389
   256  H   1.0    0.14    0.99    1.43   395.66000   118.45284   217.27801
   257  H   1.0    0.09    0.99    1.43   395.93421   115.68996   212.39642
   258  H   1.0    0.10    0.99    1.43   392.83128   115.93029   213.57248
   259  H   1.0    0.08    0.99    1.43   393.71134   119.36974   210.73499
   260  H   1.0    0.10    0.99    1.43   393.15151   120.49825   213.84667
   261  H   1.0    0.12    0.99    1.43   397.58987   121.54406   214.40547
   262  H   1.0    0.11    0.99    1.43   398.50836   119.57836   211.93692
   263  H   1.0    0.09    0.99    1.43   398.88647   123.83768   210.45067
   264  H   1.0    0.08    0.99    1.43   396.34924   122.36599   208.82569
   265  H   1.0    0.23    1.00    1.43   395.03011   126.44938   210.06670
   266  H   1.0    0.24    1.00    1.43   393.50145   124.36856   211.89742
   267  H   1.0    0.28    0.99    1.43   395.92393   126.05650   213.07517
   268  N   5.0   -0.71    3.00    1.92   395.61765   111.94717   223.71318
   269  C   4.0    0.08    3.98    3.59   395.86988   112.25520   226.41362
   270  C   4.0    0.30    3.01    3.02   396.98077   114.79799   227.27233
   271  O   6.0   -0.42    1.00    1.80   397.07686   115.31872   229.53046
   272  C   4.0   -0.11    3.99    3.60   397.37572   110.09866   227.63060
   273  C   4.0    0.29    3.00    3.02   400.21628   110.43763   227.28337
   274  O   6.0   -0.41    1.00    1.80   401.10228   112.23945   226.11384
   275  N   5.0   -0.66    3.00    1.93   401.61319   108.66562   228.39044
   276  H   1.0    0.33    1.00    1.43   397.20887   111.79302   222.64144
   277  H   1.0    0.10    0.99    1.43   393.92877   112.20410   227.15415
   278  H   1.0    0.09    0.99    1.43   397.00993   110.09848   229.65959
   279  H   1.0    0.08    0.99    1.43   396.79701   108.29005   226.83111
   280  H   1.0    0.33    1.00    1.43   403.54911   108.83800   228.50802
   281  H   1.0    0.24    1.00    1.43   400.78736   107.26681   229.37529
   282  N   5.0   -0.47    3.00    1.93   397.60576   116.38819   225.42669
   283  C   4.0    0.04    3.99    3.60   398.41725   118.95001   225.79078
   284  C   4.0    0.28    3.01    3.02   401.16052   119.43295   226.49443
   285  O   6.0   -0.47    1.00    1.80   401.82608   121.59894   227.05061
   286  H   1.0    0.31    1.00    1.43   397.71841   115.71233   223.63781
   287  H   1.0    0.12    0.99    1.43   398.10663   119.94710   224.00919
   288  H   1.0    0.16    0.99    1.43   397.24885   119.85129   227.24510
   289  N   5.0   -0.47    3.01    1.93   402.79742   117.52582   226.42759
   290  C   4.0    0.07    4.00    3.62   405.44867   117.97323   226.97612
   291  C   4.0    0.29    3.01    3.02   406.54469   119.86844   225.08584
   292  O   6.0   -0.46    1.00    1.80   405.80530   119.98308   222.89223
   293  C   4.0   -0.13    3.99    3.60   406.99455   115.54603   226.80535
   294  C   4.0   -0.10    3.98    3.58   406.40608   113.69158   228.91838
   295  C   4.0    0.31    2.99    3.02   407.87260   111.17601   228.52135
   296  O   6.0   -0.46    1.00    1.80   406.73380   109.17465   229.07122
   297  O   6.0   -0.42    1.00    1.80   410.07542   111.30455   227.72211
   298  H   1.0    0.29    1.00    1.43   402.21007   115.73517   226.09099
   299  H   1.0    0.14    0.99    1.43   405.64693   118.77531   228.87952
   300  H   1.0    0.13    0.99    1.43   406.63264   114.62677   224.98916
   301  H   1.0    0.13    0.99    1.43   409.00217   116.01596   226.89498
   302  H   1.0    0.13    0.99    1.43   406.96913   114.47218   230.75057
   303  H   1.0    0.15    0.99    1.43   404.39208   113.26612   228.99155
   304  N   5.0   -0.48    3.01    1.93   408.41508   121.28174   225.99969
   305  C   4.0    0.07    3.99    3.60   409.74457   123.21383   224.58221
   306  C   4.0    0.05    3.00    3.02   412.53411   122.50923   224.32521
   307  O   6.0   -0.41    1.00    1.80   413.81402   121.89193   226.17192
   308  C   4.0   -0.07    3.98    3.59   409.58772   125.76056   225.99288
   309  C   4.0   -0.24    3.98    3.59   411.12841   127.80519   224.66535
   310  C   4.0   -0.21    3.98    3.59   406.84371   126.58526   226.28910
   311  H   1.0    0.28    1.00    1.43   408.84063   121.11889   227.85530
   312  H   1.0    0.12    0.99    1.43   408.86390   123.34092   222.71760
   313  H   1.0    0.14    0.99    1.43   410.39889   125.42546   227.87105
   314  H   1.0    0.11    0.99    1.43   410.94460   129.56337   225.71198
   315  H   1.0    0.10    0.99    1.43   413.11647   127.29400   224.60250
   316  H   1.0    0.09    0.99    1.43   410.45091   128.07070   222.74484
   317  H   1.0    0.12    0.99    1.43   406.76931   128.31998   227.38448
   318  H   1.0    0.09    0.99    1.43   406.00279   126.92012   224.44499
   319  H   1.0    0.15    0.99    1.43   405.73556   125.13829   227.24387
   320  N   5.0   -0.70    3.00    1.93   396.60037   149.76376   215.21687
   321  C   4.0    0.09    3.99    3.60   394.67663   148.38246   216.58004
   322  C   4.0    0.30    3.01    3.02   395.83661   147.01222   218.84956
   323  O   6.0   -0.45    1.00    1.80   396.35795   144.75458   218.78132
   324  C   4.0   -0.13    3.98    3.59   393.33120   146.53132   214.83288
   325  C   4.0   -0.12    3.98    3.58   392.10678   147.86308   212.58773
   326  C   4.0    0.30    2.99    3.02   390.40858   150.05896   213.54246
   327  O   6.0   -0.41    1.00    1.80   388.42583   149.46306   214.64748
   328  O   6.0   -0.44    1.00    1.80   391.18535   152.26643   213.18159
   329  H   1.0    0.29    1.00    1.43   397.27886   148.95168   213.62992
   330  H   1.0    0.13    0.99    1.43   393.31282   149.77349   217.30386
   331  H   1.0    0.14    0.99    1.43   394.71244   145.15143   214.16887
   332  H   1.0    0.12    0.99    1.43   391.87137   145.56898   215.93117
   333  H   1.0    0.11    0.99    1.43   393.52039   148.61516   211.28158
   334  H   1.0    0.10    0.99    1.43   390.90785   146.54465   211.54357
   335  N   5.0   -0.47    3.01    1.93   396.23754   148.44961   220.87309
   336  C   4.0    0.09    4.00    3.62   396.88919   147.31651   223.29056
   337  C   4.0    0.28    3.01    3.02   394.87379   145.33523   223.90665
   338  O   6.0   -0.41    1.00    1.80   392.62154   145.89107   223.93667
   339  C   4.0   -0.10    3.98    3.59   396.92690   149.29246   225.36707
   340  C   4.0    0.30    2.99    3.02   399.43395   150.87681   225.38921
   341  O   6.0   -0.39    1.00    1.80   401.39969   149.76240   224.76764
   342  O   6.0   -0.43    1.00    1.80   399.24235   153.10408   226.10818
   343  H   1.0    0.24    1.00    1.43   395.84166   150.31684   220.78671
   344  H   1.0    0.17    0.99    1.43   398.75628   146.42772   223.14672
   345  H   1.0    0.12    0.99    1.43   395.30662   150.55797   225.19663
   346  H   1.0    0.12    0.99    1.43   396.79855   148.35126   227.20595
   347  N   5.0   -0.48    3.01    1.93   395.76604   143.04582   224.48052
   348  C   4.0    0.08    4.00    3.62   394.12248   140.93050   224.99062
   349  C   4.0    0.26    3.01    3.02   394.91484   139.54597   227.39870
   350  O   6.0   -0.45    1.00    1.80   397.11677   139.08494   227.91351
   351  C   4.0   -0.08    3.98    3.59   394.10433   138.98622   222.80095
   352  C   4.0   -0.20    3.98    3.59   392.69745   140.06233   220.52937
   353  C   4.0   -0.21    3.98    3.59   396.78002   138.20787   222.06710
   354  H   1.0    0.29    1.00    1.43   397.60575   142.66981   224.11427
   355  H   1.0    0.13    0.99    1.43   392.22158   141.72603   225.20093
   356  H   1.0    0.14    0.99    1.43   393.07697   137.31450   223.45735
   357  H   1.0    0.10    0.99    1.43   392.74535   138.72468   218.97444
   358  H   1.0    0.13    0.99    1.43   390.72647   140.44563   220.98193
   359  H   1.0    0.15    0.99    1.43   393.56710   141.82131   219.91744
   360  H   1.0    0.09    0.99    1.43   396.69273   136.58365   220.81754
   361  H   1.0    0.14    0.99    1.43   397.71743   139.76112   221.10511
   362  H   1.0    0.13    0.99    1.43   397.85406   137.70856   223.74526
   363  N   5.0   -0.50    3.01    1.93   392.94807   138.73482   228.79183
   364  C   4.0    0.07    3.99    3.60   393.12691   136.98614   230.88821
   365  C   4.0    0.28    3.01    3.02   392.26012   134.30824   230.17003
   366  O   6.0   -0.43    1.00    1.80   392.54716   132.52453   231.60403
   367  C   4.0   -0.14    3.98    3.59   391.53405   137.90589   233.12545
   368  C   4.0   -0.14    3.98    3.59   392.55905   140.38725   234.18059
   369  C   4.0   -0.16    3.98    3.59   390.77797   141.56153   236.12474
   370  C   4.0   -0.07    3.98    3.58   392.02884   143.72069   237.56115
   371  N   5.0   -0.71    3.97    2.79   392.83165   145.79922   235.85723
   372  H   1.0    0.23    1.00    1.43   391.19396   139.34486   228.35371
   373  H   1.0    0.13    0.99    1.43   395.12210   136.89276   231.43028
   374  H   1.0    0.13    0.99    1.43   389.58023   138.11456   232.49075
   375  H   1.0    0.11    0.99    1.43   391.56184   136.43300   234.56590
   376  H   1.0    0.12    0.99    1.43   394.39825   140.02988   235.04450
   377  H   1.0    0.15    0.99    1.43   392.87276   141.69321   232.61449
   378  H   1.0    0.10    0.99    1.43   389.06469   142.20980   235.17904
   379  H   1.0    0.08    0.99    1.43   390.22765   140.11846   237.48802
   380  H   1.0    0.07    0.99    1.43   390.69391   144.47849   238.93906
   381  H   1.0    0.10    0.99    1.43   393.70481   143.01880   238.53142
   382  H   1.0    0.22    1.00    1.43   393.47340   147.30682   236.88682
   383  H   1.0    0.31    0.99    1.43   394.34593   145.27298   234.56434
   384  H   1.0    0.23    1.00    1.43   391.35856   146.37143   234.73736
   385  N   5.0   -0.46    3.01    1.93   391.19862   134.09891   227.88752
   386  C   4.0    0.08    3.99    3.61   389.94706   131.87393   226.95066
   387  C   4.0    0.27    3.02    3.02   390.41124   131.73841   224.10040
   388  O   6.0   -0.44    1.00    1.80   391.19959   133.56322   222.90872
   389  C   4.0   -0.07    3.99    3.60   387.08248   132.00032   227.46591
   390  C   4.0    0.30    3.00    3.02   386.63107   132.49919   230.25421
   391  O   6.0   -0.41    1.00    1.80   386.70965   134.63431   231.14222
   392  N   5.0   -0.64    3.00    1.93   386.21203   130.45957   231.68585
   393  H   1.0    0.26    1.00    1.43   391.05805   135.62073   226.74455
   394  H   1.0    0.15    0.99    1.43   390.74350   130.21399   227.89007
   395  H   1.0    0.13    0.99    1.43   386.26189   133.55838   226.38624
   396  H   1.0    0.16    0.99    1.43   386.18140   130.24813   226.88563
   397  H   1.0    0.27    1.00    1.43   385.93124   130.70129   233.55400
   398  H   1.0    0.31    1.00    1.43   386.04024   128.70441   230.96362
   399  N   5.0   -0.49    3.01    1.93   389.96479   129.49220   223.06403
   400  C   4.0    0.08    4.00    3.62   390.29668   129.08082   220.37542
   401  C   4.0    0.29    3.00    3.02   388.02761   130.18434   218.95027
   402  O   6.0   -0.46    1.00    1.80   385.89028   130.07177   219.84896
   403  C   4.0   -0.09    3.98    3.58   390.57986   126.22831   219.85395
   404  C   4.0   -0.23    3.98    3.59   390.85666   125.62224   217.04594
   405  C   4.0   -0.22    3.98    3.59   392.85838   125.20350   221.30427
   406  H   1.0    0.28    1.00    1.43   389.24188   128.10086   224.16970
   407  H   1.0    0.12    0.99    1.43   392.00153   130.12809   219.83686
   408  H   1.0    0.12    0.99    1.43   388.86050   125.33001   220.56619
   409  H   1.0    0.10    0.99    1.43   391.00019   123.58215   216.86681
   410  H   1.0    0.14    0.99    1.43   389.23907   126.27048   215.96291
   411  H   1.0    0.11    0.99    1.43   392.55767   126.49514   216.30835
   412  H   1.0    0.10    0.99    1.43   393.03107   123.17907   221.01899
   413  H   1.0    0.10    0.99    1.43   394.59121   126.10782   220.67274
   414  H   1.0    0.13    0.99    1.43   392.68207   125.53257   223.32427
   415  N   5.0   -0.49    3.01    1.93   388.53766   131.13994   216.67433
   416  C   4.0    0.08    3.99    3.60   386.69107   132.10891   214.89680
   417  C   4.0    0.26    3.02    3.02   386.23308   130.08525   212.84816
   418  O   6.0   -0.45    1.00    1.80   387.95156   128.68922   212.20249
   419  C   4.0   -0.14    3.99    3.60   387.76516   134.44096   213.54275
   420  C   4.0   -0.11    3.98    3.59   388.45922   136.60873   215.32926
   421  C   4.0    0.27    3.00    3.02   386.19245   137.94528   216.46451
   422  O   6.0   -0.41    1.00    1.80   385.84258   138.06779   218.74337
   423  N   5.0   -0.64    3.00    1.93   384.57370   138.96748   214.78347
   424  H   1.0    0.23    1.00    1.43   390.32839   131.10708   216.01224
   425  H   1.0    0.16    0.99    1.43   384.94196   132.55993   215.89608
   426  H   1.0    0.11    0.99    1.43   389.46957   133.88336   212.51789
   427  H   1.0    0.11    0.99    1.43   386.36495   135.09298   212.18047
   428  H   1.0    0.13    0.99    1.43   389.58725   135.92251   216.91267
   429  H   1.0    0.10    0.99    1.43   389.56498   138.01517   214.29912
   430  H   1.0    0.25    1.00    1.43   384.99541   139.13684   212.93909
   431  H   1.0    0.30    1.00    1.43   383.05854   139.92702   215.42015
   432  N   5.0   -0.49    3.01    1.93   383.93293   130.05414   211.81587
   433  C   4.0    0.07    4.00    3.61   383.39813   128.46813   209.65605
   434  C   4.0    0.04    3.00    3.02   382.67563   130.14706   207.43545
   435  O   6.0   -0.47    1.00    1.80   381.44580   132.10020   207.70224
   436  C   4.0   -0.09    3.98    3.58   381.35008   126.47788   210.24553
   437  C   4.0   -0.21    3.98    3.59   378.78815   127.68900   210.76793
   438  C   4.0   -0.25    3.98    3.59   381.14348   124.57312   208.09635
   439  H   1.0    0.29    1.00    1.43   382.56191   131.22645   212.45834
   440  H   1.0    0.12    0.99    1.43   385.16933   127.48815   209.21702
   441  H   1.0    0.11    0.99    1.43   381.97747   125.50171   211.95730
   442  H   1.0    0.10    0.99    1.43   377.41535   126.22714   211.20511
   443  H   1.0    0.12    0.99    1.43   378.89742   128.99788   212.34888
   444  H   1.0    0.12    0.99    1.43   378.12655   128.72329   209.11582
   445  H   1.0    0.11    0.99    1.43   379.72805   123.16479   208.56551
   446  H   1.0    0.09    0.99    1.43   380.55969   125.50308   206.36040
   447  H   1.0    0.08    0.99    1.43   382.93694   123.63593   207.74269
   448  N   5.0   -0.74    3.00    1.93   372.17568   120.47190   206.18113
   449  C   4.0    0.07    3.98    3.58   372.13484   118.86108   208.40060
   450  C   4.0    0.03    3.00    3.02   369.43932   118.43170   209.36837
   451  O   6.0   -0.50    1.00    1.80   368.58651   116.30287   209.62664
   452  C   4.0    0.03    3.98    3.58   373.77849   120.03393   210.52723
   453  O   6.0   -0.53    1.99    1.82   376.18155   120.69436   209.58727
   454  C   4.0   -0.25    3.98    3.59   373.98403   118.22979   212.75927
   455  H   1.0    0.26    1.00    1.43   373.80162   121.42486   205.86535
   456  H   1.0    0.10    0.99    1.43   372.89941   116.99310   207.90324
   457  H   1.0    0.11    0.99    1.43   372.89768   121.81516   211.12274
   458  H   1.0    0.23    0.99    1.43   377.33707   119.31992   209.92903
   459  H   1.0    0.09    0.99    1.43   375.10112   119.10141   214.24664
   460  H   1.0    0.09    0.99    1.43   372.12665   117.77987   213.50667
   461  H   1.0    0.08    0.99    1.43   374.89208   116.48052   212.16940
   462  N   5.0   -0.75    3.00    1.93   369.04611   144.89715   211.57619
   463  C   4.0    0.07    3.98    3.59   371.57649   144.78287   210.55724
   464  C   4.0    0.08    3.00    3.02   371.78421   143.16548   208.17454
   465  O   6.0   -0.41    1.00    1.80   373.86136   142.50118   207.35864
   466  C   4.0   -0.09    3.98    3.59   373.41327   143.72449   212.51162
   467  C   4.0    0.32    2.99    3.02   372.68372   140.94476   213.13998
   468  O   6.0   -0.42    1.00    1.80   371.11591   139.93102   211.67985
   469  O   6.0   -0.41    1.00    1.80   373.65538   139.97015   215.03375
   470  H   1.0    0.28    1.00    1.43   368.30089   143.21327   212.07274
   471  H   1.0    0.09    0.99    1.43   372.10818   146.72107   210.04117
   472  H   1.0    0.14    0.99    1.43   375.31823   143.65884   211.72213
   473  H   1.0    0.09    0.99    1.43   373.45591   144.84250   214.24014
   474  H   1.0    0.29    1.00    1.43   381.76817   139.99919   204.10429
   475  H   1.0    0.14    1.00    1.43   411.57383   123.62670   236.15492
   476  H   1.0    0.29    1.00    1.43   404.91949   144.11845   233.37255
   477  H   1.0    0.12    1.00    1.43   404.06042   142.98255   220.77390
   478  H   1.0    0.28    1.00    1.43   401.62518   141.35211   217.11444
   479  H   1.0    0.11    1.00    1.43   399.39284   142.22926   210.06182
   480  H   1.0    0.29    1.00    1.43   404.44866   134.02274   210.42642
   481  H   1.0    0.10    1.00    1.43   409.03947   138.86707   214.06256
   482  H   1.0    0.28    1.00    1.43   406.72771   124.68797   215.80792
   483  H   1.0    0.14    1.00    1.43   394.48382   113.21595   218.47518
   484  H   1.0    0.28    1.00    1.43   394.74116   110.52753   223.38312
   485  H   1.0    0.10    1.00    1.43   413.36445   122.54205   222.62800
   486  H   1.0    0.30    1.00    1.43   395.98108   151.27212   214.73328
   487  H   1.0    0.10    1.00    1.43   383.20325   129.67525   205.68329
   488  H   1.0    0.27    1.00    1.43   371.90444   119.53018   204.79111
   489  H   1.0    0.11    1.00    1.43   368.34419   119.90965   209.80129
   490  H   1.0    0.27    1.00    1.43   369.04075   145.86357   212.97568
   491  H   1.0    0.12    1.00    1.43   370.22158   142.63207   207.25545

           ------------------------------------------------- 
          |        Self-Consistent Charge Iterations        |
           ------------------------------------------------- 

          ...................................................
          :                      SETUP                      :
          :.................................................:
          :  # basis functions                1229          :
          :  # atomic orbitals                1229          :
          :  # shells                          737          :
          :  # electrons                      1384          :
          :  max. iterations                   250          :
          :  Hamiltonian                  GFN2-xTB          :
          :  restarted?                      false          :
          :  GBSA solvation                   true          :
          :  PC potential                    false          :
          :  electronic temp.          500.0000000     K    :
          :  accuracy                    0.1000000          :
          :  -> integral cutoff          0.3500000E+02      :
          :  -> integral neglect         0.1000000E-08      :
          :  -> SCF convergence          0.1000000E-06 Eh   :
          :  -> wf. convergence          0.1000000E-04 e    :
          :  Broyden damping             0.4000000          :
          ...................................................

 iter      E             dE          RMSdq      gap      omega  full diag
   1   -797.8725735 -0.797873E+03  0.448E+00    2.08       0.0  T
   2   -800.1672897 -0.229472E+01  0.228E+00    1.53       1.0  T
   3   -800.2594519 -0.921622E-01  0.126E+00    1.96       1.0  T
   4   -800.3031646 -0.437127E-01  0.322E-01    1.27       1.0  T
   5   -800.3270765 -0.239119E-01  0.138E-01    1.49       1.0  T
   6   -800.3281279 -0.105142E-02  0.680E-02    1.48       1.0  T
   7   -800.3284839 -0.356037E-03  0.333E-02    1.46       1.0  T
   8   -800.3286320 -0.148103E-03  0.154E-02    1.46       1.0  T
   9   -800.3286576 -0.255408E-04  0.813E-03    1.45       1.0  T
  10   -800.3286658 -0.821685E-05  0.315E-03    1.44       1.4  T
  11   -800.3286668 -0.967658E-06  0.135E-03    1.44       3.3  T
  12   -800.3286670 -0.184424E-06  0.652E-04    1.44       6.9  T
  13   -800.3286670 -0.530957E-07  0.295E-04    1.44      15.3  T
  14   -800.3286670 -0.801447E-08  0.128E-04    1.44      35.3  T
  15   -800.3286670 -0.190744E-08  0.546E-05    1.44      82.6  T
  16   -800.3286670 -0.300815E-09  0.250E-05    1.44     180.2  T

   *** convergence criteria satisfied after 16 iterations ***

         #    Occupation            Energy/Eh            Energy/eV
      -------------------------------------------------------------
         1        2.0000           -0.7380182             -20.0825
       ...           ...                  ...                  ...
       686        2.0000           -0.3633654              -9.8877
       687        2.0000           -0.3623585              -9.8603
       688        2.0000           -0.3621286              -9.8540
       689        2.0000           -0.3597436              -9.7891
       690        2.0000           -0.3581246              -9.7451
       691        2.0000           -0.3557672              -9.6809
       692        2.0000           -0.3502447              -9.5306 (HOMO)
       693                         -0.2974172              -8.0931 (LUMO)
       694                         -0.2956715              -8.0456
       695                         -0.2937609              -7.9936
       696                         -0.2918753              -7.9423
       697                         -0.2833551              -7.7105
       ...                                ...                  ...
      1229                          0.6649435              18.0940
      -------------------------------------------------------------
                  HL-Gap            0.0528275 Eh            1.4375 eV
             Fermi-level           -0.3240992 Eh           -8.8192 eV

 SCC (total)                   0 d,  0 h,  0 min, 10.696 sec
 SCC setup                      ...        0 min,  0.101 sec (  0.942%)
 Dispersion                     ...        0 min,  0.116 sec (  1.084%)
 integral evaluation            ...        0 min,  0.262 sec (  2.450%)
 zeroth order Hamiltonian       ...        0 min,  0.006 sec (  0.052%)
 iterations                     ...        0 min,  8.570 sec ( 80.126%)
 molecular gradient             ...        0 min,  1.534 sec ( 14.339%)
 printout                       ...        0 min,  0.108 sec (  1.007%)

         :::::::::::::::::::::::::::::::::::::::::::::::::::::
         ::                     SUMMARY                     ::
         :::::::::::::::::::::::::::::::::::::::::::::::::::::
         :: total energy             -790.966571295662 Eh   ::
         :: total w/o Gsasa/hb       -790.883603126454 Eh   ::
         :: gradient norm               0.676848806945 Eh/α ::
         :: HOMO-LUMO gap               1.437509316257 eV   ::
         ::.................................................::
         :: SCC energy               -800.338968360124 Eh   ::
         :: -> isotropic ES             4.172452769456 Eh   ::
         :: -> anisotropic ES          -0.230282202787 Eh   ::
         :: -> anisotropic XC           0.207013448630 Eh   ::
         :: -> dispersion              -0.664088526363 Eh   ::
         :: -> Gsolv                   -1.775876107610 Eh   ::
         ::    -> Gborn                -1.692907938401 Eh   ::
         ::    -> Gsasa                -0.012158788025 Eh   ::
         ::    -> Ghb                  -0.072666824310 Eh   ::
         ::    -> Gshift                0.001857443127 Eh   ::
         :: repulsion energy            9.305792289991 Eh   ::
         :: add. restraining            0.000000000000 Eh   ::
         :::::::::::::::::::::::::::::::::::::::::::::::::::::

           -------------------------------------------------
          |                Property Printout                |
           -------------------------------------------------

    * Orbital Energies and Occupations

         #    Occupation            Energy/Eh            Energy/eV
      -------------------------------------------------------------
         1        2.0000           -0.7380182             -20.0825
       ...           ...                  ...                  ...
       680        2.0000           -0.3681468             -10.0178
       681        2.0000           -0.3671190              -9.9898
       682        2.0000           -0.3662087              -9.9650
       683        2.0000           -0.3653253              -9.9410
       684        2.0000           -0.3643777              -9.9152
       685        2.0000           -0.3643608              -9.9148
       686        2.0000           -0.3633654              -9.8877
       687        2.0000           -0.3623585              -9.8603
       688        2.0000           -0.3621286              -9.8540
       689        2.0000           -0.3597436              -9.7891
       690        2.0000           -0.3581246              -9.7451
       691        2.0000           -0.3557672              -9.6809
       692        2.0000           -0.3502447              -9.5306 (HOMO)
       693                         -0.2974172              -8.0931 (LUMO)
       694                         -0.2956715              -8.0456
       695                         -0.2937609              -7.9936
       696                         -0.2918753              -7.9423
       697                         -0.2833551              -7.7105
       698                         -0.2820148              -7.6740
       699                         -0.2788257              -7.5872
       700                         -0.2725741              -7.4171
       701                         -0.2645503              -7.1988
       702                         -0.2405215              -6.5449
       703                         -0.2379967              -6.4762
       ...                                ...                  ...
      1229                          0.6649435              18.0940
      -------------------------------------------------------------
                  HL-Gap            0.0528275 Eh            1.4375 eV
             Fermi-level           -0.3240992 Eh           -8.8192 eV

   #   Z        covCN         q      C6AA      α(0)
   1   7 N      2.638    -0.384    29.935     8.126
   2   6 C      3.789     0.030    20.074     6.381
   3   6 C      2.759     0.278    22.288     7.731
   4   8 O      0.858    -0.534    24.549     6.643
   5   6 C      3.813    -0.057    21.597     6.615
   6   6 C      2.969    -0.003    28.105     8.696
   7   6 C      2.925    -0.041    29.010     8.833
   8   6 C      2.924    -0.040    28.993     8.830
   9   6 C      2.918    -0.060    29.485     8.904
  10   6 C      2.917    -0.077    29.918     8.970
  11   6 C      2.846     0.148    24.786     8.159
  12   8 O      1.660    -0.429    21.414     6.247
  13   1 H      0.860     0.140     1.472     1.901
  14   1 H      0.924     0.074     2.047     2.237
  15   1 H      0.924     0.008     2.917     2.671
  16   1 H      0.924     0.022     2.706     2.573
  17   1 H      0.925     0.013     2.846     2.638
  18   1 H      0.926     0.045     2.385     2.415
  19   1 H      0.926     0.049     2.327     2.386
  20   1 H      0.926     0.079     1.994     2.208
  21   1 H      0.805     0.367     0.550     1.165
  22   7 N      2.692    -0.199    25.317     7.473
  23   6 C      3.795     0.048    19.784     6.334
  24   6 C      2.772     0.273    22.386     7.749
  25   8 O      0.859    -0.481    23.372     6.482
  26   6 C      3.760    -0.101    22.476     6.759
  27   1 H      0.860     0.241     0.920     1.502
  28   1 H      0.924     0.035     2.518     2.481
  29   1 H      0.925     0.039     2.463     2.454
  30   1 H      0.925     0.057     2.237     2.339
  31   1 H      0.925     0.076     2.020     2.222
  32   7 N      2.690    -0.186    25.038     7.432
  33   6 C      3.809     0.061    19.557     6.295
  34   6 C      2.757     0.283    22.210     7.717
  35   8 O      0.858    -0.516    24.131     6.586
  36   6 C      3.803    -0.090    22.220     6.711
  37   6 C      2.684     0.377    20.614     7.430
  38   8 O      0.856    -0.643    27.203     6.993
  39   8 O      0.856    -0.628    26.818     6.943
  40   1 H      0.860     0.195     1.134     1.668
  41   1 H      0.923     0.046     2.365     2.405
  42   1 H      0.924     0.019     2.743     2.590
  43   1 H      0.924     0.034     2.525     2.485
  44   7 N      2.695    -0.171    24.710     7.383
  45   6 C      3.794     0.005    20.503     6.448
  46   6 C      2.764     0.279    22.281     7.730
  47   8 O      0.858    -0.496    23.703     6.527
  48   6 C      3.728     0.103    18.972     6.219
  49   8 O      1.654    -0.462    22.092     6.345
  50   6 C      3.752    -0.137    23.200     6.869
  51   1 H      0.860     0.225     0.989     1.558
  52   1 H      0.924     0.073     2.055     2.242
  53   1 H      0.924     0.073     2.058     2.243
  54   1 H      0.804     0.317     0.672     1.287
  55   1 H      0.925     0.097     1.812     2.105
  56   1 H      0.925     0.059     2.214     2.327
  57   1 H      0.925     0.049     2.333     2.389
  58   7 N      2.690    -0.190    25.120     7.444
  59   6 C      3.799     0.019    20.263     6.409
  60   6 C      2.760     0.270    22.443     7.758
  61   8 O      0.859    -0.488    23.510     6.501
  62   6 C      3.729     0.114    18.803     6.190
  63   8 O      1.655    -0.492    22.716     6.434
  64   6 C      3.753    -0.143    23.324     6.887
  65   1 H      0.860     0.236     0.938     1.517
  66   1 H      0.924     0.062     2.180     2.309
  67   1 H      0.923     0.039     2.466     2.456
  68   1 H      0.805     0.361     0.563     1.179
  69   1 H      0.925     0.078     2.003     2.213
  70   1 H      0.925     0.066     2.131     2.283
  71   1 H      0.925     0.061     2.184     2.311
  72   7 N      2.689    -0.174    24.758     7.390
  73   6 C      3.803     0.016    20.299     6.414
  74   6 C      2.754     0.286    22.151     7.707
  75   8 O      0.858    -0.504    23.881     6.552
  76   6 C      3.854    -0.024    20.964     6.512
  77   6 C      3.803    -0.071    21.865     6.657
  78   6 C      3.756    -0.120    22.848     6.815
  79   6 C      3.752    -0.124    22.934     6.829
  80   1 H      0.860     0.225     0.985     1.555
  81   1 H      0.924     0.063     2.160     2.298
  82   1 H      0.924     0.058     2.222     2.331
  83   1 H      0.924     0.048     2.343     2.394
  84   1 H      0.924     0.044     2.390     2.418
  85   1 H      0.925     0.068     2.108     2.271
  86   1 H      0.925     0.038     2.479     2.462
  87   1 H      0.925     0.034     2.535     2.490
  88   1 H      0.925     0.055     2.255     2.348
  89   1 H      0.925     0.052     2.296     2.369
  90   1 H      0.925     0.058     2.222     2.331
  91   7 N      2.691    -0.158    24.429     7.341
  92   6 C      3.793     0.021    20.228     6.405
  93   6 C      2.752     0.270    22.446     7.758
  94   8 O      0.858    -0.479    23.314     6.474
  95   6 C      3.757    -0.136    23.177     6.864
  96   1 H      0.860     0.211     1.051     1.606
  97   1 H      0.924     0.073     2.050     2.239
  98   1 H      0.925     0.067     2.114     2.274
  99   1 H      0.925     0.090     1.878     2.143
 100   1 H      0.925     0.059     2.212     2.326
 101   7 N      2.692    -0.169    24.659     7.375
 102   6 C      3.793     0.019    20.270     6.411
 103   6 C      2.760     0.269    22.458     7.761
 104   8 O      0.858    -0.485    23.445     6.492
 105   6 C      3.811    -0.074    21.902     6.661
 106   6 C      3.849    -0.008    20.682     6.469
 107   6 C      3.757    -0.106    22.579     6.775
 108   6 C      3.756    -0.117    22.798     6.808
 109   1 H      0.860     0.207     1.072     1.622
 110   1 H      0.924     0.079     1.985     2.203
 111   1 H      0.924     0.054     2.270     2.356
 112   1 H      0.924     0.056     2.245     2.343
 113   1 H      0.924     0.021     2.715     2.577
 114   1 H      0.925     0.033     2.539     2.492
 115   1 H      0.925     0.024     2.672     2.556
 116   1 H      0.925     0.051     2.304     2.373
 117   1 H      0.925     0.047     2.356     2.400
 118   1 H      0.925     0.056     2.243     2.342
 119   1 H      0.925     0.043     2.404     2.425
 120   7 N      2.691    -0.200    25.334     7.475
 121   6 C      3.801     0.043    19.858     6.345
 122   6 C      2.764     0.289    22.096     7.698
 123   8 O      0.859    -0.501    23.816     6.543
 124   6 C      3.804    -0.083    22.080     6.690
 125   6 C      2.688     0.373    20.677     7.442
 126   8 O      0.856    -0.639    27.103     6.980
 127   8 O      0.856    -0.633    26.936     6.958
 128   1 H      0.860     0.213     1.044     1.601
 129   1 H      0.924     0.071     2.076     2.253
 130   1 H      0.924     0.029     2.603     2.523
 131   1 H      0.924     0.007     2.937     2.680
 132   7 N      2.689    -0.183    24.973     7.422
 133   6 C      3.797     0.039    19.924     6.356
 134   6 C      2.763     0.205    23.641     7.963
 135   8 O      0.856    -0.343    20.576     6.082
 136   6 C      3.809    -0.110    22.597     6.767
 137   6 C      2.746     0.289    22.108     7.699
 138   8 O      0.859    -0.461    22.947     6.423
 139   7 N      2.638    -0.266    26.889     7.701
 140   1 H      0.860     0.215     1.031     1.591
 141   1 H      0.923     0.102     1.766     2.078
 142   1 H      0.925     0.087     1.909     2.161
 143   1 H      0.924     0.113     1.669     2.020
 144   1 H      0.860     0.216     1.026     1.587
 145   1 H      0.860     0.215     1.033     1.592
 146   7 N      2.639    -0.380    29.829     8.111
 147   6 C      3.786     0.052    19.712     6.324
 148   6 C      2.765     0.267    22.492     7.767
 149   8 O      0.859    -0.492    23.605     6.514
 150   6 C      3.802    -0.079    22.009     6.679
 151   6 C      2.684     0.368    20.758     7.456
 152   8 O      0.856    -0.578    25.594     6.783
 153   8 O      0.859    -0.610    26.357     6.883
 154   1 H      0.860     0.147     1.420     1.866
 155   1 H      0.923     0.027     2.631     2.537
 156   1 H      0.924     0.001     3.046     2.729
 157   1 H      0.924     0.011     2.877     2.653
 158   7 N      2.691    -0.169    24.648     7.374
 159   6 C      3.798     0.031    20.051     6.376
 160   6 C      2.766     0.201    23.721     7.976
 161   8 O      0.856    -0.382    21.316     6.190
 162   6 C      3.810    -0.068    21.798     6.646
 163   6 C      3.850    -0.014    20.789     6.485
 164   6 C      3.755    -0.122    22.889     6.822
 165   6 C      3.758    -0.123    22.900     6.823
 166   1 H      0.860     0.196     1.127     1.663
 167   1 H      0.924     0.098     1.804     2.100
 168   1 H      0.924     0.061     2.183     2.310
 169   1 H      0.924     0.060     2.201     2.320
 170   1 H      0.924     0.050     2.322     2.383
 171   1 H      0.925     0.071     2.080     2.255
 172   1 H      0.925     0.027     2.626     2.534
 173   1 H      0.925     0.027     2.627     2.534
 174   1 H      0.925     0.062     2.171     2.304
 175   1 H      0.925     0.041     2.439     2.442
 176   1 H      0.925     0.052     2.299     2.371
 177   7 N      2.636    -0.384    29.938     8.126
 178   6 C      3.782     0.049    19.764     6.333
 179   6 C      2.765     0.199    23.764     7.983
 180   8 O      0.856    -0.385    21.393     6.201
 181   6 C      3.812    -0.067    21.773     6.642
 182   6 C      2.968     0.000    28.025     8.683
 183   6 C      2.925    -0.046    29.154     8.855
 184   6 C      2.924    -0.038    28.942     8.822
 185   6 C      2.918    -0.040    29.000     8.831
 186   6 C      2.918    -0.033    28.813     8.802
 187   6 C      2.920    -0.040    28.996     8.830
 188   1 H      0.860     0.160     1.334     1.809
 189   1 H      0.924     0.063     2.160     2.299
 190   1 H      0.924     0.057     2.231     2.336
 191   1 H      0.924     0.033     2.547     2.496
 192   1 H      0.926     0.059     2.206     2.323
 193   1 H      0.925    -0.018     3.383     2.876
 194   1 H      0.926     0.091     1.868     2.137
 195   1 H      0.925     0.013     2.842     2.636
 196   1 H      0.926     0.064     2.148     2.292
 197   7 N      2.637    -0.386    29.980     8.132
 198   6 C      3.783     0.043    19.875     6.351
 199   6 C      2.772     0.199    23.753     7.982
 200   8 O      0.856    -0.367    21.031     6.149
 201   6 C      3.816    -0.070    21.822     6.649
 202   6 C      2.968     0.000    28.015     8.682
 203   6 C      2.928    -0.045    29.108     8.848
 204   6 C      2.925    -0.039    28.962     8.825
 205   6 C      2.918    -0.065    29.618     8.924
 206   6 C      2.918    -0.070    29.746     8.944
 207   6 C      2.848     0.133    25.095     8.210
 208   8 O      1.659    -0.392    20.702     6.142
 209   1 H      0.860     0.173     1.253     1.753
 210   1 H      0.924     0.043     2.415     2.430
 211   1 H      0.924     0.062     2.178     2.308
 212   1 H      0.924     0.034     2.536     2.490
 213   1 H      0.926     0.067     2.118     2.276
 214   1 H      0.926     0.023     2.683     2.561
 215   1 H      0.926     0.093     1.851     2.127
 216   1 H      0.925     0.024     2.673     2.557
 217   1 H      0.805     0.316     0.675     1.290
 218   7 N      2.637    -0.405    30.502     8.202
 219   6 C      3.791     0.023    20.191     6.399
 220   6 C      2.755     0.273    22.392     7.749
 221   8 O      0.858    -0.472    23.169     6.454
 222   6 C      3.852    -0.023    20.948     6.510
 223   6 C      3.756    -0.108    22.622     6.781
 224   6 C      3.757    -0.113    22.717     6.796
 225   1 H      0.860     0.175     1.241     1.745
 226   1 H      0.924     0.036     2.501     2.473
 227   1 H      0.924     0.061     2.188     2.313
 228   1 H      0.925     0.054     2.266     2.354
 229   1 H      0.925     0.024     2.678     2.559
 230   1 H      0.925     0.014     2.821     2.626
 231   1 H      0.925     0.052     2.301     2.372
 232   1 H      0.925     0.026     2.649     2.545
 233   1 H      0.925     0.049     2.331     2.387
 234   7 N      2.698    -0.205    25.458     7.494
 235   6 C      3.795     0.048    19.778     6.333
 236   6 C      2.762     0.290    22.081     7.695
 237   8 O      0.859    -0.507    23.949     6.561
 238   6 C      3.804    -0.079    22.001     6.678
 239   6 C      2.685     0.376    20.636     7.434
 240   8 O      0.856    -0.633    26.936     6.958
 241   8 O      0.856    -0.623    26.681     6.925
 242   1 H      0.860     0.205     1.083     1.630
 243   1 H      0.924     0.045     2.387     2.416
 244   1 H      0.924     0.007     2.943     2.683
 245   1 H      0.924     0.017     2.787     2.611
 246   7 N      2.688    -0.175    24.783     7.394
 247   6 C      3.791     0.025    20.159     6.394
 248   6 C      2.764     0.205    23.640     7.963
 249   8 O      0.856    -0.352    20.737     6.105
 250   6 C      3.804    -0.077    21.971     6.673
 251   6 C      3.801    -0.094    22.295     6.723
 252   6 C      3.801    -0.096    22.322     6.727
 253   6 C      3.731    -0.052    21.608     6.635
 254   7 N      3.481    -0.143    24.093     7.290
 255   1 H      0.860     0.209     1.062     1.614
 256   1 H      0.924     0.103     1.755     2.072
 257   1 H      0.924     0.073     2.053     2.241
 258   1 H      0.924     0.077     2.007     2.216
 259   1 H      0.924     0.097     1.813     2.106
 260   1 H      0.924     0.072     2.066     2.248
 261   1 H      0.925     0.061     2.193     2.316
 262   1 H      0.925     0.087     1.912     2.162
 263   1 H      0.925     0.114     1.660     2.015
 264   1 H      0.924     0.131     1.528     1.933
 265   1 H      0.859     0.298     0.720     1.329
 266   1 H      0.859     0.286     0.756     1.362
 267   1 H      0.858     0.283     0.765     1.371
 268   7 N      2.632    -0.396    30.261     8.170
 269   6 C      3.786     0.041    19.907     6.355
 270   6 C      2.752     0.281    22.239     7.722
 271   8 O      0.858    -0.541    24.712     6.665
 272   6 C      3.810    -0.101    22.414     6.739
 273   6 C      2.743     0.297    21.955     7.672
 274   8 O      0.858    -0.537    24.629     6.654
 275   7 N      2.638    -0.311    28.012     7.861
 276   1 H      0.860     0.159     1.340     1.814
 277   1 H      0.923     0.064     2.155     2.296
 278   1 H      0.924     0.066     2.128     2.281
 279   1 H      0.924     0.072     2.063     2.246
 280   1 H      0.859     0.228     0.972     1.544
 281   1 H      0.860     0.231     0.962     1.536
 282   7 N      2.685    -0.172    24.728     7.385
 283   6 C      3.743    -0.023    21.052     6.546
 284   6 C      2.756     0.282    22.224     7.720
 285   8 O      0.859    -0.509    23.982     6.566
 286   1 H      0.860     0.237     0.934     1.514
 287   1 H      0.924     0.110     1.695     2.036
 288   1 H      0.924     0.099     1.791     2.093
 289   7 N      2.688    -0.177    24.834     7.401
 290   6 C      3.803     0.048    19.761     6.329
 291   6 C      2.756     0.278    22.288     7.731
 292   8 O      0.858    -0.475    23.240     6.463
 293   6 C      3.809    -0.034    21.176     6.550
 294   6 C      3.799    -0.080    22.027     6.682
 295   6 C      2.685     0.372    20.689     7.444
 296   8 O      0.856    -0.620    26.627     6.918
 297   8 O      0.856    -0.621    26.645     6.921
 298   1 H      0.860     0.207     1.069     1.619
 299   1 H      0.923     0.037     2.483     2.464
 300   1 H      0.924     0.026     2.642     2.542
 301   1 H      0.924     0.036     2.497     2.471
 302   1 H      0.924     0.010     2.894     2.660
 303   1 H      0.925     0.015     2.810     2.621
 304   7 N      2.692    -0.161    24.476     7.348
 305   6 C      3.792     0.026    20.149     6.392
 306   6 C      2.768     0.198    23.782     7.987
 307   8 O      0.856    -0.370    21.089     6.157
 308   6 C      3.855    -0.004    20.613     6.457
 309   6 C      3.755    -0.129    23.031     6.843
 310   6 C      3.756    -0.112    22.699     6.793
 311   1 H      0.860     0.202     1.096     1.640
 312   1 H      0.924     0.093     1.850     2.127
 313   1 H      0.924     0.033     2.544     2.494
 314   1 H      0.925     0.078     1.997     2.210
 315   1 H      0.925     0.047     2.353     2.399
 316   1 H      0.925     0.070     2.090     2.261
 317   1 H      0.925     0.061     2.193     2.316
 318   1 H      0.925     0.058     2.226     2.333
 319   1 H      0.925     0.023     2.686     2.563
 320   7 N      2.636    -0.396    30.270     8.171
 321   6 C      3.788     0.063    19.541     6.296
 322   6 C      2.759     0.273    22.377     7.747
 323   8 O      0.859    -0.478    23.295     6.471
 324   6 C      3.808    -0.029    21.082     6.536
 325   6 C      3.799    -0.082    22.063     6.688
 326   6 C      2.686     0.374    20.664     7.439
 327   8 O      0.856    -0.663    27.713     7.058
 328   8 O      0.856    -0.653    27.446     7.024
 329   1 H      0.860     0.185     1.183     1.704
 330   1 H      0.923    -0.014     3.311     2.846
 331   1 H      0.924     0.050     2.320     2.382
 332   1 H      0.924    -0.004     3.134     2.768
 333   1 H      0.924     0.025     2.652     2.547
 334   1 H      0.924     0.010     2.885     2.656
 335   7 N      2.693    -0.180    24.902     7.411
 336   6 C      3.800     0.049    19.751     6.328
 337   6 C      2.761     0.286    22.152     7.708
 338   8 O      0.858    -0.527    24.389     6.621
 339   6 C      3.803    -0.088    22.178     6.705
 340   6 C      2.682     0.374    20.663     7.439
 341   8 O      0.856    -0.625    26.746     6.934
 342   8 O      0.856    -0.629    26.853     6.948
 343   1 H      0.860     0.186     1.180     1.702
 344   1 H      0.924     0.060     2.194     2.317
 345   1 H      0.924     0.025     2.661     2.551
 346   1 H      0.924     0.021     2.717     2.578
 347   7 N      2.689    -0.181    24.921     7.414
 348   6 C      3.800     0.029    20.084     6.381
 349   6 C      2.753     0.273    22.383     7.747
 350   8 O      0.858    -0.468    23.078     6.441
 351   6 C      3.853    -0.011    20.733     6.476
 352   6 C      3.756    -0.098    22.420     6.751
 353   6 C      3.755    -0.115    22.750     6.801
 354   1 H      0.860     0.227     0.978     1.549
 355   1 H      0.924     0.042     2.419     2.432
 356   1 H      0.924     0.050     2.317     2.380
 357   1 H      0.925     0.057     2.234     2.337
 358   1 H      0.925     0.009     2.908     2.667
 359   1 H      0.925     0.035     2.521     2.483
 360   1 H      0.925     0.064     2.155     2.296
 361   1 H      0.925     0.054     2.268     2.355
 362   1 H      0.925     0.050     2.318     2.381
 363   7 N      2.690    -0.186    25.027     7.430
 364   6 C      3.792     0.020    20.240     6.407
 365   6 C      2.753     0.277    22.315     7.735
 366   8 O      0.859    -0.474    23.218     6.460
 367   6 C      3.807    -0.073    21.888     6.660
 368   6 C      3.804    -0.071    21.853     6.655
 369   6 C      3.803    -0.087    22.152     6.701
 370   6 C      3.732    -0.035    21.299     6.587
 371   7 N      3.475    -0.175    24.785     7.394
 372   1 H      0.860     0.188     1.171     1.695
 373   1 H      0.924     0.086     1.922     2.168
 374   1 H      0.924     0.059     2.210     2.325
 375   1 H      0.924     0.076     2.020     2.223
 376   1 H      0.924     0.052     2.297     2.370
 377   1 H      0.924     0.038     2.477     2.461
 378   1 H      0.924     0.066     2.133     2.284
 379   1 H      0.925     0.091     1.872     2.140
 380   1 H      0.924     0.121     1.607     1.982
 381   1 H      0.925     0.109     1.702     2.040
 382   1 H      0.859     0.280     0.776     1.380
 383   1 H      0.853     0.285     0.761     1.367
 384   1 H      0.859     0.266     0.823     1.421
 385   7 N      2.694    -0.173    24.735     7.387
 386   6 C      3.797     0.034    20.007     6.369
 387   6 C      2.762     0.268    22.481     7.765
 388   8 O      0.858    -0.499    23.759     6.535
 389   6 C      3.809    -0.088    22.180     6.704
 390   6 C      2.745     0.294    22.012     7.682
 391   8 O      0.859    -0.507    23.950     6.561
 392   7 N      2.638    -0.277    27.156     7.739
 393   1 H      0.860     0.187     1.175     1.698
 394   1 H      0.924     0.082     1.958     2.189
 395   1 H      0.924     0.038     2.479     2.462
 396   1 H      0.925     0.083     1.951     2.184
 397   1 H      0.860     0.244     0.906     1.491
 398   1 H      0.860     0.218     1.017     1.580
 399   7 N      2.692    -0.168    24.645     7.373
 400   6 C      3.801     0.016    20.314     6.417
 401   6 C      2.751     0.276    22.333     7.738
 402   8 O      0.858    -0.509    23.981     6.566
 403   6 C      3.852    -0.026    21.008     6.519
 404   6 C      3.755    -0.155    23.558     6.921
 405   6 C      3.757    -0.122    22.899     6.823
 406   1 H      0.860     0.229     0.970     1.543
 407   1 H      0.924     0.069     2.093     2.262
 408   1 H      0.924     0.055     2.260     2.351
 409   1 H      0.925     0.090     1.879     2.143
 410   1 H      0.925     0.069     2.092     2.262
 411   1 H      0.925     0.077     2.009     2.217
 412   1 H      0.925     0.070     2.087     2.259
 413   1 H      0.925     0.054     2.271     2.356
 414   1 H      0.925     0.027     2.629     2.536
 415   7 N      2.691    -0.157    24.406     7.337
 416   6 C      3.789     0.015    20.335     6.422
 417   6 C      2.762     0.256    22.692     7.801
 418   8 O      0.859    -0.433    22.349     6.338
 419   6 C      3.808    -0.073    21.896     6.661
 420   6 C      3.805    -0.097    22.351     6.730
 421   6 C      2.743     0.296    21.980     7.676
 422   8 O      0.859    -0.511    24.036     6.573
 423   7 N      2.638    -0.280    27.243     7.752
 424   1 H      0.860     0.235     0.944     1.522
 425   1 H      0.924     0.053     2.288     2.366
 426   1 H      0.924     0.102     1.770     2.080
 427   1 H      0.925     0.051     2.307     2.375
 428   1 H      0.924     0.077     2.014     2.219
 429   1 H      0.924     0.071     2.070     2.250
 430   1 H      0.860     0.213     1.040     1.598
 431   1 H      0.860     0.180     1.217     1.728
 432   7 N      2.690    -0.166    24.588     7.364
 433   6 C      3.799     0.009    20.430     6.436
 434   6 C      2.767     0.201    23.714     7.975
 435   8 O      0.856    -0.384    21.365     6.197
 436   6 C      3.851    -0.017    20.842     6.493
 437   6 C      3.755    -0.115    22.766     6.803
 438   6 C      3.757    -0.140    23.253     6.875
 439   1 H      0.860     0.206     1.077     1.625
 440   1 H      0.924     0.127     1.556     1.950
 441   1 H      0.924     0.070     2.084     2.258
 442   1 H      0.925     0.062     2.175     2.306
 443   1 H      0.925     0.024     2.670     2.555
 444   1 H      0.925     0.035     2.522     2.483
 445   1 H      0.925     0.082     1.958     2.188
 446   1 H      0.925     0.049     2.337     2.391
 447   1 H      0.925     0.074     2.047     2.237
 448   7 N      2.634    -0.395    30.223     8.165
 449   6 C      3.781     0.028    20.129     6.391
 450   6 C      2.764     0.200    23.750     7.981
 451   8 O      0.856    -0.370    21.099     6.158
 452   6 C      3.726     0.111    18.851     6.199
 453   8 O      1.655    -0.468    22.222     6.364
 454   6 C      3.753    -0.137    23.204     6.869
 455   1 H      0.860     0.183     1.199     1.715
 456   1 H      0.923     0.042     2.424     2.435
 457   1 H      0.924     0.040     2.446     2.446
 458   1 H      0.805     0.341     0.609     1.226
 459   1 H      0.925     0.066     2.131     2.283
 460   1 H      0.925     0.043     2.403     2.424
 461   1 H      0.925     0.063     2.160     2.298
 462   7 N      2.635    -0.380    29.826     8.111
 463   6 C      3.785     0.051    19.740     6.329
 464   6 C      2.768     0.212    23.518     7.942
 465   8 O      0.856    -0.421    22.102     6.303
 466   6 C      3.806    -0.084    22.094     6.691
 467   6 C      2.685     0.379    20.587     7.425
 468   8 O      0.856    -0.612    26.421     6.891
 469   8 O      0.856    -0.646    27.269     7.001
 470   1 H      0.860     0.155     1.365     1.830
 471   1 H      0.923     0.063     2.168     2.303
 472   1 H      0.924     0.019     2.743     2.590
 473   1 H      0.925     0.006     2.949     2.686
 474   1 H      0.862     0.199     1.113     1.652
 475   1 H      0.930     0.069     2.092     2.262
 476   1 H      0.862     0.193     1.140     1.672
 477   1 H      0.930     0.082     1.958     2.188
 478   1 H      0.862     0.171     1.267     1.763
 479   1 H      0.930     0.080     1.975     2.198
 480   1 H      0.862     0.197     1.122     1.659
 481   1 H      0.930     0.058     2.226     2.333
 482   1 H      0.862     0.190     1.157     1.685
 483   1 H      0.930     0.055     2.253     2.347
 484   1 H      0.862     0.191     1.155     1.683
 485   1 H      0.930     0.101     1.776     2.084
 486   1 H      0.862     0.177     1.230     1.737
 487   1 H      0.930     0.106     1.734     2.059
 488   1 H      0.862     0.187     1.175     1.698
 489   1 H      0.930     0.068     2.105     2.269
 490   1 H      0.862     0.185     1.185     1.705
 491   1 H      0.930     0.077     2.008     2.216

 Mol. C6AA /au·bohr⁶  :    2322456.506091
 Mol. C8AA /au·bohr⁸  :   51565797.322079
 Mol. α(0) /au        :       2276.682544


Wiberg/Mayer (AO) data.
largest (>0.10) Wiberg bond orders for each atom
          total WBO             WBO to atom ...
     1  N   3.000        C    2 1.028    H   13 0.959    H  474 0.935
     2  C   3.980        N    1 1.028    H   14 0.949    C    5 0.941    C    3 0.940
     3  C   3.928        O    4 1.619    N   22 1.300    C    2 0.940
     4  O   1.933        C    3 1.619    N   22 0.190
     5  C   3.992        C    6 1.010    H   15 0.971    H   16 0.963    C    2 0.941
     6  C   3.984        C    8 1.407    C    7 1.395    C    5 1.010
     7  C   3.991        C    9 1.459    C    6 1.395    H   17 0.966    C   10 0.103
     8  C   3.988        C   10 1.451    C    6 1.407    H   18 0.967    C    9 0.107
     9  C   3.988        C    7 1.459    C   11 1.361    H   19 0.968    C    8 0.107
    10  C   3.982        C    8 1.451    C   11 1.368    H   20 0.961    C    7 0.103
    11  C   3.946        C   10 1.368    C    9 1.361    O   12 1.088
    12  O   2.095        C   11 1.088    H   21 0.846
    13  H   0.980        N    1 0.959
    14  H   0.995        C    2 0.949
    15  H   0.999        C    5 0.971
    16  H   0.999        C    5 0.963
    17  H   1.000        C    7 0.966
    18  H   0.998        C    8 0.967
    19  H   0.997        C    9 0.968
    20  H   0.994        C   10 0.961
    21  H   0.865        O   12 0.846
    22  N   3.454        C    3 1.300    C   23 0.986    H   27 0.886    O    4 0.190
    23  C   3.975        N   22 0.986    C   26 0.978    H   28 0.956    C   24 0.945
    24  C   3.943        O   25 1.577    N   32 1.330    C   23 0.945
    25  O   1.929        C   24 1.577    N   32 0.188
    26  C   3.988        H   29 0.984    H   30 0.982    H   31 0.980    C   23 0.978
    27  H   0.942        N   22 0.886
    28  H   0.999        C   23 0.956
    29  H   0.998        C   26 0.984
    30  H   0.996        C   26 0.982
    31  H   0.994        C   26 0.980
    32  N   3.486        C   24 1.330    C   33 0.979    H   40 0.896    O   25 0.188
    33  C   3.966        N   32 0.979    C   36 0.977    H   41 0.947    C   34 0.932
    34  C   3.951        O   35 1.624    N   44 1.315    C   33 0.932
    35  O   1.934        C   34 1.624    N   44 0.197
    36  C   3.986        H   42 0.979    C   33 0.977    H   43 0.964    C   37 0.918
    37  C   3.935        O   39 1.516    O   38 1.477    C   36 0.918
    38  O   1.816        C   37 1.477    O   39 0.214
    39  O   1.807        C   37 1.516    O   38 0.214
    40  H   0.962        N   32 0.896
[...]
   158  N   3.453        C  148 1.280    C  159 0.977    H  166 0.924    O  149 0.187
   159  C   3.958        N  158 0.977    C  160 0.974    C  162 0.958    H  167 0.942
   160  C   3.883        O  161 1.864    C  159 0.974    H  477 0.951
   161  O   2.058        C  160 1.864
   162  C   3.978        C  163 0.988    H  169 0.967    H  168 0.965    C  159 0.958
   163  C   3.991        C  164 1.010    C  165 1.006    C  162 0.988    H  170 0.967
   164  C   3.993        C  163 1.010    H  172 0.985    H  173 0.985    H  171 0.976
   165  C   3.990        C  163 1.006    H  176 0.983    H  175 0.982    H  174 0.980
   166  H   0.962        N  158 0.924
   167  H   0.990        C  159 0.942
   168  H   0.996        C  162 0.965
   169  H   0.996        C  162 0.967
   170  H   0.997        C  163 0.967
   171  H   0.995        C  164 0.976
   172  H   0.999        C  164 0.985
   173  H   0.999        C  164 0.985
   174  H   0.995        C  165 0.980
   175  H   0.998        C  165 0.982
   176  H   0.997        C  165 0.983
   177  N   3.003        C  178 1.020    H  478 0.957    H  188 0.936
   178  C   3.985        N  177 1.020    C  179 0.981    H  189 0.951    C  181 0.936
   179  C   3.890        O  180 1.886    C  178 0.981    H  479 0.953
   180  O   2.035        C  179 1.886
   181  C   3.989        C  182 1.009    H  191 0.965    H  190 0.963    C  178 0.936
   182  C   3.985        C  183 1.411    C  184 1.409    C  181 1.009    C  187 0.110
   183  C   3.986        C  185 1.444    C  182 1.411    H  192 0.963    C  186 0.110
   184  C   3.991        C  186 1.446    C  182 1.409    H  193 0.966    C  185 0.111
   185  C   3.984        C  183 1.444    C  187 1.437    H  194 0.963    C  184 0.111
   186  C   3.990        C  184 1.446    C  187 1.433    H  195 0.972    C  183 0.110
   187  C   3.985        C  185 1.437    C  186 1.433    H  196 0.967    C  182 0.110
   188  H   0.974        N  177 0.936
   189  H   0.995        C  178 0.951
   190  H   0.996        C  181 0.963
   191  H   0.999        C  181 0.965
   192  H   0.996        C  183 0.963
   193  H   1.000        C  184 0.966
   194  H   0.991        C  185 0.963
   195  H   1.000        C  186 0.972
   196  H   0.995        C  187 0.967
   197  N   3.004        C  198 1.030    H  209 0.951    H  480 0.939
   198  C   3.989        N  197 1.030    C  199 0.985    H  210 0.955    C  201 0.923
   199  C   3.901        O  200 1.890    C  198 0.985    H  481 0.957
   200  O   2.035        C  199 1.890
   201  C   3.992        C  202 1.012    H  212 0.972    H  211 0.966    C  198 0.923
   202  C   3.988        C  204 1.410    C  203 1.396    C  201 1.012
   203  C   3.989        C  205 1.456    C  202 1.396    H  213 0.961    C  206 0.105
   204  C   3.990        C  206 1.444    C  202 1.410    H  214 0.967    C  205 0.108
   205  C   3.981        C  203 1.456    C  207 1.369    H  215 0.959    C  204 0.108
   206  C   3.989        C  204 1.444    C  207 1.380    H  216 0.965    C  203 0.105
   207  C   3.941        C  206 1.380    C  205 1.369    O  208 1.053
   208  O   2.124        C  207 1.053    H  217 0.871
   209  H   0.970        N  197 0.951
   210  H   0.998        C  198 0.955
   211  H   0.995        C  201 0.966
   212  H   0.998        C  201 0.972
   213  H   0.995        C  203 0.961
   214  H   0.999        C  204 0.967
   215  H   0.991        C  205 0.959
   216  H   0.999        C  206 0.965
   217  H   0.900        O  208 0.871
   218  N   2.986        C  219 1.018    H  225 0.951    H  482 0.942
   219  C   3.984        N  218 1.018    H  226 0.954    C  222 0.952    C  220 0.947
   220  C   3.937        O  221 1.635    N  234 1.283    C  219 0.947
   221  O   1.942        C  220 1.635    N  234 0.189
   222  C   3.993        C  224 1.009    C  223 1.009    H  227 0.964    C  219 0.952
   223  C   3.994        C  222 1.009    H  230 0.985    H  228 0.982    H  229 0.981
   224  C   3.994        C  222 1.009    H  232 0.982    H  231 0.980    H  233 0.976
   225  H   0.969        N  218 0.951
   226  H   0.999        C  219 0.954
   227  H   0.996        C  222 0.964
   228  H   0.997        C  223 0.982
   229  H   0.999        C  223 0.981
   230  H   1.000        C  223 0.985
   231  H   0.997        C  224 0.980
   232  H   0.999        C  224 0.982
   233  H   0.998        C  224 0.976
   234  N   3.454        C  220 1.283    C  235 0.974    H  242 0.897    O  221 0.189
   235  C   3.974        C  238 0.993    N  234 0.974    H  243 0.960    C  236 0.929
   236  C   3.948        O  237 1.602    N  246 1.299    C  235 0.929
   237  O   1.947        C  236 1.602    N  246 0.181
   238  C   3.984        C  235 0.993    H  244 0.977    H  245 0.955    C  239 0.916
   239  C   3.934        O  240 1.528    O  241 1.459    C  238 0.916
   240  O   1.817        C  239 1.528    O  241 0.209
   241  O   1.815        C  239 1.459    O  240 0.209
   242  H   0.958        N  234 0.897
   243  H   0.998        C  235 0.960
   244  H   0.999        C  238 0.977
   245  H   1.000        C  238 0.955
   246  N   3.456        C  236 1.299    C  247 0.976    H  255 0.920    O  237 0.181
   247  C   3.948        N  246 0.976    C  248 0.975    C  250 0.957    H  256 0.930
   248  C   3.901        O  249 1.897    C  247 0.975    H  483 0.956
   249  O   2.045        C  248 1.897
   250  C   3.973        C  251 1.006    H  258 0.969    H  257 0.965    C  247 0.957
   251  C   3.985        C  252 1.006    C  250 1.006    H  260 0.970    H  259 0.965
   252  C   3.987        C  253 1.015    C  251 1.006    H  261 0.970    H  262 0.962
   253  C   3.915        C  252 1.015    H  263 0.964    H  264 0.960    N  254 0.954
   254  N   3.665        C  253 0.954    H  266 0.898    H  265 0.898    H  267 0.868
   255  H   0.956        N  246 0.920
   256  H   0.989        C  247 0.930
   257  H   0.995        C  250 0.965
   258  H   0.993        C  250 0.969
   259  H   0.990        C  251 0.965
   260  H   0.995        C  251 0.970
   261  H   0.996        C  252 0.970
   262  H   0.992        C  252 0.962
   263  H   0.987        C  253 0.964
   264  H   0.983        C  253 0.960
   265  H   0.911        N  254 0.898
   266  H   0.918        N  254 0.898
   267  H   0.920        N  254 0.868
   268  N   3.000        C  269 1.032    H  484 0.948    H  276 0.926
   269  C   3.989        N  268 1.032    C  272 0.974    H  277 0.948    C  270 0.940
   270  C   3.942        O  271 1.599    N  282 1.321    C  269 0.940
   271  O   1.899        C  270 1.599    N  282 0.188
   272  C   3.994        C  269 0.974    C  273 0.964    H  278 0.960    H  279 0.959
   273  C   3.932        O  274 1.589    N  275 1.343    C  272 0.964
   274  O   1.934        C  273 1.589    N  275 0.193
   275  N   3.400        C  273 1.343    H  281 0.927    H  280 0.859    O  274 0.193
   276  H   0.975        N  268 0.926
   277  H   0.995        C  269 0.948
   278  H   0.996        C  272 0.960
   279  H   0.994        C  272 0.959
   280  H   0.947        N  275 0.859
   281  H   0.946        N  275 0.927
   282  N   3.480        C  270 1.321    C  283 1.007    H  286 0.879    O  271 0.188
   283  C   3.967        N  282 1.007    C  284 0.964    H  288 0.941    H  287 0.939
   284  C   3.941        O  285 1.559    N  289 1.329    C  283 0.964
   285  O   1.922        C  284 1.559    N  289 0.179
   286  H   0.944        N  282 0.879
   287  H   0.988        C  283 0.939
   288  H   0.990        C  283 0.941
   289  N   3.486        C  284 1.329    C  290 0.982    H  298 0.897    O  285 0.179
   290  C   3.969        N  289 0.982    C  293 0.978    H  299 0.943    C  291 0.934
   291  C   3.954        O  292 1.601    N  304 1.324    C  290 0.934
   292  O   1.963        C  291 1.601    N  304 0.194
   293  C   3.995        C  294 1.006    C  290 0.978    H  301 0.973    H  300 0.973
   294  C   3.987        C  293 1.006    H  303 0.973    H  302 0.966    C  295 0.916
   295  C   3.935        O  297 1.529    O  296 1.461    C  294 0.916
   296  O   1.835        C  295 1.461    O  297 0.208
   297  O   1.816        C  295 1.529    O  296 0.208
   298  H   0.957        N  289 0.897
   299  H   0.998        C  290 0.943
   300  H   0.999        C  293 0.973
   301  H   0.998        C  293 0.973
   302  H   1.000        C  294 0.966
   303  H   1.000        C  294 0.973
   304  N   3.491        C  291 1.324    C  305 0.967    H  311 0.916    O  292 0.194
   305  C   3.949        C  306 0.975    N  304 0.967    H  312 0.953    C  308 0.937
   306  C   3.895        O  307 1.899    C  305 0.975    H  485 0.949
   307  O   2.039        C  306 1.899
   308  C   3.982        C  310 1.008    C  309 1.005    H  313 0.955    C  305 0.937
   309  C   3.987        C  308 1.005    H  316 0.983    H  315 0.981    H  314 0.979
   310  C   3.993        C  308 1.008    H  319 0.985    H  318 0.979    H  317 0.977
   311  H   0.959        N  304 0.916
   312  H   0.991        C  305 0.953
   313  H   0.999        C  308 0.955
   314  H   0.993        C  309 0.979
   315  H   0.998        C  309 0.981
   316  H   0.995        C  309 0.983
   317  H   0.996        C  310 0.977
   318  H   0.997        C  310 0.979
   319  H   0.999        C  310 0.985
   320  N   2.991        C  321 1.011    H  486 0.957    H  329 0.943
   321  C   3.987        N  320 1.011    C  324 0.987    H  330 0.959    C  322 0.935
   322  C   3.940        O  323 1.611    N  335 1.308    C  321 0.935
   323  O   1.949        C  322 1.611    N  335 0.188
   324  C   3.996        C  325 0.999    C  321 0.987    H  332 0.978    H  331 0.961
   325  C   3.991        C  324 0.999    H  333 0.980    H  334 0.975    C  326 0.919
   326  C   3.930        O  327 1.502    O  328 1.487    C  325 0.919
   327  O   1.787        C  326 1.502    O  328 0.215
   328  O   1.775        C  326 1.487    O  327 0.215
   329  H   0.966        N  320 0.943
   330  H   0.999        C  321 0.959
   331  H   0.997        C  324 0.961
   332  H   1.000        C  324 0.978
   333  H   0.999        C  325 0.980
   334  H   0.999        C  325 0.975
   335  N   3.469        C  322 1.308    C  336 0.968    H  343 0.932    O  323 0.188
   336  C   3.961        C  339 0.989    N  335 0.968    H  344 0.944    C  337 0.933
   337  C   3.947        O  338 1.610    N  347 1.315    C  336 0.933
   338  O   1.917        C  337 1.610    N  347 0.193
   339  C   3.975        C  336 0.989    H  345 0.975    H  346 0.962    C  340 0.892
   340  C   3.940        O  341 1.521    O  342 1.504    C  339 0.892
   341  O   1.823        C  340 1.521    O  342 0.221
   342  O   1.800        C  340 1.504    O  341 0.221
   343  H   0.965        N  335 0.932
   344  H   0.996        C  336 0.944
   345  H   0.999        C  339 0.975
   346  H   0.999        C  339 0.962
   347  N   3.471        C  337 1.315    C  348 0.984    H  354 0.888    O  338 0.193
   348  C   3.961        N  347 0.984    H  355 0.955    C  349 0.944    C  351 0.941
   349  C   3.952        O  350 1.644    N  363 1.278    C  348 0.944
   350  O   1.970        C  349 1.644    N  363 0.192
   351  C   3.985        C  353 1.009    C  352 1.008    H  356 0.955    C  348 0.941
   352  C   3.994        C  351 1.008    H  358 0.987    H  357 0.980    H  359 0.977
   353  C   3.991        C  351 1.009    H  360 0.981    H  361 0.977    H  362 0.977
   354  H   0.948        N  347 0.888
   355  H   0.998        C  348 0.955
   356  H   0.996        C  351 0.955
   357  H   0.997        C  352 0.980
   358  H   1.000        C  352 0.987
   359  H   0.999        C  352 0.977
   360  H   0.996        C  353 0.981
   361  H   0.997        C  353 0.977
   362  H   0.997        C  353 0.977
   363  N   3.460        C  349 1.278    C  364 0.975    H  372 0.929    O  350 0.192
   364  C   3.951        N  363 0.975    C  367 0.971    H  373 0.944    C  365 0.933
   365  C   3.948        O  366 1.641    N  385 1.292    C  364 0.933
   366  O   1.956        C  365 1.641    N  385 0.192
   367  C   3.982        C  368 1.004    C  364 0.971    H  374 0.970    H  375 0.969
   368  C   3.992        C  369 1.006    C  367 1.004    H  376 0.975    H  377 0.972
   369  C   3.988        C  370 1.014    C  368 1.006    H  378 0.973    H  379 0.965
   370  C   3.919        C  369 1.014    H  381 0.966    H  380 0.964    N  371 0.956
   371  N   3.636        C  370 0.956    H  384 0.913    H  382 0.908    H  383 0.775
   372  H   0.965        N  363 0.929
   373  H   0.992        C  364 0.944
   374  H   0.996        C  367 0.970
   375  H   0.994        C  367 0.969
   376  H   0.997        C  368 0.975
   377  H   0.999        C  368 0.972
   378  H   0.996        C  369 0.973
   379  H   0.992        C  369 0.965
   380  H   0.985        C  370 0.964
   381  H   0.988        C  370 0.966
   382  H   0.922        N  371 0.908
   383  H   0.919        N  371 0.775    O  153 0.121
   384  H   0.929        N  371 0.913
   385  N   3.470        C  365 1.292    C  386 0.991    H  393 0.915    O  366 0.192
   386  C   3.965        N  385 0.991    C  389 0.949    H  394 0.945    C  387 0.937
   387  C   3.957        O  388 1.613    N  399 1.334    C  386 0.937
   388  O   1.948        C  387 1.613    N  399 0.201
   389  C   3.991        H  395 0.971    C  390 0.967    H  396 0.960    C  386 0.949
   390  C   3.949        O  391 1.629    N  392 1.324    C  389 0.967
   391  O   1.931        C  390 1.629    N  392 0.201
   392  N   3.407        C  390 1.324    H  398 0.920    H  397 0.919    O  391 0.201
   393  H   0.965        N  385 0.915
   394  H   0.993        C  386 0.945
   395  H   0.998        C  389 0.971
   396  H   0.993        C  389 0.960
   397  H   0.940        N  392 0.919
   398  H   0.952        N  392 0.920
   399  N   3.485        C  387 1.334    C  400 0.974    H  406 0.886    O  388 0.201
   400  C   3.949        N  399 0.974    C  403 0.953    H  407 0.949    C  401 0.936
   401  C   3.940        O  402 1.583    N  415 1.326    C  400 0.936
   402  O   1.968        C  401 1.583    N  415 0.189
   403  C   3.975        C  405 1.006    C  404 1.005    H  408 0.954    C  400 0.953
   404  C   3.980        C  403 1.005    H  410 0.979    H  409 0.977    H  411 0.975
   405  C   3.990        C  403 1.006    H  414 0.983    H  413 0.981    H  412 0.979
   406  H   0.947        N  399 0.886
   407  H   0.994        C  400 0.949
   408  H   0.997        C  403 0.954
   409  H   0.991        C  404 0.977
   410  H   0.995        C  404 0.979
   411  H   0.994        C  404 0.975
   412  H   0.995        C  405 0.979
   413  H   0.997        C  405 0.981
   414  H   0.999        C  405 0.983
   415  N   3.491        C  401 1.326    C  416 0.985    H  424 0.911    O  402 0.189
   416  C   3.964        N  415 0.985    C  419 0.978    H  425 0.951    C  417 0.920
   417  C   3.963        O  418 1.639    N  432 1.322    C  416 0.920
   418  O   1.972        C  417 1.639    N  432 0.209
   419  C   3.985        C  420 0.992    C  416 0.978    H  426 0.964    H  427 0.963
   420  C   3.988        C  419 0.992    H  428 0.969    C  421 0.969    H  429 0.954
   421  C   3.923        O  422 1.652    N  423 1.273    C  420 0.969
   422  O   1.951        C  421 1.652    N  423 0.190
   423  N   3.377        C  421 1.273    H  431 0.946    H  430 0.928    O  422 0.190
   424  H   0.944        N  415 0.911
   425  H   0.997        C  416 0.951
   426  H   0.989        C  419 0.964
   427  H   0.997        C  419 0.963
   428  H   0.994        C  420 0.969
   429  H   0.995        C  420 0.954
   430  H   0.954        N  423 0.928
   431  H   0.968        N  423 0.946
   432  N   3.495        C  417 1.322    C  433 0.976    H  439 0.898    O  418 0.209
   433  C   3.948        C  434 0.991    N  432 0.976    H  440 0.935    C  436 0.928
   434  C   3.884        O  435 1.869    C  433 0.991    H  487 0.948
   435  O   2.060        C  434 1.869
   436  C   3.980        C  437 1.012    C  438 1.006    H  441 0.959    C  433 0.928
   437  C   3.994        C  436 1.012    H  444 0.985    H  443 0.981    H  442 0.981
   438  C   3.984        C  436 1.006    H  446 0.985    H  447 0.982    H  445 0.975
   439  H   0.958        N  432 0.898
   440  H   0.983        C  433 0.935
   441  H   0.995        C  436 0.959
   442  H   0.996        C  437 0.981
   443  H   0.999        C  437 0.981
   444  H   0.999        C  437 0.985
   445  H   0.992        C  438 0.975
   446  H   0.998        C  438 0.985
   447  H   0.995        C  438 0.982
   448  N   2.988        C  449 1.014    H  488 0.954    H  455 0.944
   449  C   3.986        N  448 1.014    C  450 0.977    H  456 0.959    C  452 0.935
   450  C   3.896        O  451 1.894    C  449 0.977    H  489 0.954
   451  O   2.037        C  450 1.894
   452  C   3.959        C  454 1.007    O  453 1.000    H  457 0.962    C  449 0.935
   453  O   1.965        C  452 1.000    H  458 0.865
   454  C   3.992        C  452 1.007    H  459 0.983    H  460 0.982    H  461 0.980
   455  H   0.967        N  448 0.944
   456  H   0.998        C  449 0.959
   457  H   0.998        C  452 0.962
   458  H   0.884        O  453 0.865
   459  H   0.996        C  454 0.983
   460  H   0.998        C  454 0.982
   461  H   0.996        C  454 0.980
   462  N   2.994        C  463 1.025    H  470 0.955    H  490 0.952
   463  C   3.990        N  462 1.025    C  464 0.985    C  466 0.974    H  471 0.933
   464  C   3.901        O  465 1.833    C  463 0.985    H  491 0.953
   465  O   2.003        C  464 1.833
   466  C   3.988        C  463 0.974    H  473 0.973    H  472 0.962    C  467 0.916
   467  C   3.930        O  469 1.517    O  468 1.470    C  466 0.916
   468  O   1.847        C  467 1.470    O  469 0.207
   469  O   1.813        C  467 1.517    O  468 0.207
   470  H   0.976        N  462 0.955
   471  H   0.996        C  463 0.933
   472  H   1.000        C  466 0.962
   473  H   1.000        C  466 0.973
   474  H   0.960        N    1 0.935
   475  H   0.995        C  134 0.954
   476  H   0.962        N  146 0.953
   477  H   0.993        C  160 0.951
   478  H   0.971        N  177 0.957
   479  H   0.994        C  179 0.953
   480  H   0.961        N  197 0.939
   481  H   0.997        C  199 0.957
   482  H   0.963        N  218 0.942
   483  H   0.997        C  248 0.956
   484  H   0.964        N  268 0.948
   485  H   0.989        C  306 0.949
   486  H   0.969        N  320 0.957
   487  H   0.988        C  434 0.948
   488  H   0.965        N  448 0.954
   489  H   0.995        C  450 0.954
   490  H   0.966        N  462 0.952
   491  H   0.994        C  464 0.953
 
molecular dipole:
                 x           y           z       tot (Debye)
 q only:    -2366.061    -809.809   -1349.436
   full:    -2367.870    -808.435   -1346.188    7221.843
molecular quadrupole (traceless):
                xx          xy          yy          xz          yz          zz
 q only:  -727033.497 -477738.976  507905.171 -799055.260 -272202.199  219128.326
  q+dip:  -729407.505 -477361.725  508363.816 -797751.088 -271154.505  221043.688
   full:  -729407.665 -477357.217  508361.708 -797749.069 -271155.813  221045.957


           -------------------------------------------------
          | TOTAL ENERGY             -790.966571295662 Eh   |
          | GRADIENT NORM               0.676848806945 Eh/α |
          | HOMO-LUMO GAP               1.437509316257 eV   |
           -------------------------------------------------

------------------------------------------------------------------------
 * finished run on 2019/05/31 at 05:35:02.936     
------------------------------------------------------------------------
 total:
 * wall-time:     0 d,  0 h,  0 min, 11.614 sec
 *  cpu-time:     0 d,  0 h,  0 min, 22.490 sec
 * ratio c/w:     1.937 speedup
 SCF:
 * wall-time:     0 d,  0 h,  0 min, 10.698 sec
 *  cpu-time:     0 d,  0 h,  0 min, 21.079 sec
 * ratio c/w:     1.970 speedup

