      -----------------------------------------------------------      
     |                   =====================                   |     
     |                           x T B                           |     
     |                   =====================                   |     
     |                         S. Grimme                         |     
     |          Mulliken Center for Theoretical Chemistry        |     
     |                    University of Bonn                     |     
     |                Version 6.1 RC1 (SAW190329)                |     
      -----------------------------------------------------------      

   This program is distributed in the hope that it will be useful,
   but WITHOUT ANY WARRANTY; without even the implied warranty of
   MERCHANTABILITY or FITNESS FOR A PARTICULAR PURPOSE.
   
   FOR NON-COMMERCIAL, ACADEMIA USE ONLY.
   
   Cite this work as:
   S. Grimme, C. Bannwarth, P. Shushkov, J. Comput. Theory Chem., 2017,
   13, 1989-2009. DOI: 10.1021/acs.jctc.7b00118
   C. Bannwarth, S. Ehlert and S. Grimme., J. Comput. Theory Chem., 2019,
   just accepted. DOI: 10.1021/acs.jctc.8b01176
   
   for sTDA-xTB:
   S. Grimme and C. Bannwarth, J. Chem. Phys., 2016, 145, 054103.
   DOI: 10.1063/1.4959605
   
   in the mass-spec context:
   V. Asgeirsson, C. Bauer and S. Grimme, Chem. Sci., 2017, 8, 4879.
   DOI: 10.1039/c7sc00601b
   
   for metadynamics refer to:
   S. Grimme, ChemRxiv, Preprint. DOI: 10.26434/chemrxiv.7660532.v1
   
   with help from (in alphabetical order)
   C. Bannwarth, F. Bohle, G. Brandenburg, E. Caldeweyher, M. Checinski,
   S. Dohm, S. Ehlert, S. Ehrlich, F. März, H. Neugebauer, J. Pisarek,
   P. Pracht, P. Shushkov, and S. Spicher.
   
 * started run on 2019/05/31 at 06:33:07.966     

           -------------------------------------------------
          |                Calculation Setup                |
           -------------------------------------------------

          program call               : /home/lum/qr/xtb-190329/bin/xtb xtb_tmp.xyz --chrg 1 --grad --gfn 2 --etemp 500 --acc 0.1 --gbsa h2o --parallel 2
          hostname                   : cu39
          coordinate file            : xtb_tmp.xyz
          omp threads                :                     2
          number of atoms            :                   373
          number of electrons        :                   964
          charge                     :                     1
          spin                       :                   0.0
          first test random number   :      0.71546862778013


molecular fragmentation (1/2 indicates fragments):
111111111111111111111111112222222222222222222222222222222222222222222222
222222222222222222222222222222222222222222222222222222222222222222222222
222222222222222222222222222222222222222222222222222222222222222222222222
222222222222222222222222222222222222222222222222222222222222222222222222
222222222222222222222222222222222222222222222222222222222222222222211222
2222222222222
# atoms in fragment 1/2:    28   345
 fragment masses (1/2) :      172.23     2232.79
CMA distance (Bohr)    :  19.814
constraining FC (au)   :  0.0500

########################################################################
# WARNING! Please study the warnings concerning your input carefully
#  - XTBPATH is not set, using XTBHOME instead
#  - Process number higher than OMP_NUM_THREADS, I hope you know what you are doing.
########################################################################

           ------------------------------------------------- 
          |                 G F N 2 - x T B                 |
          | Geometry, Frequencies, Noncovalent interactions |
          |            JCTC 2018 parametrisation            |
           ------------------------------------------------- 
 
             k(s)              :                1.8500
             k(p)              :                2.2300
             k(d)              :                2.2300
             k(f)              :                2.0000
             kEN (H0ij)        :               -2.0000
             D4 a1             :                0.5200
             D4 a2             :                5.0000
             D4 s6             :                1.0000
             D4 s8             :                2.7000
             D4 s9             :                5.0000
             alphaj            :                2.0000

  Z AO/shell   Hii/eV     exponent
  1     Wed Apr 25 08:07:45 CEST 2018   EN: 2.200 GM2: 0.406  GM3: 0.0800  RAES: 1.40
     1s    -10.707211    1.230000
  6     Wed Apr 25 08:07:45 CEST 2018   EN: 2.550 GM2: 0.538  GM3: 0.1500  RAES: 3.00
     2s    -13.970922    2.096432
     2p    -10.063292    1.800000
  7     Wed Apr 25 08:07:45 CEST 2018   EN: 3.040 GM2: 0.461  GM3:-0.0640  RAES: 1.90
     2s    -16.686243    2.339881
     2p    -12.523956    2.014332
  8     Wed Apr 25 08:07:45 CEST 2018   EN: 3.440 GM2: 0.452  GM3:-0.0517  RAES: 1.80
     2s    -20.229985    2.439742
     2p    -15.503117    2.137023

 Solvent             : h2o
 Using internal parameter file: .param_gbsa2_h2o
 Gsolv ref. state (COSMO-RS): gsolv [1 M gas/solution]
 temperature (mdtemp)       :    298.150000000000     
 dielectric constant        :    80.2000000000000     
 rho                        :    1.00000000000000     
 mass                       :    18.0000000000000     
 surface tension            :    15.5689454083859     
 probe radius               :   0.975313790000000     
 vdW radii scaling          :    1.00000000000000     
 Gshift (Eh)                :   1.857443126794793E-003
 c1                         :    1.55243817000000     
 soset                      :   0.130326360000000     
 HB correction              :  T
 Number of grid points      :          230

            Z     q(EN)     CN     RAES       Cart. coordinates
     1  N   5.0   -0.70    3.00    1.93   107.63875    47.41052    22.18455
     2  C   4.0    0.07    3.98    3.59   108.94025    49.21224    23.78591
     3  C   4.0    0.28    3.02    3.02   107.77098    49.19792    26.42549
     4  O   6.0   -0.45    1.00    1.80   109.08067    49.09147    28.33899
     5  C   4.0   -0.21    3.98    3.59   108.80060    51.84044    22.61292
     6  H   1.0    0.26    1.00    1.43   107.23846    47.94555    20.38707
     7  H   1.0    0.12    0.99    1.43   110.92124    48.63343    24.03273
     8  H   1.0    0.11    0.99    1.43   109.68223    53.20424    23.86828
     9  H   1.0    0.11    0.99    1.43   109.80676    51.85275    20.82294
    10  H   1.0    0.11    0.99    1.43   106.83792    52.36500    22.31708
    11  N   5.0   -0.49    3.01    1.93   105.25192    49.44479    26.48214
    12  C   4.0    0.07    4.00    3.62   103.96474    49.56398    28.89001
    13  C   4.0    0.08    3.00    3.02   103.88919    46.96660    30.16214
    14  O   6.0   -0.41    1.00    1.80   104.40645    46.76838    32.41857
    15  C   4.0   -0.10    3.98    3.58   101.40578    50.92089    28.72006
    16  C   4.0   -0.22    3.98    3.59    99.44153    49.36687    27.30197
    17  C   4.0   -0.23    3.98    3.59   100.48673    51.58200    31.37494
    18  H   1.0    0.24    1.00    1.43   104.25044    49.61401    24.86050
    19  H   1.0    0.13    0.99    1.43   105.18306    50.68136    30.14719
    20  H   1.0    0.10    0.99    1.43   101.74053    52.67652    27.67664
    21  H   1.0    0.09    0.99    1.43    97.72892    50.47599    27.07365
    22  H   1.0    0.11    0.99    1.43   100.13130    48.83162    25.44511
    23  H   1.0    0.11    0.99    1.43    98.96734    47.66508    28.34545
    24  H   1.0    0.10    0.99    1.43    98.65271    52.50276    31.28830
    25  H   1.0    0.12    0.99    1.43   100.31618    49.87652    32.50640
    26  H   1.0    0.09    0.99    1.43   101.80810    52.85170    32.30644
    27  N   5.0   -0.68    3.00    1.93   109.81253    47.37372    33.59953
    28  C   4.0    0.08    3.98    3.58   109.79796    49.23381    35.62146
    29  C   4.0    0.10    3.00    3.02   108.56728    48.16101    38.01604
    30  O   6.0   -0.38    1.00    1.80   109.45759    48.50613    40.12024
    31  C   4.0   -0.12    3.99    3.60   108.33520    51.58814    34.76756
    32  C   4.0   -0.03    3.03    3.02   108.08265    53.53778    36.83046
    33  C   4.0   -0.08    3.03    3.02   110.18034    54.85020    37.70904
    34  C   4.0   -0.09    3.03    3.02   105.73284    54.08681    37.86274
    35  C   4.0   -0.09    3.03    3.02   109.92687    56.68449    39.55677
    36  C   4.0   -0.10    3.03    3.02   105.47365    55.93166    39.70073
    37  C   4.0   -0.09    3.03    3.02   107.56913    57.25112    40.54248
    38  H   1.0    0.32    1.00    1.43   109.15787    47.90202    31.87387
    39  H   1.0    0.13    0.99    1.43   111.74835    49.71874    36.13613
    40  H   1.0    0.11    0.99    1.43   109.33426    52.39498    33.14972
    41  H   1.0    0.12    0.99    1.43   106.45821    50.97307    34.17140
    42  H   1.0    0.12    1.00    1.43   112.01988    54.42366    36.93651
    43  H   1.0    0.11    0.99    1.43   104.09063    53.05951    37.21833
    44  H   1.0    0.12    1.00    1.43   111.57780    57.67191    40.22965
    45  H   1.0    0.11    1.00    1.43   103.63024    56.35117    40.46743
    46  H   1.0    0.12    1.00    1.43   107.35575    58.68908    41.97386
    47  N   5.0   -0.69    3.01    1.93    78.17343    53.91686    45.79026
    48  C   4.0    0.06    3.98    3.59    80.90651    54.08398    46.10502
    49  C   4.0    0.07    3.01    3.02    81.26301    55.75510    48.44112
    50  O   6.0   -0.37    1.00    1.80    80.45589    57.92602    48.46854
    51  C   4.0   -0.13    3.99    3.59    82.29053    55.23486    43.83557
    52  C   4.0   -0.11    3.98    3.58    85.07089    54.40819    43.73994
    53  C   4.0   -0.23    3.98    3.59    85.31503    51.61979    43.02574
    54  C   4.0   -0.23    3.98    3.59    86.48112    56.06032    41.83726
    55  H   1.0    0.30    1.00    1.43    77.18918    55.45233    46.35119
    56  H   1.0    0.11    0.99    1.43    81.59354    52.17085    46.46333
    57  H   1.0    0.11    0.99    1.43    81.36457    54.66617    42.08597
    58  H   1.0    0.17    0.99    1.43    82.19191    57.28845    44.00203
    59  H   1.0    0.11    0.99    1.43    85.90925    54.70584    45.61385
    60  H   1.0    0.09    0.99    1.43    87.30006    51.12925    42.85077
    61  H   1.0    0.10    0.99    1.43    84.49359    50.40505    44.46487
    62  H   1.0    0.11    0.99    1.43    84.38546    51.26783    41.22769
    63  H   1.0    0.09    0.99    1.43    88.49273    55.64057    41.85400
    64  H   1.0    0.11    0.99    1.43    85.76224    55.74717    39.93844
    65  H   1.0    0.13    0.99    1.43    86.21789    58.03565    42.32924
    66  N   5.0   -0.68    3.00    1.93    86.20721    58.01826    54.75674
    67  C   4.0    0.07    3.98    3.59    88.71928    58.43322    55.75292
    68  C   4.0    0.08    3.00    3.02    88.71640    57.59650    58.51748
    69  O   6.0   -0.38    1.00    1.80    86.91646    58.02401    59.92583
    70  C   4.0   -0.09    3.98    3.58    89.52023    61.22343    55.44583
    71  C   4.0   -0.20    3.98    3.59    87.73660    63.05328    56.80666
    72  C   4.0   -0.23    3.98    3.59    92.24466    61.53640    56.34782
    73  H   1.0    0.29    1.00    1.43    84.80003    58.95637    55.63696
    74  H   1.0    0.11    0.99    1.43    90.01090    57.22887    54.67086
    75  H   1.0    0.10    0.99    1.43    89.44773    61.61635    53.41557
    76  H   1.0    0.11    0.99    1.43    88.61316    64.90849    56.91213
    77  H   1.0    0.11    0.99    1.43    85.94908    63.24540    55.80463
    78  H   1.0    0.14    0.99    1.43    87.35281    62.41191    58.72378
    79  H   1.0    0.10    0.99    1.43    92.94643    63.38352    55.78438
    80  H   1.0    0.11    0.99    1.43    92.35364    61.37965    58.39764
    81  H   1.0    0.10    0.99    1.43    93.43516    60.08213    55.50633
    82  N   5.0   -0.66    3.00    1.93    79.98761    64.20547    47.18684
    83  C   4.0    0.06    3.98    3.58    81.16645    65.11268    44.87187
    84  C   4.0    0.08    3.00    3.02    81.70595    62.92023    43.03762
    85  O   6.0   -0.43    1.00    1.80    83.13181    61.20157    43.61301
    86  C   4.0   -0.13    3.99    3.60    83.68530    66.37478    45.52582
    87  C   4.0   -0.11    3.98    3.58    84.90164    67.73333    43.26829
    88  C   4.0   -0.22    3.98    3.59    83.58012    70.24937    42.75567
    89  C   4.0   -0.23    3.98    3.59    87.71238    68.16503    43.78656
    90  H   1.0    0.27    1.00    1.43    81.01805    64.21530    48.79168
    91  H   1.0    0.10    0.99    1.43    79.84267    66.43867    43.98501
    92  H   1.0    0.10    0.99    1.43    83.37879    67.72176    47.05780
    93  H   1.0    0.13    0.99    1.43    84.94433    64.88295    46.20418
    94  H   1.0    0.11    0.99    1.43    84.72490    66.52366    41.59658
    95  H   1.0    0.11    0.99    1.43    84.34753    71.13467    41.07054
    96  H   1.0    0.10    0.99    1.43    81.56551    69.98087    42.46005
    97  H   1.0    0.11    0.99    1.43    83.82333    71.50784    44.36102
    98  H   1.0    0.09    0.99    1.43    88.59061    69.07462    42.16765
    99  H   1.0    0.11    0.99    1.43    87.96471    69.31795    45.47024
   100  H   1.0    0.10    0.99    1.43    88.66705    66.37162    44.09338
   101  N   5.0   -0.68    3.00    1.93    86.63435    49.99055    29.25824
   102  C   4.0    0.06    3.98    3.59    87.05036    52.02143    27.49249
   103  C   4.0    0.07    3.00    3.02    86.25988    51.14691    24.85629
   104  O   6.0   -0.38    1.00    1.80    86.27559    48.92923    24.23754
   105  C   4.0   -0.14    3.99    3.61    89.88020    52.69755    27.36389
   106  C   4.0   -0.04    3.03    3.02    90.90328    53.32584    29.93145
   107  C   4.0   -0.10    3.03    3.02    90.09822    55.48998    31.17575
   108  C   4.0   -0.11    3.03    3.02    92.62823    51.74842    31.11317
   109  C   4.0   -0.11    3.03    3.02    90.97408    56.04727    33.57170
   110  C   4.0   -0.11    3.03    3.02    93.52258    52.31132    33.50345
   111  C   4.0   -0.12    3.03    3.02    92.68562    54.45353    34.74416
   112  H   1.0    0.29    1.00    1.43    87.10027    48.24913    28.61319
   113  H   1.0    0.11    0.99    1.43    85.93839    53.65780    28.09968
   114  H   1.0    0.11    0.99    1.43    90.87620    51.08073    26.56198
   115  H   1.0    0.09    0.99    1.43    90.09038    54.29969    26.08960
   116  H   1.0    0.11    1.00    1.43    88.75006    56.71806    30.26365
   117  H   1.0    0.11    1.00    1.43    93.25687    50.06409    30.15262
   118  H   1.0    0.10    1.00    1.43    90.30679    57.72340    34.52327
   119  H   1.0    0.10    1.00    1.43    94.86288    51.06649    34.39974
   120  H   1.0    0.10    1.00    1.43    93.34850    54.87818    36.62104
   121  N   5.0   -0.69    3.00    1.93    94.65071    59.18138    19.24168
   122  C   4.0    0.08    3.99    3.60    95.11984    59.29113    21.94768
   123  C   4.0    0.28    3.01    3.02    97.44038    60.95723    22.47957
   124  O   6.0   -0.41    1.00    1.80    99.57618    60.31195    21.89632
   125  C   4.0   -0.09    3.98    3.59    95.55380    56.64020    23.06745
   126  C   4.0   -0.23    3.98    3.59    95.55619    56.81381    25.94788
   127  C   4.0   -0.23    3.98    3.59    93.52029    54.81906    22.14642
   128  H   1.0    0.27    1.00    1.43    95.66175    57.91857    18.22203
   129  H   1.0    0.10    0.99    1.43    93.42459    60.13577    22.78564
   130  H   1.0    0.13    0.99    1.43    97.40791    55.97225    22.44348
   131  H   1.0    0.10    0.99    1.43    95.89770    54.96508    26.77074
   132  H   1.0    0.12    0.99    1.43    97.01020    58.11002    26.60005
   133  H   1.0    0.10    0.99    1.43    93.73764    57.48365    26.63053
   134  H   1.0    0.10    0.99    1.43    93.61858    53.04279    23.16536
   135  H   1.0    0.10    0.99    1.43    91.64966    55.62046    22.45135
   136  H   1.0    0.11    0.99    1.43    93.68135    54.40721    20.14223
   137  N   5.0   -0.49    3.01    1.93    96.95072    63.13354    23.68303
   138  C   4.0    0.08    3.99    3.61    98.87935    65.00183    24.24156
   139  C   4.0    0.29    3.01    3.02   100.02977    64.35279    26.81542
   140  O   6.0   -0.46    1.00    1.80    99.17295    65.22314    28.79984
   141  C   4.0    0.05    3.98    3.58    97.62872    67.62977    24.30970
   142  O   6.0   -0.48    1.99    1.82    95.49255    67.53081    25.91165
   143  C   4.0   -0.18    3.98    3.59    96.77602    68.45647    21.68749
   144  H   1.0    0.25    1.00    1.43    95.16804    63.67928    24.10907
   145  H   1.0    0.14    0.99    1.43   100.35926    64.92163    22.79865
   146  H   1.0    0.15    0.99    1.43    99.02538    68.98671    25.04376
   147  H   1.0    0.29    0.99    1.43    96.09632    66.94913    27.54767
   148  H   1.0    0.13    0.99    1.43    95.78367    70.24655    21.84392
   149  H   1.0    0.12    0.99    1.43    98.42131    68.71621    20.48839
   150  H   1.0    0.13    0.99    1.43    95.52396    67.05065    20.86403
   151  N   5.0   -0.48    3.01    1.93   101.86354    62.63711    26.76740
   152  C   4.0    0.08    4.00    3.61   102.92823    61.65548    29.09423
   153  C   4.0    0.29    3.02    3.02   104.30434    63.69171    30.63496
   154  O   6.0   -0.45    1.00    1.80   104.07214    63.71574    32.95361
   155  C   4.0   -0.10    3.98    3.58   104.48975    59.24927    28.61204
   156  C   4.0   -0.21    3.98    3.59   106.89038    59.77356    27.10393
   157  C   4.0   -0.23    3.98    3.59   105.10510    57.95308    31.12060
   158  H   1.0    0.26    1.00    1.43   102.49891    61.98391    25.08903
   159  H   1.0    0.12    0.99    1.43   101.32243    61.13963    30.30849
   160  H   1.0    0.11    0.99    1.43   103.27831    57.98974    27.49802
   161  H   1.0    0.10    0.99    1.43   107.89520    58.01263    26.76414
   162  H   1.0    0.13    0.99    1.43   106.46797    60.64319    25.28828
   163  H   1.0    0.12    0.99    1.43   108.12367    61.05787    28.12818
   164  H   1.0    0.10    0.99    1.43   106.03529    56.15308    30.78618
   165  H   1.0    0.12    0.99    1.43   106.34387    59.13261    32.25485
   166  H   1.0    0.09    0.99    1.43   103.39242    57.61549    32.20196
   167  N   5.0   -0.47    3.00    1.93   105.70247    65.36595    29.41481
   168  C   4.0    0.07    4.01    3.63   106.80573    67.43407    30.82247
   169  C   4.0    0.31    3.02    3.02   104.74480    68.75984    32.32987
   170  O   6.0   -0.45    1.00    1.80   104.87610    69.00796    34.63030
   171  C   4.0   -0.13    3.98    3.59   108.11242    69.32918    29.08252
   172  C   4.0   -0.12    3.97    3.58   110.05573    68.07095    27.34525
   173  C   4.0    0.32    2.99    3.02   108.83747    67.31862    24.77068
   174  O   6.0   -0.44    1.02    1.80   106.79825    66.08682    24.79517
   175  O   6.0   -0.35    1.00    1.80   109.95251    67.96701    22.81634
   176  H   1.0    0.31    1.02    1.43   105.98606    65.47735    27.44814
   177  H   1.0    0.12    0.99    1.43   108.17349    66.65523    32.17922
   178  H   1.0    0.16    0.99    1.43   106.69247    70.27815    27.91502
   179  H   1.0    0.13    0.99    1.43   108.97943    70.80306    30.24155
   180  H   1.0    0.13    0.99    1.43   111.61505    69.36106    26.93315
   181  H   1.0    0.11    0.99    1.43   110.82384    66.37041    28.23299
   182  N   5.0   -0.45    3.01    1.93   102.75857    69.53198    30.98877
   183  C   4.0    0.08    4.01    3.63   100.86648    71.08600    32.18995
   184  C   4.0    0.29    3.01    3.02    99.69709    69.67357    34.41306
   185  O   6.0   -0.43    1.00    1.80    99.16123    70.75281    36.39289
   186  C   4.0   -0.10    3.98    3.59    98.84484    71.85086    30.29083
   187  C   4.0    0.32    2.99    3.02   100.16022    73.27056    28.06571
   188  O   6.0   -0.36    1.00    1.80    99.77479    75.57547    27.89564
   189  O   6.0   -0.41    1.00    1.80   101.53499    71.94519    26.65952
   190  H   1.0    0.29    1.00    1.43   102.82066    69.72186    29.07304
   191  H   1.0    0.15    0.99    1.43   101.76094    72.81779    32.91967
   192  H   1.0    0.13    0.99    1.43    97.90626    70.17423    29.55522
   193  H   1.0    0.12    0.99    1.43    97.48560    73.11649    31.17703
   194  N   5.0   -0.47    3.01    1.93    99.24571    67.23396    34.00388
   195  C   4.0    0.07    4.00    3.61    98.18929    65.62478    35.95710
   196  C   4.0    0.29    3.01    3.02    99.62958    66.04954    38.42837
   197  O   6.0   -0.45    1.00    1.80    98.57604    66.71332    40.38529
   198  C   4.0   -0.14    3.99    3.60    98.34611    62.87501    35.10224
   199  C   4.0   -0.11    3.98    3.58    97.35919    60.99353    37.06803
   200  C   4.0   -0.23    3.98    3.59    94.51258    61.29115    37.43819
   201  C   4.0   -0.24    3.98    3.59    98.01658    58.31259    36.23165
   202  H   1.0    0.30    1.00    1.43    99.70419    66.44973    32.31981
   203  H   1.0    0.12    0.99    1.43    96.22569    66.19908    36.29111
   204  H   1.0    0.11    0.99    1.43    97.26471    62.69497    33.35177
   205  H   1.0    0.14    0.99    1.43   100.32220    62.46784    34.66866
   206  H   1.0    0.12    0.99    1.43    98.30820    61.37730    38.86811
   207  H   1.0    0.09    0.99    1.43    93.78092    59.76766    38.60421
   208  H   1.0    0.10    0.99    1.43    94.09366    63.07646    38.36192
   209  H   1.0    0.10    0.99    1.43    93.55587    61.24574    35.61941
   210  H   1.0    0.09    0.99    1.43    97.41559    56.95826    37.65091
   211  H   1.0    0.10    0.99    1.43    97.07852    57.86963    34.45712
   212  H   1.0    0.09    0.99    1.43   100.04580    58.11752    35.97048
   213  N   5.0   -0.49    3.01    1.93   102.10025    65.55347    38.32416
   214  C   4.0    0.08    4.00    3.62   103.62027    65.73831    40.59785
   215  C   4.0    0.29    3.01    3.02   103.57118    68.43499    41.63812
   216  O   6.0   -0.42    1.00    1.80   103.49630    68.85106    43.91879
   217  C   4.0   -0.14    3.98    3.59   106.28993    64.68786    40.21559
   218  C   4.0   -0.15    3.98    3.59   108.19030    66.57212    39.13742
   219  C   4.0   -0.16    3.98    3.59   110.73884    65.29768    38.65044
   220  C   4.0   -0.06    3.98    3.58   112.66363    67.20878    37.67312
   221  N   5.0   -0.73    3.98    2.82   115.13761    65.95483    37.17833
   222  H   1.0    0.29    1.00    1.43   102.94070    65.16818    36.65073
   223  H   1.0    0.14    0.99    1.43   102.70591    64.57656    42.05701
   224  H   1.0    0.13    0.99    1.43   106.93844    64.01418    42.05275
   225  H   1.0    0.11    0.99    1.43   106.12875    63.06458    38.95191
   226  H   1.0    0.15    0.99    1.43   107.45413    67.34987    37.37955
   227  H   1.0    0.13    0.99    1.43   108.43566    68.12109    40.47498
   228  H   1.0    0.11    0.99    1.43   111.39393    64.45637    40.41344
   229  H   1.0    0.11    0.99    1.43   110.45817    63.79013    37.27248
   230  H   1.0    0.11    0.99    1.43   111.98009    68.05835    35.92256
   231  H   1.0    0.11    0.99    1.43   112.94223    68.70313    39.06617
   232  H   1.0    0.24    1.00    1.43   116.44344    67.24170    36.52568
   233  H   1.0    0.24    1.00    1.43   115.81318    65.14063    38.81510
   234  H   1.0    0.24    1.00    1.43   114.92232    64.55520    35.83948
   235  N   5.0   -0.48    3.01    1.93   103.59907    70.26275    39.89998
   236  C   4.0    0.08    3.99    3.60   103.47543    72.91620    40.52075
   237  C   4.0    0.28    3.01    3.02   101.08297    73.69786    41.97352
   238  O   6.0   -0.41    1.00    1.80   100.95166    75.83476    42.85996
   239  C   4.0   -0.13    3.99    3.60   103.63920    74.52861    38.12768
   240  C   4.0   -0.11    3.98    3.59   106.24990    74.46724    36.88075
   241  C   4.0    0.28    3.00    3.02   106.13287    75.66371    34.27254
   242  O   6.0   -0.39    1.00    1.80   106.54486    74.46787    32.33319
   243  N   5.0   -0.64    3.00    1.93   105.58667    78.14250    34.25366
   244  H   1.0    0.30    1.00    1.43   103.61823    69.80502    38.04109
   245  H   1.0    0.13    0.99    1.43   105.05484    73.39417    41.78518
   246  H   1.0    0.15    0.99    1.43   102.22462    73.81536    36.80801
   247  H   1.0    0.13    0.99    1.43   103.12376    76.45773    38.63319
   248  H   1.0    0.11    0.99    1.43   107.62438    75.47575    38.03721
   249  H   1.0    0.14    0.99    1.43   106.85717    72.51681    36.62222
   250  H   1.0    0.27    1.00    1.43   105.14862    79.06184    35.85839
   251  H   1.0    0.30    1.00    1.43   105.30543    79.01501    32.58503
   252  N   5.0   -0.47    3.00    1.93    99.27498    71.96795    42.27562
   253  C   4.0    0.08    4.00    3.61    97.04652    72.46937    43.76365
   254  C   4.0    0.27    3.01    3.02    97.09679    71.14885    46.34990
   255  O   6.0   -0.43    1.00    1.80    95.19566    71.01952    47.65028
   256  C   4.0   -0.14    3.98    3.59    94.61932    71.87070    42.31856
   257  C   4.0   -0.13    3.98    3.58    94.28439    73.69783    40.10347
   258  C   4.0   -0.04    3.98    3.59    91.59606    73.73836    38.97785
   259  N   5.0   -0.48    3.02    1.93    90.37175    76.16697    39.35803
   260  C   4.0    0.37    3.00    3.02    89.22030    76.93750    41.46225
   261  N   5.0   -0.64    3.02    1.93    88.57800    79.35963    41.69907
   262  N   5.0   -0.65    3.02    1.93    88.62791    75.33003    43.29351
   263  H   1.0    0.31    1.00    1.43    99.31723    70.31047    41.31797
   264  H   1.0    0.15    0.99    1.43    97.09968    74.49951    44.21186
   265  H   1.0    0.13    0.99    1.43    94.73105    69.93007    41.63173
   266  H   1.0    0.12    0.99    1.43    93.08046    72.01018    43.67991
   267  H   1.0    0.14    0.99    1.43    94.75495    75.59942    40.74844
   268  H   1.0    0.14    0.99    1.43    95.65954    73.20102    38.65177
   269  H   1.0    0.11    0.99    1.43    91.66483    73.41436    36.94571
   270  H   1.0    0.10    0.99    1.43    90.44764    72.23365    39.78923
   271  H   1.0    0.24    1.00    1.43    90.88848    77.51216    38.10606
   272  H   1.0    0.27    1.00    1.43    89.00420    80.64226    40.35955
   273  H   1.0    0.27    1.00    1.43    87.59798    79.95826    43.21761
   274  H   1.0    0.25    1.00    1.43    89.06559    73.48123    43.17605
   275  H   1.0    0.26    1.00    1.43    87.70391    75.93723    44.84096
   276  N   5.0   -0.48    3.00    1.93    99.37162    70.35544    47.12945
   277  C   4.0    0.03    3.99    3.61    99.79843    69.48372    49.67152
   278  C   4.0    0.28    3.00    3.02   100.22743    66.64886    49.99357
   279  O   6.0   -0.44    1.00    1.80   100.58980    65.76508    52.09737
   280  H   1.0    0.31    1.00    1.43   100.86139    70.35140    45.92244
   281  H   1.0    0.13    0.99    1.43   101.44123    70.45304    50.46681
   282  H   1.0    0.14    0.99    1.43    98.11546    69.97865    50.76884
   283  N   5.0   -0.47    3.01    1.93   100.07089    65.27679    47.87845
   284  C   4.0    0.08    4.00    3.61   100.47353    62.56319    47.82164
   285  C   4.0    0.29    3.01    3.02   103.35498    62.15033    47.92349
   286  O   6.0   -0.43    1.00    1.80   104.71624    62.26098    46.06650
   287  C   4.0   -0.08    3.98    3.58    99.31429    61.37258    45.44640
   288  C   4.0   -0.15    3.98    3.58    96.48321    61.93858    45.15570
   289  C   4.0   -0.22    3.98    3.59    99.84345    58.53249    45.42761
   290  C   4.0   -0.23    3.98    3.58    94.82220    60.92053    47.27767
   291  H   1.0    0.27    1.00    1.43   100.07339    66.18474    46.19896
   292  H   1.0    0.14    0.99    1.43    99.60265    61.75332    49.51764
   293  H   1.0    0.12    0.99    1.43   100.27101    62.20869    43.80787
   294  H   1.0    0.13    0.99    1.43    96.21768    63.97897    44.99638
   295  H   1.0    0.09    0.99    1.43    95.86919    61.10954    43.36669
   296  H   1.0    0.09    0.99    1.43    98.85485    57.64685    43.86020
   297  H   1.0    0.12    0.99    1.43   101.85369    58.18619    45.18519
   298  H   1.0    0.12    0.99    1.43    99.24210    57.65060    47.18265
   299  H   1.0    0.09    0.99    1.43    92.84639    61.25004    46.82268
   300  H   1.0    0.10    0.99    1.43    95.09337    58.90266    47.52793
   301  H   1.0    0.12    0.99    1.43    95.24068    61.84983    49.05752
   302  N   5.0   -0.43    3.01    1.93   104.22096    61.82845    50.28875
   303  C   4.0    0.08    3.98    3.59   106.79715    61.20425    50.90929
   304  C   4.0    0.05    3.00    3.02   106.77197    58.59052    52.14403
   305  O   6.0   -0.43    1.00    1.80   104.76735    57.64612    52.82845
   306  C   4.0   -0.01    3.98    3.58   107.92813    63.19728    52.71428
   307  O   6.0   -0.44    1.99    1.82   108.27617    65.44320    51.34891
   308  H   1.0    0.26    1.00    1.43   102.96048    61.40232    51.65974
   309  H   1.0    0.15    0.99    1.43   107.88807    61.20205    49.15464
   310  H   1.0    0.12    0.99    1.43   106.60956    63.49238    54.29676
   311  H   1.0    0.10    0.99    1.43   109.74002    62.49917    53.45205
   312  H   1.0    0.26    0.99    1.43   109.22339    66.62678    52.36746
   313  N   5.0   -0.70    3.00    1.93   102.33266    58.05410    57.43305
   314  C   4.0    0.07    3.98    3.58    99.68957    58.48667    56.84669
   315  C   4.0    0.08    3.00    3.02    98.88504    56.82171    54.59888
   316  O   6.0   -0.45    1.00    1.80    98.19271    57.73031    52.57332
   317  C   4.0   -0.13    3.98    3.59    99.29239    61.29357    56.27849
   318  C   4.0   -0.16    3.98    3.59    99.63792    62.89053    58.65200
   319  C   4.0   -0.03    3.99    3.60    98.97015    65.65397    58.19817
   320  N   5.0   -0.47    3.02    1.93    99.12751    67.01244    60.56844
   321  C   4.0    0.37    3.01    3.02    98.80220    69.47758    60.87105
   322  N   5.0   -0.64    3.01    1.93    98.46366    71.02397    58.90765
   323  N   5.0   -0.64    3.02    1.93    98.97768    70.40505    63.20758
   324  H   1.0    0.33    1.00    1.43   103.48161    57.81591    55.91511
   325  H   1.0    0.11    0.99    1.43    98.56924    57.99978    58.53174
   326  H   1.0    0.14    0.99    1.43   100.58668    61.93895    54.80747
   327  H   1.0    0.11    0.99    1.43    97.38783    61.52698    55.54955
   328  H   1.0    0.11    0.99    1.43    98.44963    62.12486    60.16046
   329  H   1.0    0.11    0.99    1.43   101.59423    62.77645    59.29691
   330  H   1.0    0.14    0.99    1.43   100.28879    66.45004    56.82284
   331  H   1.0    0.11    0.99    1.43    97.05996    65.77724    57.41102
   332  H   1.0    0.23    1.00    1.43    99.00589    65.94463    62.17644
   333  H   1.0    0.27    1.00    1.43    98.42129    70.31026    57.14479
   334  H   1.0    0.27    1.00    1.43    98.29932    72.90243    59.18040
   335  H   1.0    0.26    1.00    1.43    98.85753    69.14847    64.65477
   336  H   1.0    0.27    1.00    1.43    98.56158    72.22138    63.57518
   337  N   5.0   -0.67    3.00    1.93    94.48378    51.25722    50.69414
   338  C   4.0    0.06    3.98    3.58    91.91344    51.32636    49.78083
   339  C   4.0    0.07    3.00    3.02    90.49435    48.89995    50.49083
   340  O   6.0   -0.37    1.00    1.80    91.52496    46.84446    50.66962
   341  C   4.0   -0.15    3.98    3.59    91.78310    51.88613    46.91601
   342  C   4.0   -0.09    3.97    3.58    93.58637    50.33258    45.24565
   343  C   4.0   -0.23    3.98    3.59    92.47579    49.95399    42.60475
   344  C   4.0   -0.23    3.98    3.59    96.14839    51.64640    44.95135
   345  H   1.0    0.28    1.00    1.43    95.63757    49.96995    49.89275
   346  H   1.0    0.11    0.99    1.43    91.01093    52.89410    50.78619
   347  H   1.0    0.09    0.99    1.43    89.83619    51.58734    46.30842
   348  H   1.0    0.09    0.99    1.43    92.21660    53.88246    46.64081
   349  H   1.0    0.14    0.99    1.43    93.83847    48.46287    46.08516
   350  H   1.0    0.10    0.99    1.43    93.83419    48.97244    41.41572
   351  H   1.0    0.10    0.99    1.43    90.75307    48.83601    42.65494
   352  H   1.0    0.09    0.99    1.43    92.04816    51.76560    41.73623
   353  H   1.0    0.11    0.99    1.43    97.42381    50.43870    43.88149
   354  H   1.0    0.09    0.99    1.43    95.89944    53.41382    43.92405
   355  H   1.0    0.10    0.99    1.43    97.00456    52.07130    46.76794
   356  H   1.0    0.31    1.00    1.43   108.58019    46.00226    22.03267
   357  H   1.0    0.14    1.00    1.43   103.41990    45.43602    29.15807
   358  H   1.0    0.31    1.00    1.43   111.40661    46.85033    33.32108
   359  H   1.0    0.16    1.00    1.43   106.98221    47.14017    37.88763
   360  H   1.0    0.30    1.00    1.43    77.80447    53.68383    44.14645
   361  H   1.0    0.13    1.00    1.43    82.16017    55.07712    49.95984
   362  H   1.0    0.29    1.00    1.43    86.15509    58.50408    53.12768
   363  H   1.0    0.13    1.00    1.43    90.20545    56.67447    59.22716
   364  H   1.0    0.29    1.00    1.43    78.62258    65.15679    47.53936
   365  H   1.0    0.12    1.00    1.43    80.88164    62.88607    41.33750
   366  H   1.0    0.30    1.00    1.43    87.56373    50.25570    30.65771
   367  H   1.0    0.12    1.00    1.43    85.70424    52.41280    23.56793
   368  H   1.0    0.29    1.00    1.43    93.02110    58.78177    18.96375
   369  H   1.0    0.13    1.00    1.43   108.39076    57.64834    52.39475
   370  H   1.0    0.30    1.00    1.43   102.94706    59.38304    58.29850
   371  H   1.0    0.14    1.00    1.43    98.91526    54.93903    54.75907
   372  H   1.0    0.29    1.00    1.43    95.22054    52.76738    50.43118
   373  H   1.0    0.13    1.00    1.43    88.63657    48.95735    50.83207

           ------------------------------------------------- 
          |        Self-Consistent Charge Iterations        |
           ------------------------------------------------- 

          ...................................................
          :                      SETUP                      :
          :.................................................:
          :  # basis functions                 880          :
          :  # atomic orbitals                 880          :
          :  # shells                          542          :
          :  # electrons                       964          :
          :  max. iterations                   250          :
          :  Hamiltonian                  GFN2-xTB          :
          :  restarted?                      false          :
          :  GBSA solvation                   true          :
          :  PC potential                    false          :
          :  electronic temp.          500.0000000     K    :
          :  accuracy                    0.1000000          :
          :  -> integral cutoff          0.3500000E+02      :
          :  -> integral neglect         0.1000000E-08      :
          :  -> SCF convergence          0.1000000E-06 Eh   :
          :  -> wf. convergence          0.1000000E-04 e    :
          :  Broyden damping             0.4000000          :
          ...................................................

 iter      E             dE          RMSdq      gap      omega  full diag
   1   -547.8460478 -0.547846E+03  0.413E+00    2.06       0.0  T
   2   -549.1098399 -0.126379E+01  0.214E+00    1.40       1.0  T
   3   -549.1655328 -0.556929E-01  0.117E+00    1.80       1.0  T
   4   -549.1991448 -0.336120E-01  0.273E-01    1.33       1.0  T
   5   -549.2122500 -0.131052E-01  0.115E-01    1.48       1.0  T
   6   -549.2128979 -0.647840E-03  0.519E-02    1.49       1.0  T
   7   -549.2129645 -0.666094E-04  0.247E-02    1.51       1.0  T
   8   -549.2130289 -0.644301E-04  0.100E-02    1.52       1.0  T
   9   -549.2130366 -0.772944E-05  0.471E-03    1.52       1.1  T
  10   -549.2130381 -0.147681E-05  0.203E-03    1.52       2.6  T
  11   -549.2130384 -0.244301E-06  0.719E-04    1.52       7.2  T
  12   -549.2130384 -0.397924E-07  0.322E-04    1.52      16.1  T
  13   -549.2130384 -0.910472E-08  0.153E-04    1.52      33.8  T
  14   -549.2130384 -0.118087E-08  0.642E-05    1.52      80.6  T
  15   -549.2130384 -0.427121E-09  0.274E-05    1.52     188.9  T

   *** convergence criteria satisfied after 15 iterations ***

         #    Occupation            Energy/Eh            Energy/eV
      -------------------------------------------------------------
         1        2.0000           -0.7425461             -20.2057
       ...           ...                  ...                  ...
       476        2.0000           -0.3684546             -10.0262
       477        2.0000           -0.3630302              -9.8786
       478        2.0000           -0.3611870              -9.8284
       479        2.0000           -0.3606059              -9.8126
       480        2.0000           -0.3601093              -9.7991
       481        2.0000           -0.3564451              -9.6994
       482        2.0000           -0.3558683              -9.6837 (HOMO)
       483                         -0.2998273              -8.1587 (LUMO)
       484                         -0.2890128              -7.8644
       485                         -0.2836322              -7.7180
       486                         -0.2799797              -7.6186
       487                         -0.2784644              -7.5774
       ...                                ...                  ...
       880                          0.6711967              18.2642
      -------------------------------------------------------------
                  HL-Gap            0.0560409 Eh            1.5250 eV
             Fermi-level           -0.3273575 Eh           -8.9079 eV

 SCC (total)                   0 d,  0 h,  0 min,  5.322 sec
 SCC setup                      ...        0 min,  0.069 sec (  1.302%)
 Dispersion                     ...        0 min,  0.047 sec (  0.878%)
 integral evaluation            ...        0 min,  0.202 sec (  3.787%)
 zeroth order Hamiltonian       ...        0 min,  0.015 sec (  0.275%)
 iterations                     ...        0 min,  4.211 sec ( 79.119%)
 molecular gradient             ...        0 min,  0.758 sec ( 14.241%)
 printout                       ...        0 min,  0.021 sec (  0.396%)

         :::::::::::::::::::::::::::::::::::::::::::::::::::::
         ::                     SUMMARY                     ::
         :::::::::::::::::::::::::::::::::::::::::::::::::::::
         :: total energy             -542.217280685120 Eh   ::
         :: total w/o Gsasa/hb       -542.134525491963 Eh   ::
         :: gradient norm               0.670706347852 Eh/α ::
         :: HOMO-LUMO gap               1.524951054226 eV   ::
         ::.................................................::
         :: SCC energy               -549.237141539961 Eh   ::
         :: -> isotropic ES             1.618520507394 Eh   ::
         :: -> anisotropic ES          -0.057932611521 Eh   ::
         :: -> anisotropic XC           0.213152567334 Eh   ::
         :: -> dispersion              -0.432425300745 Eh   ::
         :: -> Gsolv                   -0.496605636070 Eh   ::
         ::    -> Gborn                -0.413850442913 Eh   ::
         ::    -> Gsasa                -0.025960562933 Eh   ::
         ::    -> Ghb                  -0.058652073351 Eh   ::
         ::    -> Gshift                0.001857443127 Eh   ::
         :: repulsion energy            6.987121635413 Eh   ::
         :: add. restraining            0.000000000000 Eh   ::
         :::::::::::::::::::::::::::::::::::::::::::::::::::::

           -------------------------------------------------
          |                Property Printout                |
           -------------------------------------------------

    * Orbital Energies and Occupations

         #    Occupation            Energy/Eh            Energy/eV
      -------------------------------------------------------------
         1        2.0000           -0.7425461             -20.2057
       ...           ...                  ...                  ...
       470        2.0000           -0.3898019             -10.6070
       471        2.0000           -0.3868495             -10.5267
       472        2.0000           -0.3774685             -10.2714
       473        2.0000           -0.3757711             -10.2253
       474        2.0000           -0.3728989             -10.1471
       475        2.0000           -0.3721844             -10.1277
       476        2.0000           -0.3684546             -10.0262
       477        2.0000           -0.3630302              -9.8786
       478        2.0000           -0.3611870              -9.8284
       479        2.0000           -0.3606059              -9.8126
       480        2.0000           -0.3601093              -9.7991
       481        2.0000           -0.3564451              -9.6994
       482        2.0000           -0.3558683              -9.6837 (HOMO)
       483                         -0.2998273              -8.1587 (LUMO)
       484                         -0.2890128              -7.8644
       485                         -0.2836322              -7.7180
       486                         -0.2799797              -7.6186
       487                         -0.2784644              -7.5774
       488                         -0.2776433              -7.5551
       489                         -0.2758579              -7.5065
       490                         -0.2756820              -7.5017
       491                         -0.2738852              -7.4528
       492                         -0.2483923              -6.7591
       493                         -0.2366999              -6.4409
       ...                                ...                  ...
       880                          0.6711967              18.2642
      -------------------------------------------------------------
                  HL-Gap            0.0560409 Eh            1.5250 eV
             Fermi-level           -0.3273575 Eh           -8.9079 eV

   #   Z        covCN         q      C6AA      α(0)
   1   7 N      2.637    -0.398    30.330     8.179
   2   6 C      3.786     0.037    19.971     6.365
   3   6 C      2.762     0.267    22.492     7.767
   4   8 O      0.858    -0.498    23.747     6.533
   5   6 C      3.757    -0.121    22.870     6.819
   6   1 H      0.860     0.169     1.277     1.770
   7   1 H      0.923     0.028     2.609     2.526
   8   1 H      0.925     0.044     2.390     2.418
   9   1 H      0.925     0.058     2.228     2.334
  10   1 H      0.925     0.058     2.223     2.332
  11   7 N      2.689    -0.165    24.573     7.362
  12   6 C      3.801     0.021    20.229     6.403
  13   6 C      2.763     0.202    23.708     7.974
  14   8 O      0.856    -0.348    20.663     6.095
  15   6 C      3.851    -0.018    20.863     6.497
  16   6 C      3.755    -0.120    22.862     6.818
  17   6 C      3.756    -0.118    22.812     6.810
  18   1 H      0.860     0.214     1.036     1.595
  19   1 H      0.923     0.086     1.918     2.166
  20   1 H      0.924     0.055     2.257     2.349
  21   1 H      0.925     0.054     2.276     2.359
  22   1 H      0.925     0.048     2.339     2.392
  23   1 H      0.925     0.049     2.331     2.387
  24   1 H      0.925     0.060     2.198     2.318
  25   1 H      0.925     0.048     2.351     2.398
  26   1 H      0.925     0.048     2.341     2.393
  27   7 N      2.635    -0.396    30.249     8.168
  28   6 C      3.782     0.051    19.746     6.330
  29   6 C      2.765     0.205    23.640     7.963
  30   8 O      0.856    -0.384    21.363     6.197
  31   6 C      3.812    -0.068    21.789     6.644
  32   6 C      2.968     0.005    27.909     8.665
  33   6 C      2.924    -0.041    29.017     8.834
  34   6 C      2.925    -0.043    29.067     8.842
  35   6 C      2.920    -0.038    28.945     8.823
  36   6 C      2.919    -0.034    28.845     8.807
  37   6 C      2.919    -0.039    28.962     8.825
  38   1 H      0.860     0.175     1.244     1.747
  39   1 H      0.924     0.038     2.482     2.464
  40   1 H      0.924     0.054     2.276     2.359
  41   1 H      0.924     0.057     2.232     2.336
  42   1 H      0.926     0.033     2.546     2.495
  43   1 H      0.926     0.030     2.588     2.516
  44   1 H      0.926     0.052     2.297     2.370
  45   1 H      0.926     0.038     2.472     2.459
  46   1 H      0.926     0.048     2.348     2.396
  47   7 N      2.641    -0.393    30.173     8.158
  48   6 C      3.783     0.036    19.987     6.368
  49   6 C      2.773     0.202    23.694     7.972
  50   8 O      0.856    -0.363    20.959     6.138
  51   6 C      3.808    -0.074    21.901     6.662
  52   6 C      3.849    -0.010    20.729     6.476
  53   6 C      3.755    -0.115    22.762     6.803
  54   6 C      3.757    -0.116    22.769     6.803
  55   1 H      0.860     0.158     1.348     1.818
  56   1 H      0.924     0.050     2.326     2.385
  57   1 H      0.925     0.042     2.428     2.437
  58   1 H      0.924     0.062     2.176     2.307
  59   1 H      0.924     0.025     2.653     2.547
  60   1 H      0.925     0.045     2.381     2.413
  61   1 H      0.925     0.030     2.586     2.515
  62   1 H      0.925     0.039     2.462     2.454
  63   1 H      0.925     0.040     2.449     2.447
  64   1 H      0.925     0.037     2.493     2.469
  65   1 H      0.925     0.052     2.292     2.367
  66   7 N      2.638    -0.387    30.018     8.137
  67   6 C      3.785     0.035    19.994     6.369
  68   6 C      2.767     0.204    23.665     7.967
  69   8 O      0.856    -0.380    21.278     6.184
  70   6 C      3.850    -0.019    20.874     6.499
  71   6 C      3.752    -0.112    22.708     6.795
  72   6 C      3.755    -0.123    22.919     6.826
  73   1 H      0.860     0.162     1.325     1.803
  74   1 H      0.924     0.052     2.300     2.372
  75   1 H      0.924     0.046     2.372     2.408
  76   1 H      0.925     0.057     2.232     2.336
  77   1 H      0.925     0.035     2.519     2.482
  78   1 H      0.925     0.040     2.449     2.447
  79   1 H      0.925     0.060     2.194     2.316
  80   1 H      0.925     0.046     2.364     2.405
  81   1 H      0.925     0.042     2.424     2.435
  82   7 N      2.635    -0.386    29.983     8.132
  83   6 C      3.781     0.042    19.884     6.352
  84   6 C      2.766     0.201    23.716     7.975
  85   8 O      0.856    -0.357    20.837     6.120
  86   6 C      3.812    -0.073    21.885     6.659
  87   6 C      3.849    -0.014    20.793     6.486
  88   6 C      3.756    -0.126    22.982     6.835
  89   6 C      3.756    -0.122    22.890     6.822
  90   1 H      0.860     0.164     1.308     1.792
  91   1 H      0.924     0.034     2.525     2.485
  92   1 H      0.924     0.055     2.260     2.351
  93   1 H      0.924     0.052     2.293     2.368
  94   1 H      0.924     0.017     2.776     2.605
  95   1 H      0.925     0.050     2.316     2.380
  96   1 H      0.925     0.034     2.528     2.486
  97   1 H      0.925     0.058     2.223     2.332
  98   1 H      0.925     0.041     2.433     2.439
  99   1 H      0.925     0.058     2.225     2.333
 100   1 H      0.925     0.039     2.464     2.455
 101   7 N      2.638    -0.386    29.982     8.132
 102   6 C      3.784     0.041    19.909     6.356
 103   6 C      2.771     0.200    23.737     7.979
 104   8 O      0.856    -0.378    21.247     6.180
 105   6 C      3.815    -0.069    21.806     6.646
 106   6 C      2.972     0.011    27.770     8.644
 107   6 C      2.926    -0.042    29.047     8.838
 108   6 C      2.926    -0.042    29.049     8.839
 109   6 C      2.920    -0.032    28.810     8.802
 110   6 C      2.920    -0.034    28.854     8.809
 111   6 C      2.922    -0.033    28.816     8.803
 112   1 H      0.860     0.164     1.309     1.792
 113   1 H      0.924     0.063     2.165     2.301
 114   1 H      0.924     0.042     2.416     2.431
 115   1 H      0.925     0.052     2.291     2.367
 116   1 H      0.926     0.033     2.544     2.494
 117   1 H      0.926     0.033     2.540     2.492
 118   1 H      0.926     0.043     2.411     2.428
 119   1 H      0.926     0.043     2.414     2.429
 120   1 H      0.926     0.046     2.367     2.406
 121   7 N      2.634    -0.393    30.186     8.160
 122   6 C      3.790     0.027    20.125     6.389
 123   6 C      2.753     0.276    22.327     7.737
 124   8 O      0.859    -0.490    23.572     6.509
 125   6 C      3.853    -0.020    20.886     6.500
 126   6 C      3.757    -0.113    22.714     6.795
 127   6 C      3.756    -0.111    22.669     6.789
 128   1 H      0.860     0.159     1.342     1.815
 129   1 H      0.924     0.039     2.463     2.454
 130   1 H      0.924     0.041     2.432     2.439
 131   1 H      0.925     0.055     2.256     2.349
 132   1 H      0.925     0.022     2.697     2.568
 133   1 H      0.925     0.045     2.378     2.412
 134   1 H      0.925     0.052     2.298     2.370
 135   1 H      0.925     0.037     2.488     2.467
 136   1 H      0.925     0.041     2.436     2.441
 137   7 N      2.693    -0.186    25.025     7.430
 138   6 C      3.795     0.018    20.270     6.411
 139   6 C      2.761     0.270    22.438     7.757
 140   8 O      0.859    -0.499    23.768     6.536
 141   6 C      3.728     0.124    18.653     6.166
 142   8 O      1.655    -0.472    22.308     6.376
 143   6 C      3.753    -0.124    22.940     6.830
 144   1 H      0.860     0.221     1.007     1.572
 145   1 H      0.924     0.047     2.356     2.400
 146   1 H      0.923     0.012     2.854     2.642
 147   1 H      0.804     0.326     0.648     1.265
 148   1 H      0.925     0.063     2.161     2.299
 149   1 H      0.925     0.040     2.448     2.447
 150   1 H      0.925     0.071     2.070     2.250
 151   7 N      2.689    -0.166    24.591     7.365
 152   6 C      3.800     0.023    20.187     6.397
 153   6 C      2.763     0.278    22.305     7.734
 154   8 O      0.859    -0.509    23.979     6.565
 155   6 C      3.850    -0.017    20.838     6.493
 156   6 C      3.754    -0.113    22.715     6.796
 157   6 C      3.756    -0.116    22.780     6.805
 158   1 H      0.860     0.206     1.074     1.624
 159   1 H      0.923     0.076     2.018     2.222
 160   1 H      0.924     0.051     2.305     2.374
 161   1 H      0.925     0.060     2.194     2.317
 162   1 H      0.925     0.029     2.608     2.525
 163   1 H      0.925     0.039     2.466     2.456
 164   1 H      0.925     0.059     2.214     2.327
 165   1 H      0.925     0.052     2.290     2.366
 166   1 H      0.925     0.055     2.256     2.349
 167   7 N      2.687    -0.236    26.180     7.599
 168   6 C      3.809     0.042    19.869     6.345
 169   6 C      2.768     0.290    22.078     7.695
 170   8 O      0.859    -0.476    23.252     6.465
 171   6 C      3.806    -0.049    21.448     6.593
 172   6 C      3.797    -0.102    22.452     6.747
 173   6 C      2.684     0.371    20.716     7.449
 174   8 O      0.875    -0.606    26.247     6.869
 175   8 O      0.856    -0.619    26.597     6.914
 176   1 H      0.876     0.245     0.901     1.486
 177   1 H      0.923     0.069     2.101     2.267
 178   1 H      0.924     0.009     2.911     2.668
 179   1 H      0.924     0.059     2.208     2.324
 180   1 H      0.924     0.042     2.422     2.434
 181   1 H      0.924     0.053     2.278     2.361
 182   7 N      2.693    -0.200    25.351     7.478
 183   6 C      3.809     0.063    19.518     6.289
 184   6 C      2.759     0.275    22.353     7.742
 185   8 O      0.859    -0.489    23.553     6.507
 186   6 C      3.804    -0.100    22.402     6.738
 187   6 C      2.686     0.377    20.611     7.430
 188   8 O      0.856    -0.619    26.580     6.912
 189   8 O      0.856    -0.645    27.241     6.998
 190   1 H      0.860     0.197     1.120     1.658
 191   1 H      0.923     0.027     2.631     2.536
 192   1 H      0.925     0.037     2.493     2.469
 193   1 H      0.925     0.042     2.419     2.432
 194   7 N      2.693    -0.183    24.962     7.420
 195   6 C      3.798     0.027    20.115     6.386
 196   6 C      2.761     0.281    22.248     7.724
 197   8 O      0.859    -0.487    23.490     6.498
 198   6 C      3.812    -0.079    22.007     6.677
 199   6 C      3.850    -0.009    20.697     6.471
 200   6 C      3.755    -0.118    22.821     6.811
 201   6 C      3.757    -0.115    22.760     6.802
 202   1 H      0.860     0.207     1.073     1.623
 203   1 H      0.924     0.071     2.076     2.253
 204   1 H      0.924     0.047     2.357     2.401
 205   1 H      0.924     0.058     2.223     2.332
 206   1 H      0.924     0.031     2.568     2.506
 207   1 H      0.925     0.056     2.251     2.346
 208   1 H      0.925     0.042     2.425     2.435
 209   1 H      0.925     0.043     2.411     2.428
 210   1 H      0.925     0.054     2.271     2.356
 211   1 H      0.925     0.043     2.408     2.427
 212   1 H      0.925     0.037     2.485     2.465
 213   7 N      2.690    -0.180    24.904     7.412
 214   6 C      3.800     0.023    20.181     6.396
 215   6 C      2.753     0.276    22.324     7.737
 216   8 O      0.858    -0.490    23.570     6.509
 217   6 C      3.804    -0.080    22.023     6.681
 218   6 C      3.803    -0.081    22.039     6.684
 219   6 C      3.803    -0.093    22.262     6.717
 220   6 C      3.732    -0.048    21.526     6.623
 221   7 N      3.483    -0.149    24.219     7.309
 222   1 H      0.860     0.213     1.041     1.598
 223   1 H      0.923     0.081     1.966     2.193
 224   1 H      0.924     0.086     1.921     2.168
 225   1 H      0.924     0.065     2.137     2.286
 226   1 H      0.925     0.056     2.252     2.347
 227   1 H      0.924     0.049     2.328     2.386
 228   1 H      0.924     0.089     1.891     2.150
 229   1 H      0.924     0.069     2.097     2.265
 230   1 H      0.924     0.097     1.811     2.104
 231   1 H      0.924     0.125     1.575     1.962
 232   1 H      0.859     0.303     0.704     1.314
 233   1 H      0.859     0.308     0.690     1.301
 234   1 H      0.859     0.294     0.733     1.341
 235   7 N      2.689    -0.180    24.899     7.411
 236   6 C      3.793     0.023    20.203     6.401
 237   6 C      2.757     0.273    22.389     7.748
 238   8 O      0.859    -0.493    23.621     6.516
 239   6 C      3.810    -0.065    21.737     6.637
 240   6 C      3.806    -0.108    22.559     6.761
 241   6 C      2.745     0.293    22.038     7.687
 242   8 O      0.859    -0.529    24.440     6.628
 243   7 N      2.638    -0.292    27.524     7.792
 244   1 H      0.860     0.216     1.030     1.590
 245   1 H      0.923     0.085     1.929     2.172
 246   1 H      0.924     0.046     2.374     2.410
 247   1 H      0.925     0.069     2.098     2.265
 248   1 H      0.925     0.089     1.890     2.150
 249   1 H      0.925     0.079     1.986     2.204
 250   1 H      0.860     0.239     0.926     1.508
 251   1 H      0.860     0.216     1.026     1.587
 252   7 N      2.687    -0.171    24.704     7.382
 253   6 C      3.799     0.009    20.422     6.434
 254   6 C      2.754     0.266    22.503     7.768
 255   8 O      0.859    -0.466    23.054     6.438
 256   6 C      3.804    -0.080    22.029     6.682
 257   6 C      3.802    -0.084    22.096     6.692
 258   6 C      3.736    -0.024    21.082     6.552
 259   7 N      2.699    -0.146    24.159     7.300
 260   6 C      2.735     0.233    23.108     7.870
 261   7 N      2.654    -0.257    26.668     7.670
 262   7 N      2.651    -0.228    25.979     7.570
 263   1 H      0.860     0.207     1.069     1.620
 264   1 H      0.923     0.098     1.806     2.101
 265   1 H      0.924     0.061     2.193     2.316
 266   1 H      0.925     0.090     1.882     2.145
 267   1 H      0.924     0.065     2.138     2.286
 268   1 H      0.924     0.051     2.307     2.375
 269   1 H      0.925     0.076     2.019     2.222
 270   1 H      0.925     0.087     1.913     2.163
 271   1 H      0.860     0.225     0.986     1.555
 272   1 H      0.860     0.245     0.903     1.489
 273   1 H      0.860     0.261     0.842     1.438
 274   1 H      0.860     0.234     0.946     1.524
 275   1 H      0.860     0.257     0.858     1.451
 276   7 N      2.685    -0.182    24.937     7.417
 277   6 C      3.747    -0.043    21.405     6.599
 278   6 C      2.749     0.268    22.473     7.762
 279   8 O      0.858    -0.468    23.086     6.442
 280   1 H      0.860     0.206     1.077     1.626
 281   1 H      0.924     0.098     1.799     2.098
 282   1 H      0.924     0.118     1.631     1.997
 283   7 N      2.692    -0.163    24.522     7.355
 284   6 C      3.798     0.014    20.352     6.423
 285   6 C      2.754     0.274    22.364     7.744
 286   8 O      0.858    -0.474    23.219     6.460
 287   6 C      3.852    -0.013    20.772     6.482
 288   6 C      3.801    -0.062    21.690     6.631
 289   6 C      3.755    -0.112    22.698     6.793
 290   6 C      3.751    -0.113    22.727     6.799
 291   1 H      0.860     0.192     1.145     1.676
 292   1 H      0.924     0.082     1.958     2.188
 293   1 H      0.924     0.030     2.588     2.516
 294   1 H      0.924     0.036     2.504     2.475
 295   1 H      0.924     0.040     2.445     2.445
 296   1 H      0.925     0.048     2.341     2.393
 297   1 H      0.925     0.033     2.545     2.495
 298   1 H      0.925     0.052     2.299     2.371
 299   1 H      0.925     0.043     2.403     2.424
 300   1 H      0.925     0.046     2.373     2.409
 301   1 H      0.925     0.045     2.378     2.411
 302   7 N      2.695    -0.161    24.477     7.348
 303   6 C      3.788     0.019    20.263     6.411
 304   6 C      2.769     0.185    24.038     8.030
 305   8 O      0.856    -0.356    20.822     6.118
 306   6 C      3.675     0.077    19.509     6.329
 307   8 O      1.656    -0.478    22.422     6.392
 308   1 H      0.860     0.212     1.046     1.602
 309   1 H      0.924     0.113     1.673     2.023
 310   1 H      0.923     0.056     2.244     2.343
 311   1 H      0.923     0.051     2.309     2.376
 312   1 H      0.805     0.356     0.573     1.189
 313   7 N      2.636    -0.393    30.187     8.160
 314   6 C      3.782     0.032    20.063     6.381
 315   6 C      2.764     0.198    23.774     7.985
 316   8 O      0.856    -0.368    21.047     6.151
 317   6 C      3.808    -0.080    22.024     6.681
 318   6 C      3.806    -0.079    22.001     6.677
 319   6 C      3.740    -0.026    21.119     6.557
 320   7 N      2.705    -0.138    23.999     7.276
 321   6 C      2.737     0.230    23.171     7.881
 322   7 N      2.647    -0.245    26.382     7.628
 323   7 N      2.655    -0.264    26.835     7.694
 324   1 H      0.860     0.170     1.271     1.766
 325   1 H      0.923     0.073     2.048     2.238
 326   1 H      0.924     0.057     2.239     2.340
 327   1 H      0.925     0.058     2.222     2.331
 328   1 H      0.924     0.060     2.194     2.316
 329   1 H      0.924     0.059     2.207     2.323
 330   1 H      0.924     0.098     1.808     2.103
 331   1 H      0.924     0.075     2.029     2.227
 332   1 H      0.859     0.230     0.966     1.539
 333   1 H      0.860     0.242     0.915     1.499
 334   1 H      0.860     0.256     0.860     1.453
 335   1 H      0.860     0.245     0.902     1.487
 336   1 H      0.860     0.253     0.873     1.464
 337   7 N      2.634    -0.377    29.747     8.100
 338   6 C      3.780     0.037    19.980     6.368
 339   6 C      2.763     0.201    23.731     7.978
 340   8 O      0.856    -0.378    21.249     6.180
 341   6 C      3.804    -0.076    21.945     6.669
 342   6 C      3.848    -0.006    20.660     6.465
 343   6 C      3.758    -0.110    22.655     6.786
 344   6 C      3.757    -0.112    22.693     6.792
 345   1 H      0.860     0.159     1.341     1.814
 346   1 H      0.924     0.062     2.173     2.305
 347   1 H      0.924     0.045     2.382     2.414
 348   1 H      0.924     0.059     2.210     2.325
 349   1 H      0.924     0.026     2.641     2.541
 350   1 H      0.925     0.039     2.468     2.457
 351   1 H      0.925     0.030     2.589     2.516
 352   1 H      0.925     0.042     2.429     2.437
 353   1 H      0.925     0.034     2.533     2.489
 354   1 H      0.925     0.043     2.413     2.429
 355   1 H      0.925     0.042     2.423     2.434
 356   1 H      0.862     0.178     1.224     1.733
 357   1 H      0.930     0.074     2.040     2.233
 358   1 H      0.862     0.173     1.252     1.753
 359   1 H      0.930     0.071     2.072     2.251
 360   1 H      0.862     0.184     1.188     1.708
 361   1 H      0.930     0.065     2.136     2.286
 362   1 H      0.862     0.177     1.229     1.737
 363   1 H      0.930     0.067     2.122     2.278
 364   1 H      0.862     0.181     1.210     1.723
 365   1 H      0.930     0.057     2.239     2.340
 366   1 H      0.862     0.184     1.192     1.710
 367   1 H      0.930     0.061     2.191     2.315
 368   1 H      0.862     0.192     1.145     1.676
 369   1 H      0.930     0.088     1.903     2.157
 370   1 H      0.862     0.194     1.138     1.671
 371   1 H      0.930     0.070     2.087     2.259
 372   1 H      0.862     0.180     1.216     1.727
 373   1 H      0.930     0.064     2.152     2.294

 Mol. C6AA /au·bohr⁶  :    1205319.859162
 Mol. C8AA /au·bohr⁸  :   26453586.848643
 Mol. α(0) /au        :       1645.645621


Wiberg/Mayer (AO) data.
largest (>0.10) Wiberg bond orders for each atom
          total WBO             WBO to atom ...
     1  N   2.988        C    2 1.012    H  356 0.958    H    6 0.952
     2  C   3.984        N    1 1.012    C    5 0.995    H    7 0.964    C    3 0.939
     3  C   3.944        O    4 1.621    N   11 1.303    C    2 0.939
     4  O   1.954        C    3 1.621    N   11 0.194
     5  C   3.992        C    2 0.995    H    8 0.985    H   10 0.983    H    9 0.982
     6  H   0.971        N    1 0.952
     7  H   0.999        C    2 0.964
     8  H   0.998        C    5 0.985
     9  H   0.996        C    5 0.982
    10  H   0.997        C    5 0.983
    11  N   3.477        C    3 1.303    C   12 0.980    H   18 0.918    O    4 0.194
    12  C   3.960        N   11 0.980    C   13 0.971    C   15 0.952    H   19 0.939
    13  C   3.904        O   14 1.908    C   12 0.971    H  357 0.954
    14  O   2.053        C   13 1.908
    15  C   3.986        C   16 1.010    C   17 1.008    H   20 0.962    C   12 0.952
    16  C   3.993        C   15 1.010    H   23 0.985    H   21 0.982    H   22 0.982
    17  C   3.991        C   15 1.008    H   25 0.985    H   26 0.983    H   24 0.981
    18  H   0.954        N   11 0.918
    19  H   0.993        C   12 0.939
    20  H   0.997        C   15 0.962
    21  H   0.997        C   16 0.982
    22  H   0.998        C   16 0.982
    23  H   0.998        C   16 0.985
    24  H   0.996        C   17 0.981
    25  H   0.998        C   17 0.985
    26  H   0.998        C   17 0.983
    27  N   2.996        C   28 1.014    H  358 0.958    H   38 0.929
    28  C   3.986        N   27 1.014    C   29 0.974    H   39 0.959    C   31 0.950
    29  C   3.888        O   30 1.891    C   28 0.974    H  359 0.954
    30  O   2.027        C   29 1.891
    31  C   3.990        C   32 1.008    H   41 0.967    H   40 0.961    C   28 0.950
    32  C   3.988        C   34 1.416    C   33 1.411    C   31 1.008    C   37 0.110
    33  C   3.991        C   35 1.448    C   32 1.411    H   42 0.969    C   36 0.112
    34  C   3.991        C   36 1.443    C   32 1.416    H   43 0.968    C   35 0.110
    35  C   3.991        C   33 1.448    C   37 1.436    H   44 0.969    C   34 0.110
    36  C   3.992        C   34 1.443    C   37 1.440    H   45 0.970    C   33 0.112
    37  C   3.991        C   36 1.440    C   35 1.436    H   46 0.969    C   32 0.110
    38  H   0.969        N   27 0.929
    39  H   0.998        C   28 0.959
    40  H   0.997        C   31 0.961
    41  H   0.996        C   31 0.967
    42  H   0.999        C   33 0.969
    43  H   0.999        C   34 0.968
    44  H   0.997        C   35 0.969
    45  H   0.998        C   36 0.970
    46  H   0.997        C   37 0.969
    47  N   2.988        C   48 0.999    H   55 0.956    H  360 0.950
    48  C   3.981        N   47 0.999    C   49 0.979    C   51 0.963    H   56 0.957
    49  C   3.897        O   50 1.903    C   48 0.979    H  361 0.956
    50  O   2.046        C   49 1.903
    51  C   3.990        C   52 0.994    H   57 0.970    C   48 0.963    H   58 0.961
    52  C   3.996        C   53 1.010    C   54 1.008    C   51 0.994    H   59 0.969
    53  C   3.995        C   52 1.010    H   62 0.986    H   61 0.982    H   60 0.976
    54  C   3.995        C   52 1.008    H   64 0.987    H   63 0.985    H   65 0.982
    55  H   0.975        N   47 0.956
    56  H   0.997        C   48 0.957
    57  H   0.998        C   51 0.970
    58  H   0.996        C   51 0.961
    59  H   0.999        C   52 0.969
    60  H   0.998        C   53 0.976
    61  H   0.999        C   53 0.982
    62  H   0.998        C   53 0.986
    63  H   0.998        C   54 0.985
    64  H   0.999        C   54 0.987
    65  H   0.997        C   54 0.982
    66  N   2.995        C   67 1.016    H   73 0.954    H  362 0.954
    67  C   3.983        N   66 1.016    C   68 0.990    H   74 0.957    C   70 0.933
    68  C   3.897        O   69 1.886    C   67 0.990    H  363 0.956
    69  O   2.032        C   68 1.886
    70  C   3.991        C   71 1.011    C   72 1.007    H   75 0.964    C   67 0.933
    71  C   3.995        C   70 1.011    H   77 0.986    H   78 0.984    H   76 0.982
    72  C   3.994        C   70 1.007    H   80 0.986    H   79 0.983    H   81 0.982
    73  H   0.974        N   66 0.954
    74  H   0.997        C   67 0.957
    75  H   0.998        C   70 0.964
    76  H   0.997        C   71 0.982
    77  H   0.999        C   71 0.986
    78  H   0.998        C   71 0.984
    79  H   0.996        C   72 0.983
    80  H   0.998        C   72 0.986
    81  H   0.998        C   72 0.982
    82  N   2.998        C   83 1.005    H  364 0.956    H   90 0.955
    83  C   3.984        N   82 1.005    C   86 0.971    H   91 0.967    C   84 0.963
    84  C   3.894        O   85 1.903    C   83 0.963    H  365 0.956
    85  O   2.054        C   84 1.903
    86  C   3.990        C   87 0.993    H   93 0.972    H   92 0.971    C   83 0.971
    87  C   3.995        C   88 1.010    C   89 1.008    C   86 0.993    H   94 0.967
    88  C   3.994        C   87 1.010    H   95 0.985    H   97 0.984    H   96 0.983
    89  C   3.994        C   87 1.008    H  100 0.986    H   99 0.984    H   98 0.979
    90  H   0.973        N   82 0.955
    91  H   0.999        C   83 0.967
    92  H   0.997        C   86 0.971
    93  H   0.997        C   86 0.972
    94  H   1.000        C   87 0.967
    95  H   0.997        C   88 0.985
    96  H   0.999        C   88 0.983
    97  H   0.996        C   88 0.984
    98  H   0.998        C   89 0.979
    99  H   0.997        C   89 0.984
   100  H   0.998        C   89 0.986
   101  N   3.001        C  102 1.028    H  112 0.952    H  366 0.948
   102  C   3.987        N  101 1.028    C  103 0.988    H  113 0.949    C  105 0.927
   103  C   3.900        O  104 1.883    C  102 0.988    H  367 0.956
   104  O   2.038        C  103 1.883
   105  C   3.992        C  106 1.008    H  114 0.974    H  115 0.959    C  102 0.927
   106  C   3.988        C  108 1.414    C  107 1.405    C  105 1.008    C  111 0.108
   107  C   3.991        C  109 1.452    C  106 1.405    H  116 0.969    C  110 0.112
   108  C   3.992        C  110 1.439    C  106 1.414    H  117 0.968    C  109 0.110
   109  C   3.991        C  107 1.452    C  111 1.433    H  118 0.969    C  108 0.110
   110  C   3.991        C  111 1.443    C  108 1.439    H  119 0.970    C  107 0.112
   111  C   3.989        C  110 1.443    C  109 1.433    H  120 0.968    C  106 0.108
   112  H   0.973        N  101 0.952
   113  H   0.996        C  102 0.949
   114  H   0.998        C  105 0.974
   115  H   0.997        C  105 0.959
   116  H   0.999        C  107 0.969
   117  H   0.999        C  108 0.968
   118  H   0.998        C  109 0.969
   119  H   0.998        C  110 0.970
   120  H   0.997        C  111 0.968
   121  N   2.997        C  122 1.013    H  128 0.957    H  368 0.950
   122  C   3.983        N  121 1.013    H  129 0.964    C  125 0.961    C  123 0.935
   123  C   3.933        O  124 1.647    N  137 1.278    C  122 0.935
   124  O   1.959        C  123 1.647    N  137 0.191
   125  C   3.993        C  127 1.009    C  126 1.008    H  130 0.966    C  122 0.961
   126  C   3.995        C  125 1.008    H  132 0.986    H  133 0.984    H  131 0.983
   127  C   3.994        C  125 1.009    H  136 0.983    H  135 0.981    H  134 0.981
   128  H   0.975        N  121 0.957
   129  H   0.998        C  122 0.964
   130  H   0.998        C  125 0.966
   131  H   0.997        C  126 0.983
   132  H   0.999        C  126 0.986
   133  H   0.998        C  126 0.984
   134  H   0.997        C  127 0.981
   135  H   0.999        C  127 0.981
   136  H   0.998        C  127 0.983
   137  N   3.454        C  123 1.278    C  138 0.981    H  144 0.911    O  124 0.191
   138  C   3.973        N  137 0.981    C  141 0.964    H  145 0.956    C  139 0.934
   139  C   3.950        O  140 1.579    N  151 1.347    C  138 0.934
   140  O   1.951        C  139 1.579    N  151 0.196
   141  C   3.960        C  143 1.005    O  142 0.996    C  138 0.964    H  146 0.953
   142  O   1.946        C  141 0.996    H  147 0.852
   143  C   3.990        C  141 1.005    H  149 0.986    H  148 0.983    H  150 0.982
   144  H   0.951        N  137 0.911
   145  H   0.998        C  138 0.956
   146  H   0.999        C  141 0.953
   147  H   0.894        O  142 0.852
   148  H   0.996        C  143 0.983
   149  H   0.998        C  143 0.986
   150  H   0.995        C  143 0.982
   151  N   3.503        C  139 1.347    C  152 0.967    H  158 0.918    O  140 0.196
   152  C   3.948        N  151 0.967    C  155 0.965    H  159 0.946    C  153 0.934
   153  C   3.952        O  154 1.573    N  167 1.359    C  152 0.934
   154  O   1.920        C  153 1.573    N  167 0.201
   155  C   3.987        C  156 1.011    C  157 1.007    C  152 0.965    H  160 0.964
   156  C   3.994        C  155 1.011    H  163 0.985    H  161 0.983    H  162 0.982
   157  C   3.990        C  155 1.007    H  165 0.985    H  164 0.983    H  166 0.982
   158  H   0.957        N  151 0.918
   159  H   0.994        C  152 0.946
   160  H   0.997        C  155 0.964
   161  H   0.996        C  156 0.983
   162  H   0.999        C  156 0.982
   163  H   0.998        C  156 0.985
   164  H   0.996        C  157 0.983
   165  H   0.997        C  157 0.985
   166  H   0.997        C  157 0.982
   167  N   3.459        C  153 1.359    C  168 0.980    H  176 0.770    O  154 0.201
   168  C   3.973        C  171 0.986    N  167 0.980    H  177 0.952    C  169 0.940
   169  C   3.942        O  170 1.599    N  182 1.310    C  168 0.940
   170  O   1.955        C  169 1.599    N  182 0.183
   171  C   3.991        C  172 0.998    C  168 0.986    H  178 0.972    H  179 0.970
   172  C   3.993        C  171 0.998    H  180 0.980    H  181 0.966    C  173 0.927
   173  C   3.924        O  175 1.549    O  174 1.426    C  172 0.927
   174  O   1.908        C  173 1.426    O  175 0.202    H  176 0.140
   175  O   1.832        C  173 1.549    O  174 0.202
   176  H   0.940        N  167 0.770    O  174 0.140
   177  H   0.995        C  168 0.952
   178  H   1.000        C  171 0.972
   179  H   0.996        C  171 0.970
   180  H   0.998        C  172 0.980
   181  H   0.997        C  172 0.966
   182  N   3.459        C  169 1.310    C  183 0.978    H  190 0.885    O  170 0.183
   183  C   3.967        N  182 0.978    C  186 0.975    H  191 0.947    C  184 0.937
   184  C   3.957        O  185 1.601    N  194 1.328    C  183 0.937
   185  O   1.935        C  184 1.601    N  194 0.198
   186  C   3.987        H  193 0.979    C  183 0.975    H  192 0.967    C  187 0.910
   187  C   3.932        O  188 1.533    O  189 1.460    C  186 0.910
   188  O   1.825        C  187 1.533    O  189 0.212
   189  O   1.821        C  187 1.460    O  188 0.212
   190  H   0.961        N  182 0.885
   191  H   0.999        C  183 0.947
   192  H   0.998        C  186 0.967
   193  H   0.998        C  186 0.979
   194  N   3.479        C  184 1.328    C  195 0.962    H  202 0.902    O  185 0.198
   195  C   3.952        C  198 0.983    N  194 0.962    H  203 0.951    C  196 0.937
   196  C   3.951        O  197 1.605    N  213 1.322    C  195 0.937
   197  O   1.944        C  196 1.605    N  213 0.193
   198  C   3.984        C  199 0.992    C  195 0.983    H  204 0.970    H  205 0.961
   199  C   3.992        C  200 1.009    C  201 1.008    C  198 0.992    H  206 0.966
   200  C   3.994        C  199 1.009    H  209 0.985    H  208 0.985    H  207 0.983
   201  C   3.994        C  199 1.008    H  211 0.985    H  212 0.985    H  210 0.983
   202  H   0.957        N  194 0.902
   203  H   0.994        C  195 0.951
   204  H   0.998        C  198 0.970
   205  H   0.997        C  198 0.961
   206  H   0.999        C  199 0.966
   207  H   0.997        C  200 0.983
   208  H   0.998        C  200 0.985
   209  H   0.998        C  200 0.985
   210  H   0.997        C  201 0.983
   211  H   0.998        C  201 0.985
   212  H   0.999        C  201 0.985
   213  N   3.483        C  196 1.322    C  214 0.973    H  222 0.909    O  197 0.193
   214  C   3.955        C  217 0.976    N  213 0.973    C  215 0.939    H  223 0.936
   215  C   3.948        O  216 1.599    N  235 1.315    C  214 0.939
   216  O   1.944        C  215 1.599    N  235 0.193
   217  C   3.982        C  218 1.008    C  214 0.976    H  224 0.968    H  225 0.968
   218  C   3.992        C  217 1.008    C  219 1.002    H  227 0.975    H  226 0.966
   219  C   3.986        C  220 1.011    C  218 1.002    H  229 0.972    H  228 0.969
   220  C   3.917        C  219 1.011    H  230 0.968    H  231 0.962    N  221 0.958
   221  N   3.663        C  220 0.958    H  234 0.899    H  232 0.895    H  233 0.891
   222  H   0.954        N  213 0.909
   223  H   0.993        C  214 0.936
   224  H   0.992        C  217 0.968
   225  H   0.995        C  217 0.968
   226  H   0.997        C  218 0.966
   227  H   0.998        C  218 0.975
   228  H   0.992        C  219 0.969
   229  H   0.995        C  219 0.972
   230  H   0.991        C  220 0.968
   231  H   0.984        C  220 0.962
   232  H   0.908        N  221 0.895
   233  H   0.905        N  221 0.891
   234  H   0.914        N  221 0.899
   235  N   3.485        C  215 1.315    C  236 0.988    H  244 0.896    O  216 0.193
   236  C   3.967        N  235 0.988    C  239 0.983    H  245 0.939    C  237 0.932
   237  C   3.955        O  238 1.619    N  252 1.318    C  236 0.932
   238  O   1.940        C  237 1.619    N  252 0.198
   239  C   3.989        C  240 0.991    C  236 0.983    H  247 0.968    H  246 0.963
   240  C   3.989        C  239 0.991    H  249 0.968    C  241 0.967    H  248 0.959
   241  C   3.932        O  242 1.635    N  243 1.301    C  240 0.967
   242  O   1.934        C  241 1.635    N  243 0.195
   243  N   3.386        C  241 1.301    H  251 0.932    H  250 0.923    O  242 0.195
   244  H   0.953        N  235 0.896
   245  H   0.992        C  236 0.939
   246  H   0.998        C  239 0.963
   247  H   0.995        C  239 0.968
   248  H   0.992        C  240 0.959
   249  H   0.994        C  240 0.968
   250  H   0.943        N  243 0.923
   251  H   0.953        N  243 0.932
   252  N   3.489        C  237 1.318    C  253 0.980    H  263 0.899    O  238 0.198
   253  C   3.955        C  256 0.984    N  252 0.980    C  254 0.934    H  264 0.928
   254  C   3.955        O  255 1.641    N  276 1.296    C  253 0.934
   255  O   1.963        C  254 1.641    N  276 0.196
   256  C   3.985        C  257 1.007    C  253 0.984    H  265 0.973    H  266 0.961
   257  C   3.989        C  256 1.007    C  258 0.989    H  268 0.976    H  267 0.971
   258  C   3.958        N  259 0.990    C  257 0.989    H  269 0.972    H  270 0.957
   259  N   3.458        C  260 1.298    C  258 0.990    H  271 0.920
   260  C   3.977        N  262 1.333    N  261 1.316    N  259 1.298
   261  N   3.391        C  260 1.316    H  272 0.921    H  273 0.912    N  262 0.105
   262  N   3.413        C  260 1.333    H  275 0.915    H  274 0.911    N  261 0.105
   263  H   0.957        N  252 0.899
   264  H   0.990        C  253 0.928
   265  H   0.996        C  256 0.973
   266  H   0.991        C  256 0.961
   267  H   0.996        C  257 0.971
   268  H   0.997        C  257 0.976
   269  H   0.994        C  258 0.972
   270  H   0.992        C  258 0.957
   271  H   0.949        N  259 0.920
   272  H   0.940        N  261 0.921
   273  H   0.932        N  261 0.912
   274  H   0.945        N  262 0.911
   275  H   0.934        N  262 0.915
   276  N   3.473        C  254 1.296    C  277 0.999    H  280 0.896    O  255 0.196
   277  C   3.957        N  276 0.999    C  278 0.953    H  281 0.947    H  282 0.942
   278  C   3.953        O  279 1.631    N  283 1.297    C  277 0.953
   279  O   1.953        C  278 1.631    N  283 0.192
   280  H   0.958        N  276 0.896
   281  H   0.990        C  277 0.947
   282  H   0.985        C  277 0.942
   283  N   3.479        C  278 1.297    C  284 0.972    H  291 0.921    O  279 0.192
   284  C   3.961        C  287 0.979    N  283 0.972    H  292 0.950    C  285 0.922
   285  C   3.946        O  286 1.657    N  302 1.286    C  284 0.922
   286  O   1.977        C  285 1.657    N  302 0.196
   287  C   3.990        C  289 1.007    C  288 0.993    C  284 0.979    H  293 0.955
   288  C   3.994        C  290 1.020    C  287 0.993    H  294 0.976    H  295 0.974
   289  C   3.994        C  287 1.007    H  297 0.985    H  296 0.984    H  298 0.983
   290  C   3.995        C  288 1.020    H  299 0.986    H  301 0.986    H  300 0.985
   291  H   0.963        N  283 0.921
   292  H   0.993        C  284 0.950
   293  H   0.999        C  287 0.955
   294  H   0.999        C  288 0.976
   295  H   0.998        C  288 0.974
   296  H   0.997        C  289 0.984
   297  H   0.999        C  289 0.985
   298  H   0.997        C  289 0.983
   299  H   0.998        C  290 0.986
   300  H   0.998        C  290 0.985
   301  H   0.998        C  290 0.986
   302  N   3.466        C  285 1.286    C  303 0.997    H  308 0.908    O  286 0.196
   303  C   3.971        N  302 0.997    C  304 0.986    C  306 0.948    H  309 0.929
   304  C   3.904        O  305 1.860    C  303 0.986    H  369 0.952
   305  O   2.063        C  304 1.860
   306  C   3.958        O  307 1.010    H  311 0.967    H  310 0.965    C  303 0.948
   307  O   1.926        C  306 1.010    H  312 0.858
   308  H   0.955        N  302 0.908
   309  H   0.986        C  303 0.929
   310  H   0.997        C  306 0.965
   311  H   0.997        C  306 0.967
   312  H   0.872        O  307 0.858
   313  N   2.995        C  314 1.004    H  370 0.940    H  324 0.914
   314  C   3.982        N  313 1.004    C  317 0.988    C  315 0.977    H  325 0.934
   315  C   3.889        O  316 1.903    C  314 0.977    H  371 0.956
   316  O   2.036        C  315 1.903
   317  C   3.991        C  318 1.007    C  314 0.988    H  327 0.967    H  326 0.965
   318  C   3.992        C  317 1.007    C  319 1.007    H  328 0.970    H  329 0.969
   319  C   3.953        C  318 1.007    N  320 0.983    H  331 0.958    H  330 0.957
   320  N   3.471        C  321 1.322    C  319 0.983    H  332 0.909    N  322 0.103
   321  C   3.977        N  322 1.322    N  320 1.322    N  323 1.301
   322  N   3.403        C  321 1.322    H  333 0.919    H  334 0.916    N  320 0.103
   323  N   3.371        C  321 1.301    H  335 0.917    H  336 0.917
   324  H   0.971        N  313 0.914
   325  H   0.992        C  314 0.934
   326  H   0.997        C  317 0.965
   327  H   0.997        C  317 0.967
   328  H   0.996        C  318 0.970
   329  H   0.996        C  318 0.969
   330  H   0.990        C  319 0.957
   331  H   0.994        C  319 0.958
   332  H   0.947        N  320 0.909
   333  H   0.941        N  322 0.919
   334  H   0.934        N  322 0.916
   335  H   0.940        N  323 0.917
   336  H   0.936        N  323 0.917
   337  N   3.003        C  338 1.025    H  345 0.952    H  372 0.951
   338  C   3.986        N  337 1.025    C  339 0.984    H  346 0.952    C  341 0.946
   339  C   3.896        O  340 1.894    C  338 0.984    H  373 0.956
   340  O   2.036        C  339 1.894
   341  C   3.992        C  342 0.996    H  348 0.971    H  347 0.970    C  338 0.946
   342  C   3.996        C  344 1.009    C  343 1.007    C  341 0.996    H  349 0.968
   343  C   3.996        C  342 1.007    H  352 0.985    H  350 0.985    H  351 0.983
   344  C   3.995        C  342 1.009    H  353 0.987    H  354 0.985    H  355 0.978
   345  H   0.975        N  337 0.952
   346  H   0.996        C  338 0.952
   347  H   0.998        C  341 0.970
   348  H   0.997        C  341 0.971
   349  H   0.999        C  342 0.968
   350  H   0.998        C  343 0.985
   351  H   0.999        C  343 0.983
   352  H   0.998        C  343 0.985
   353  H   0.999        C  344 0.987
   354  H   0.998        C  344 0.985
   355  H   0.998        C  344 0.978
   356  H   0.968        N    1 0.958
   357  H   0.994        C   13 0.954
   358  H   0.970        N   27 0.958
   359  H   0.995        C   29 0.954
   360  H   0.966        N   47 0.950
   361  H   0.996        C   49 0.956
   362  H   0.969        N   66 0.954
   363  H   0.996        C   68 0.956
   364  H   0.967        N   82 0.956
   365  H   0.997        C   84 0.956
   366  H   0.966        N  101 0.948
   367  H   0.996        C  103 0.956
   368  H   0.963        N  121 0.950
   369  H   0.992        C  304 0.952
   370  H   0.962        N  313 0.940
   371  H   0.995        C  315 0.956
   372  H   0.968        N  337 0.951
   373  H   0.996        C  339 0.956
 
molecular dipole:
                 x           y           z       tot (Debye)
 q only:       96.554      73.532      77.472
   full:       97.872      74.345      73.199     363.614
molecular quadrupole (traceless):
                xx          xy          yy          xz          yz          zz
 q only:     4530.703   10475.260   -1793.719   11555.830    8509.372   -2736.984
  q+dip:     4907.078   10695.650   -1672.299   10981.437    8180.915   -3234.779
   full:     4911.536   10697.523   -1672.825   10980.480    8178.325   -3238.711


           -------------------------------------------------
          | TOTAL ENERGY             -542.217280685120 Eh   |
          | GRADIENT NORM               0.670706347852 Eh/α |
          | HOMO-LUMO GAP               1.524951054226 eV   |
           -------------------------------------------------

------------------------------------------------------------------------
 * finished run on 2019/05/31 at 06:33:13.689     
------------------------------------------------------------------------
 total:
 * wall-time:     0 d,  0 h,  0 min,  5.722 sec
 *  cpu-time:     0 d,  0 h,  0 min, 11.232 sec
 * ratio c/w:     1.963 speedup
 SCF:
 * wall-time:     0 d,  0 h,  0 min,  5.324 sec
 *  cpu-time:     0 d,  0 h,  0 min, 10.644 sec
 * ratio c/w:     1.999 speedup

