      -----------------------------------------------------------      
     |                   =====================                   |     
     |                           x T B                           |     
     |                   =====================                   |     
     |                         S. Grimme                         |     
     |          Mulliken Center for Theoretical Chemistry        |     
     |                    University of Bonn                     |     
     |                Version 6.1 RC1 (SAW190329)                |     
      -----------------------------------------------------------      

   This program is distributed in the hope that it will be useful,
   but WITHOUT ANY WARRANTY; without even the implied warranty of
   MERCHANTABILITY or FITNESS FOR A PARTICULAR PURPOSE.
   
   FOR NON-COMMERCIAL, ACADEMIA USE ONLY.
   
   Cite this work as:
   S. Grimme, C. Bannwarth, P. Shushkov, J. Comput. Theory Chem., 2017,
   13, 1989-2009. DOI: 10.1021/acs.jctc.7b00118
   C. Bannwarth, S. Ehlert and S. Grimme., J. Comput. Theory Chem., 2019,
   just accepted. DOI: 10.1021/acs.jctc.8b01176
   
   for sTDA-xTB:
   S. Grimme and C. Bannwarth, J. Chem. Phys., 2016, 145, 054103.
   DOI: 10.1063/1.4959605
   
   in the mass-spec context:
   V. Asgeirsson, C. Bauer and S. Grimme, Chem. Sci., 2017, 8, 4879.
   DOI: 10.1039/c7sc00601b
   
   for metadynamics refer to:
   S. Grimme, ChemRxiv, Preprint. DOI: 10.26434/chemrxiv.7660532.v1
   
   with help from (in alphabetical order)
   C. Bannwarth, F. Bohle, G. Brandenburg, E. Caldeweyher, M. Checinski,
   S. Dohm, S. Ehlert, S. Ehrlich, F. März, H. Neugebauer, J. Pisarek,
   P. Pracht, P. Shushkov, and S. Spicher.
   
 * started run on 2019/05/31 at 06:33:30.769     

           -------------------------------------------------
          |                Calculation Setup                |
           -------------------------------------------------

          program call               : /home/lum/qr/xtb-190329/bin/xtb xtb_tmp.xyz --chrg -1 --grad --gfn 2 --etemp 500 --acc 0.1 --gbsa h2o --parallel 2
          hostname                   : cu39
          coordinate file            : xtb_tmp.xyz
          omp threads                :                     2
          number of atoms            :                   260
          number of electrons        :                   724
          charge                     :                    -1
          spin                       :                   0.0
          first test random number   :      0.51791388216553


molecular fragmentation (1/2 indicates fragments):
111111111111111111111111111111111111111111111111111111111111111111111111
111111111111111111111111111111111111111111111111111111111111111111111111
111122222222222222222222222222222222222222222222222222222222222222222222
22222222222222222222222222222222222222112222
# atoms in fragment 1/2:   150   110
 fragment masses (1/2) :     1007.28      841.83
CMA distance (Bohr)    :  12.847
constraining FC (au)   :  0.0500

########################################################################
# WARNING! Please study the warnings concerning your input carefully
#  - XTBPATH is not set, using XTBHOME instead
#  - Process number higher than OMP_NUM_THREADS, I hope you know what you are doing.
########################################################################

           ------------------------------------------------- 
          |                 G F N 2 - x T B                 |
          | Geometry, Frequencies, Noncovalent interactions |
          |            JCTC 2018 parametrisation            |
           ------------------------------------------------- 
 
             k(s)              :                1.8500
             k(p)              :                2.2300
             k(d)              :                2.2300
             k(f)              :                2.0000
             kEN (H0ij)        :               -2.0000
             D4 a1             :                0.5200
             D4 a2             :                5.0000
             D4 s6             :                1.0000
             D4 s8             :                2.7000
             D4 s9             :                5.0000
             alphaj            :                2.0000

  Z AO/shell   Hii/eV     exponent
  1     Wed Apr 25 08:07:45 CEST 2018   EN: 2.200 GM2: 0.406  GM3: 0.0800  RAES: 1.40
     1s    -10.707211    1.230000
  6     Wed Apr 25 08:07:45 CEST 2018   EN: 2.550 GM2: 0.538  GM3: 0.1500  RAES: 3.00
     2s    -13.970922    2.096432
     2p    -10.063292    1.800000
  7     Wed Apr 25 08:07:45 CEST 2018   EN: 3.040 GM2: 0.461  GM3:-0.0640  RAES: 1.90
     2s    -16.686243    2.339881
     2p    -12.523956    2.014332
  8     Wed Apr 25 08:07:45 CEST 2018   EN: 3.440 GM2: 0.452  GM3:-0.0517  RAES: 1.80
     2s    -20.229985    2.439742
     2p    -15.503117    2.137023
 16     Tue Apr 24 11:44:34 CEST 2018   EN: 2.580 GM2: 0.340  GM3:-0.0502  RAES: 3.10
     3s    -20.029654    1.981333
     3p    -11.377694    2.025643
     3d     -0.420282    1.702555

 Solvent             : h2o
 Using internal parameter file: .param_gbsa2_h2o
 Gsolv ref. state (COSMO-RS): gsolv [1 M gas/solution]
 temperature (mdtemp)       :    298.150000000000     
 dielectric constant        :    80.2000000000000     
 rho                        :    1.00000000000000     
 mass                       :    18.0000000000000     
 surface tension            :    15.5689454083859     
 probe radius               :   0.975313790000000     
 vdW radii scaling          :    1.00000000000000     
 Gshift (Eh)                :   1.857443126794793E-003
 c1                         :    1.55243817000000     
 soset                      :   0.130326360000000     
 HB correction              :  T
 Number of grid points      :          230

            Z     q(EN)     CN     RAES       Cart. coordinates
     1  N   5.0   -0.70    3.00    1.93    38.02239    41.42232   136.87024
     2  C   4.0    0.07    3.99    3.60    36.70951    43.06052   138.60832
     3  C   4.0    0.27    3.01    3.02    37.80339    42.60805   141.24281
     4  O   6.0   -0.42    1.00    1.80    39.05908    40.72704   141.72258
     5  C   4.0   -0.15    4.01    3.64    33.83472    42.61959   138.50338
     6  C   4.0   -0.12    3.98    3.58    33.08223    39.91223   139.10177
     7  S   6.0   -0.16    2.02    3.10    29.86621    39.23232   138.05906
     8  C   4.0   -0.21    3.98    3.58    28.06146    41.26018   140.14417
     9  H   1.0    0.29    1.00    1.43    38.82966    39.89387   137.69831
    10  H   1.0    0.11    0.99    1.43    37.05934    45.03287   138.10001
    11  H   1.0    0.10    0.99    1.43    32.91760    43.94242   139.79180
    12  H   1.0    0.10    0.99    1.43    33.18930    43.09468   136.59967
    13  H   1.0    0.11    0.99    1.43    34.25281    38.57772   138.06063
    14  H   1.0    0.12    0.99    1.43    33.22492    39.50180   141.11428
    15  H   1.0    0.11    0.99    1.43    26.08612    40.78528   139.86867
    16  H   1.0    0.11    0.99    1.43    28.61980    40.87028   142.08129
    17  H   1.0    0.10    0.99    1.43    28.35977    43.23508   139.65317
    18  N   5.0   -0.49    3.01    1.93    37.18338    44.40851   142.89324
    19  C   4.0    0.07    3.99    3.61    38.35004    44.67643   145.35060
    20  C   4.0    0.26    3.02    3.02    36.46801    46.04293   147.04487
    21  O   6.0   -0.45    1.00    1.80    35.45729    48.01247   146.37787
    22  C   4.0   -0.12    3.98    3.59    40.74172    46.32255   145.14663
    23  C   4.0   -0.11    3.97    3.57    41.96127    46.85286   147.68992
    24  C   4.0    0.31    2.99    3.02    44.26022    48.72365   147.49211
    25  O   6.0   -0.39    1.00    1.80    45.81969    48.60827   149.25313
    26  O   6.0   -0.38    1.00    1.80    44.32189    50.18136   145.65060
    27  H   1.0    0.24    1.00    1.43    36.43819    46.04175   142.21794
    28  H   1.0    0.13    0.99    1.43    38.83331    42.79494   146.05233
    29  H   1.0    0.13    0.99    1.43    42.09801    45.39083   143.90314
    30  H   1.0    0.14    0.99    1.43    40.23090    48.11459   144.25967
    31  H   1.0    0.13    0.99    1.43    40.60491    47.76848   148.95496
    32  H   1.0    0.12    0.99    1.43    42.61908    45.11989   148.59760
    33  N   5.0   -0.49    3.01    1.93    35.98036    44.92275   149.26451
    34  C   4.0    0.07    4.00    3.61    34.78352    46.25704   151.33589
    35  C   4.0    0.26    3.01    3.02    36.59322    46.16891   153.58555
    36  O   6.0   -0.43    1.00    1.80    38.08125    44.42624   153.88755
    37  C   4.0   -0.13    3.98    3.59    32.24623    45.04244   152.09101
    38  C   4.0   -0.12    3.98    3.59    30.05156    46.28706   150.68459
    39  C   4.0    0.27    3.00    3.02    27.52679    45.02982   151.22601
    40  O   6.0   -0.45    1.00    1.80    26.97364    44.08391   153.25791
    41  N   5.0   -0.66    3.00    1.93    25.90073    45.06478   149.29025
    42  H   1.0    0.25    1.00    1.43    37.12520    43.50247   149.85674
    43  H   1.0    0.15    0.99    1.43    34.48951    48.22350   150.76991
    44  H   1.0    0.13    0.99    1.43    32.32412    43.02792   151.66478
    45  H   1.0    0.12    0.99    1.43    31.98353    45.25708   154.12133
    46  H   1.0    0.11    0.99    1.43    29.91967    48.25816   151.29759
    47  H   1.0    0.12    0.99    1.43    30.44264    46.27717   148.66034
    48  H   1.0    0.25    1.00    1.43    26.32209    45.91905   147.64817
    49  H   1.0    0.27    1.00    1.43    24.16249    44.31376   149.49961
    50  N   5.0   -0.50    3.02    1.93    36.20944    48.04357   155.23435
    51  C   4.0    0.07    3.99    3.61    37.59809    48.20722   157.59256
    52  C   4.0    0.26    3.01    3.02    35.89706    49.72590   159.36292
    53  O   6.0   -0.47    1.00    1.80    34.93794    51.72511   158.69362
    54  C   4.0   -0.13    3.98    3.59    40.22683    49.37047   157.20129
    55  C   4.0   -0.10    3.98    3.58    41.71705    49.71827   159.66934
    56  C   4.0   -0.23    3.98    3.59    44.49088    49.02619   159.27655
    57  C   4.0   -0.21    3.98    3.59    41.48443    52.43232   160.62088
    58  H   1.0    0.28    1.00    1.43    35.29175    49.63781   154.67292
    59  H   1.0    0.12    0.99    1.43    37.84636    46.27059   158.28000
    60  H   1.0    0.13    0.99    1.43    41.24642    48.11205   155.91910
    61  H   1.0    0.12    0.99    1.43    40.04534    51.18743   156.23874
    62  H   1.0    0.11    0.99    1.43    40.94766    48.44243   161.10765
    63  H   1.0    0.10    0.99    1.43    45.55830    49.32945   161.00465
    64  H   1.0    0.11    0.99    1.43    44.67016    47.05306   158.72847
    65  H   1.0    0.11    0.99    1.43    45.31294    50.18613   157.79035
    66  H   1.0    0.10    0.99    1.43    42.51599    52.67062   162.38002
    67  H   1.0    0.12    0.99    1.43    42.25829    53.74596   159.24012
    68  H   1.0    0.13    0.99    1.43    39.52039    52.95478   160.93186
    69  N   5.0   -0.50    3.01    1.93    35.35862    48.61146   161.55946
    70  C   4.0    0.07    3.99    3.61    33.61057    49.67201   163.38227
    71  C   4.0    0.26    3.01    3.02    34.92841    49.81313   165.95625
    72  O   6.0   -0.44    1.00    1.80    35.93951    47.94306   166.85974
    73  C   4.0   -0.14    3.98    3.59    31.28389    47.94474   163.62945
    74  C   4.0   -0.16    3.98    3.59    29.87692    47.65913   161.12388
    75  C   4.0   -0.17    3.98    3.58    27.79524    45.65318   161.25499
    76  C   4.0   -0.05    3.98    3.59    26.44749    45.56227   158.70929
    77  N   5.0   -0.73    3.98    2.82    25.02381    43.17385   158.29243
    78  H   1.0    0.24    1.00    1.43    36.29593    47.04631   162.12353
    79  H   1.0    0.13    0.99    1.43    33.10310    51.55316   162.70027
    80  H   1.0    0.12    0.99    1.43    31.94880    46.11029   164.30215
    81  H   1.0    0.10    0.99    1.43    30.05176    48.76805   165.05702
    82  H   1.0    0.10    0.99    1.43    29.07228    49.47646   160.57842
    83  H   1.0    0.13    0.99    1.43    31.23248    47.13311   159.66103
    84  H   1.0    0.11    0.99    1.43    28.66946    43.83418   161.66933
    85  H   1.0    0.10    0.99    1.43    26.48473    46.13042   162.76583
    86  H   1.0    0.11    0.99    1.43    25.15148    47.15083   158.52863
    87  H   1.0    0.14    0.99    1.43    27.83801    45.70310   157.19565
    88  H   1.0    0.28    1.00    1.43    24.63222    43.07248   156.37959
    89  H   1.0    0.24    1.00    1.43    26.14777    41.64851   158.73408
    90  H   1.0    0.23    1.00    1.43    23.39375    43.10105   159.35006
    91  N   5.0   -0.50    3.01    1.93    34.68566    52.02960   167.15351
    92  C   4.0    0.08    4.00    3.62    35.82069    52.46050   169.60716
    93  C   4.0    0.27    3.01    3.02    33.82752    53.72408   171.28101
    94  O   6.0   -0.44    1.00    1.80    32.88306    55.76752   170.75734
    95  C   4.0   -0.08    3.98    3.58    38.18340    54.14766   169.41338
    96  C   4.0   -0.23    3.98    3.59    39.24791    54.68402   172.04107
    97  C   4.0   -0.21    3.98    3.59    40.16134    52.87444   167.74795
    98  H   1.0    0.29    1.00    1.43    34.21675    53.62680   166.19832
    99  H   1.0    0.13    0.99    1.43    36.35060    50.60181   170.34554
   100  H   1.0    0.13    0.99    1.43    37.60461    55.92485   168.52254
   101  H   1.0    0.10    0.99    1.43    40.90314    55.88989   171.87812
   102  H   1.0    0.12    0.99    1.43    37.85959    55.65020   173.21135
   103  H   1.0    0.10    0.99    1.43    39.80378    52.93048   172.96062
   104  H   1.0    0.09    0.99    1.43    41.81090    54.08358   167.56242
   105  H   1.0    0.11    0.99    1.43    40.74339    51.07739   168.56055
   106  H   1.0    0.13    0.99    1.43    39.41459    52.53555   165.86377
   107  N   5.0   -0.49    3.01    1.93    33.14143    52.36746   173.30289
   108  C   4.0    0.07    3.99    3.61    31.39424    53.26960   175.21175
   109  C   4.0    0.26    3.01    3.02    32.85922    53.40060   177.70141
   110  O   6.0   -0.43    1.00    1.80    34.18275    51.63573   178.38479
   111  C   4.0   -0.14    3.98    3.59    29.15830    51.43745   175.46660
   112  C   4.0   -0.15    3.98    3.59    27.76459    51.17486   172.95092
   113  C   4.0   -0.16    3.98    3.59    25.56152    49.31358   173.13112
   114  C   4.0   -0.06    3.98    3.59    24.09979    49.32452   170.64914
   115  N   5.0   -0.74    3.98    2.82    22.07304    47.36845   170.65224
   116  H   1.0    0.24    1.00    1.43    34.09578    50.78493   173.78725
   117  H   1.0    0.13    0.99    1.43    30.74401    55.13340   174.61203
   118  H   1.0    0.12    0.99    1.43    29.89524    49.61237   176.09082
   119  H   1.0    0.10    0.99    1.43    27.89371    52.16669   176.92250
   120  H   1.0    0.14    0.99    1.43    27.08241    53.02906   172.35569
   121  H   1.0    0.13    0.99    1.43    29.10602    50.52801   171.52483
   122  H   1.0    0.10    0.99    1.43    26.31189    47.43577   173.53348
   123  H   1.0    0.10    0.99    1.43    24.33483    49.88249   174.68582
   124  H   1.0    0.12    0.99    1.43    23.26567    51.18682   170.36591
   125  H   1.0    0.10    0.99    1.43    25.39306    48.95318   169.09136
   126  H   1.0    0.23    1.00    1.43    21.02861    47.46916   169.01227
   127  H   1.0    0.23    1.00    1.43    22.86340    45.59482   170.80211
   128  H   1.0    0.23    1.00    1.43    20.89440    47.64494   172.17758
   129  N   5.0   -0.49    3.01    1.93    32.56910    55.52553   179.05190
   130  C   4.0    0.07    3.99    3.60    33.85583    55.88892   181.43624
   131  C   4.0    0.06    3.00    3.02    32.32923    57.60662   183.17198
   132  O   6.0   -0.42    1.00    1.80    31.17893    59.44978   182.37729
   133  C   4.0   -0.12    3.99    3.60    36.45972    57.17256   181.01621
   134  C   4.0   -0.04    3.03    3.02    37.69124    57.73863   183.50718
   135  C   4.0   -0.10    3.03    3.02    39.17044    55.93505   184.70809
   136  C   4.0   -0.09    3.03    3.02    37.21934    60.01528   184.72939
   137  C   4.0   -0.11    3.03    3.02    40.11665    56.37393   187.10677
   138  C   4.0   -0.11    3.03    3.02    38.14299    60.44348   187.13598
   139  C   4.0   -0.11    3.03    3.02    39.57917    58.61648   188.33874
   140  H   1.0    0.25    1.00    1.43    31.50934    56.99672   178.43044
   141  H   1.0    0.13    0.99    1.43    34.13295    54.03224   182.30163
   142  H   1.0    0.12    0.99    1.43    37.61838    55.89608   179.88836
   143  H   1.0    0.12    0.99    1.43    36.13607    58.91264   179.95751
   144  H   1.0    0.11    1.00    1.43    39.56886    54.17733   183.75384
   145  H   1.0    0.13    0.99    1.43    36.07861    61.44090   183.80492
   146  H   1.0    0.11    1.00    1.43    41.25385    54.95700   188.03027
   147  H   1.0    0.11    1.00    1.43    37.71616    62.18951   188.10278
   148  H   1.0    0.10    1.00    1.43    40.22977    58.95956   190.23946
   149  N   5.0   -0.70    3.00    1.93    29.23529    63.06927   173.74084
   150  C   4.0    0.08    3.98    3.59    28.59713    61.22357   171.81571
   151  C   4.0    0.28    3.02    3.02    29.90280    62.01038   169.36694
   152  O   6.0   -0.41    1.00    1.80    29.73108    64.20162   168.61451
   153  C   4.0   -0.11    3.99    3.60    25.72811    61.14058   171.41027
   154  C   4.0    0.27    3.00    3.02    24.88099    58.82217   169.93920
   155  O   6.0   -0.43    1.00    1.80    25.85683    56.74352   170.17754
   156  N   5.0   -0.66    3.00    1.93    22.88929    59.24209   168.44081
   157  H   1.0    0.28    1.00    1.43    29.24875    64.92268   173.23761
   158  H   1.0    0.14    0.99    1.43    29.26751    59.36768   172.43607
   159  H   1.0    0.10    0.99    1.43    24.81715    61.07618   173.26255
   160  H   1.0    0.12    0.99    1.43    25.10559    62.84135   170.43264
   161  H   1.0    0.27    1.00    1.43    22.22641    57.83649   167.34295
   162  H   1.0    0.25    1.00    1.43    22.17182    61.00553   168.25953
   163  N   5.0   -0.48    3.01    1.93    31.15911    60.23022   168.09887
   164  C   4.0    0.09    4.00    3.62    32.64625    60.94165   165.89340
   165  C   4.0    0.28    3.01    3.02    32.90577    58.70865   164.08354
   166  O   6.0   -0.45    1.00    1.80    34.27433    56.90702   164.55505
   167  C   4.0   -0.18    3.98    3.59    35.27010    61.83189   166.71876
   168  H   1.0    0.30    1.00    1.43    31.54356    58.52906   168.90851
   169  H   1.0    0.17    0.99    1.43    31.64373    62.47957   164.94409
   170  H   1.0    0.12    0.99    1.43    36.35135    62.47875   165.09424
   171  H   1.0    0.13    0.99    1.43    35.06699    63.37758   168.05719
   172  H   1.0    0.12    0.99    1.43    36.27264    60.27959   167.61916
   173  N   5.0   -0.48    3.01    1.93    31.50820    58.86938   161.97877
   174  C   4.0    0.09    4.00    3.62    31.64578    56.96296   160.02867
   175  C   4.0    0.28    3.00    3.02    32.65386    58.04673   157.54010
   176  O   6.0   -0.41    1.00    1.80    32.52260    60.29682   156.98143
   177  C   4.0   -0.08    3.98    3.58    29.05945    55.66044   159.61257
   178  C   4.0   -0.21    3.98    3.59    28.05919    54.60857   162.10923
   179  C   4.0   -0.20    3.98    3.59    27.13290    57.46340   158.44442
   180  H   1.0    0.29    1.00    1.43    30.70917    60.53765   161.49636
   181  H   1.0    0.15    0.99    1.43    33.01982    55.56046   160.68846
   182  H   1.0    0.12    0.99    1.43    29.40901    54.11568   158.28340
   183  H   1.0    0.10    0.99    1.43    26.28109    53.64220   161.77941
   184  H   1.0    0.11    0.99    1.43    29.42198    53.32215   162.93993
   185  H   1.0    0.14    0.99    1.43    27.74277    56.14123   163.43853
   186  H   1.0    0.11    0.99    1.43    25.35804    56.49639   158.08177
   187  H   1.0    0.12    0.99    1.43    26.75597    59.04546   159.70266
   188  H   1.0    0.14    0.99    1.43    27.79913    58.23653   156.65554
   189  N   5.0   -0.48    3.01    1.93    33.58899    56.24222   156.02942
   190  C   4.0    0.08    3.99    3.61    34.81922    56.71222   153.64385
   191  C   4.0    0.27    3.02    3.02    34.12565    54.68238   151.72667
   192  O   6.0   -0.45    1.00    1.80    33.95545    52.44384   152.30095
   193  C   4.0   -0.11    3.99    3.60    37.72290    56.54467   153.93374
   194  C   4.0    0.13    3.34    3.06    38.81683    58.90958   154.99463
   195  N   5.0   -0.38    2.10    1.90    40.27899    58.93756   157.11836
   196  C   4.0    0.05    3.24    3.04    38.61291    61.31258   154.05374
   197  C   4.0    0.19    3.43    3.09    40.93325    61.30175   157.43779
   198  N   5.0   -0.46    3.13    1.94    39.98221    62.82107   155.62843
   199  H   1.0    0.29    1.00    1.43    33.91454    54.49121   156.76208
   200  H   1.0    0.16    0.99    1.43    34.27760    58.58535   152.96221
   201  H   1.0    0.13    0.99    1.43    38.18307    54.97308   155.18632
   202  H   1.0    0.12    0.99    1.43    38.56571    56.16671   152.08378
   203  H   1.0    0.13    1.00    1.43    37.62293    62.04555   152.44713
   204  H   1.0    0.12    1.00    1.43    42.11771    61.97063   158.93577
   205  H   1.0    0.29    1.00    1.43    40.07938    64.73721   155.49861
   206  N   5.0   -0.47    3.01    1.93    33.90966    55.51616   149.35176
   207  C   4.0    0.08    3.99    3.60    33.66456    53.75709   147.28109
   208  C   4.0    0.07    3.00    3.02    35.04465    54.78942   144.97313
   209  O   6.0   -0.42    1.00    1.80    34.90529    57.02430   144.38608
   210  C   4.0   -0.00    3.98    3.58    30.87137    53.22998   146.56421
   211  O   6.0   -0.48    1.99    1.82    29.57189    55.34750   145.64632
   212  H   1.0    0.29    1.00    1.43    33.85008    57.39743   148.98988
   213  H   1.0    0.15    0.99    1.43    34.49419    51.97793   147.93433
   214  H   1.0    0.10    0.99    1.43    30.81888    51.67894   145.18724
   215  H   1.0    0.13    0.99    1.43    29.86942    52.66142   148.27367
   216  H   1.0    0.27    0.99    1.43    30.26613    55.83590   144.03179
   217  N   5.0   -0.69    3.00    1.93    32.01044    61.83436   144.54645
   218  C   4.0    0.10    3.98    3.59    30.42057    62.86185   146.51517
   219  C   4.0    0.28    3.01    3.02    31.95539    63.00473   148.96144
   220  O   6.0   -0.44    1.00    1.80    33.27487    61.22341   149.64295
   221  C   4.0   -0.01    3.98    3.59    28.06906    61.24203   147.03271
   222  O   6.0   -0.48    1.99    1.82    26.28365    61.67280   145.10801
   223  H   1.0    0.33    1.00    1.43    32.90877    60.18035   144.93245
   224  H   1.0    0.13    0.99    1.43    29.81065    64.74278   145.91987
   225  H   1.0    0.15    0.99    1.43    28.61589    59.24446   147.10916
   226  H   1.0    0.14    0.99    1.43    27.28520    61.77924   148.88376
   227  H   1.0    0.27    0.99    1.43    24.85109    60.58481   145.40856
   228  N   5.0   -0.50    3.01    1.93    31.74510    65.17605   150.21705
   229  C   4.0    0.08    4.00    3.61    33.05408    65.71388   152.56644
   230  C   4.0    0.30    3.01    3.02    31.16937    67.10354   154.26369
   231  O   6.0   -0.41    1.00    1.80    30.25945    69.13500   153.59616
   232  C   4.0   -0.09    3.98    3.59    35.35285    67.38004   152.09964
   233  C   4.0    0.31    2.99    3.02    36.57231    68.07567   154.69509
   234  O   6.0   -0.35    1.00    1.80    35.08734    68.67013   156.41258
   235  O   6.0   -0.42    1.00    1.80    38.92517    67.97394   154.80884
   236  H   1.0    0.25    1.00    1.43    30.70770    66.60852   149.47886
   237  H   1.0    0.15    0.99    1.43    33.61579    63.91835   153.42644
   238  H   1.0    0.12    0.99    1.43    36.73116    66.43979   150.88739
   239  H   1.0    0.13    0.99    1.43    34.72030    69.14372   151.23226
   240  N   5.0   -0.46    3.01    1.93    30.35175    65.76018   156.23039
   241  C   4.0    0.07    3.99    3.60    28.39910    66.62656   157.93570
   242  C   4.0    0.08    3.00    3.02    29.34496    66.37495   160.64455
   243  O   6.0   -0.43    1.00    1.80    30.01812    64.32993   161.50587
   244  C   4.0   -0.13    3.98    3.59    26.00813    65.03364   157.51895
   245  C   4.0   -0.11    3.98    3.58    24.67174    65.84387   155.09732
   246  C   4.0    0.31    2.99    3.02    22.97976    63.68851   154.05002
   247  O   6.0   -0.40    1.00    1.80    24.04650    61.80638   153.17546
   248  O   6.0   -0.39    1.00    1.80    20.62379    64.01442   154.14589
   249  H   1.0    0.29    1.00    1.43    31.15097    64.07101   156.64030
   250  H   1.0    0.13    0.99    1.43    28.02798    68.61023   157.49824
   251  H   1.0    0.14    0.99    1.43    26.56717    63.05288   157.36653
   252  H   1.0    0.11    0.99    1.43    24.75205    65.22797   159.14179
   253  H   1.0    0.12    0.99    1.43    23.58429    67.55230   155.46985
   254  H   1.0    0.14    0.99    1.43    26.08989    66.23778   153.64813
   255  H   1.0    0.29    1.00    1.43    36.93064    40.84181   135.70248
   256  H   1.0    0.12    1.00    1.43    32.24453    57.24348   185.02454
   257  H   1.0    0.29    1.00    1.43    28.11881    62.96502   175.01958
   258  H   1.0    0.13    1.00    1.43    36.09051    53.63525   143.90303
   259  H   1.0    0.32    1.00    1.43    31.07391    61.53528   143.15864
   260  H   1.0    0.13    1.00    1.43    29.42703    67.89675   161.76190

           ------------------------------------------------- 
          |        Self-Consistent Charge Iterations        |
           ------------------------------------------------- 

          ...................................................
          :                      SETUP                      :
          :.................................................:
          :  # basis functions                 653          :
          :  # atomic orbitals                 652          :
          :  # shells                          390          :
          :  # electrons                       724          :
          :  max. iterations                   250          :
          :  Hamiltonian                  GFN2-xTB          :
          :  restarted?                      false          :
          :  GBSA solvation                   true          :
          :  PC potential                    false          :
          :  electronic temp.          500.0000000     K    :
          :  accuracy                    0.1000000          :
          :  -> integral cutoff          0.3500000E+02      :
          :  -> integral neglect         0.1000000E-08      :
          :  -> SCF convergence          0.1000000E-06 Eh   :
          :  -> wf. convergence          0.1000000E-04 e    :
          :  Broyden damping             0.4000000          :
          ...................................................

 iter      E             dE          RMSdq      gap      omega  full diag
   1   -415.6048501 -0.415605E+03  0.438E+00    2.34       0.0  T
   2   -416.8592750 -0.125442E+01  0.223E+00    1.56       1.0  T
   3   -416.9043673 -0.450924E-01  0.122E+00    1.74       1.0  T
   4   -416.9157529 -0.113855E-01  0.326E-01    1.09       1.0  T
   5   -416.9285175 -0.127646E-01  0.145E-01    1.28       1.0  T
   6   -416.9293219 -0.804360E-03  0.703E-02    1.31       1.0  T
   7   -416.9294793 -0.157438E-03  0.340E-02    1.33       1.0  T
   8   -416.9295740 -0.947261E-04  0.123E-02    1.35       1.0  T
   9   -416.9295797 -0.568054E-05  0.619E-03    1.35       1.0  T
  10   -416.9295815 -0.181787E-05  0.235E-03    1.35       2.6  T
  11   -416.9295817 -0.223296E-06  0.108E-03    1.35       5.8  T
  12   -416.9295818 -0.512608E-07  0.510E-04    1.35      12.2  T
  13   -416.9295818 -0.184520E-07  0.240E-04    1.35      25.9  T
  14   -416.9295818 -0.225918E-08  0.112E-04    1.35      55.6  T
  15   -416.9295818 -0.401542E-09  0.474E-05    1.35     130.7  T
  16   -416.9295818 -0.126363E-09  0.212E-05    1.35     291.9  T

   *** convergence criteria satisfied after 16 iterations ***

         #    Occupation            Energy/Eh            Energy/eV
      -------------------------------------------------------------
         1        2.0000           -0.7521804             -20.4679
       ...           ...                  ...                  ...
       356        2.0000           -0.3761587             -10.2358
       357        2.0000           -0.3730162             -10.1503
       358        2.0000           -0.3710280             -10.0962
       359        2.0000           -0.3685056             -10.0275
       360        2.0000           -0.3603048              -9.8044
       361        2.0000           -0.3601173              -9.7993
       362        2.0000           -0.3591638              -9.7733 (HOMO)
       363        0.0000           -0.3096192              -8.4252 (LUMO)
       364        0.0000           -0.3079755              -8.3804
       365                         -0.2932982              -7.9810
       366                         -0.2397982              -6.5252
       367                         -0.2372339              -6.4555
       ...                                ...                  ...
       652                          0.6652423              18.1022
      -------------------------------------------------------------
                  HL-Gap            0.0495447 Eh            1.3482 eV
             Fermi-level           -0.3340680 Eh           -9.0905 eV

 SCC (total)                   0 d,  0 h,  0 min,  5.218 sec
 SCC setup                      ...        0 min,  0.068 sec (  1.306%)
 Dispersion                     ...        0 min,  0.024 sec (  0.469%)
 integral evaluation            ...        0 min,  0.156 sec (  2.988%)
 zeroth order Hamiltonian       ...        0 min,  0.009 sec (  0.175%)
 iterations                     ...        0 min,  4.045 sec ( 77.518%)
 molecular gradient             ...        0 min,  0.893 sec ( 17.110%)
 printout                       ...        0 min,  0.023 sec (  0.431%)

         :::::::::::::::::::::::::::::::::::::::::::::::::::::
         ::                     SUMMARY                     ::
         :::::::::::::::::::::::::::::::::::::::::::::::::::::
         :: total energy             -412.089209403310 Eh   ::
         :: total w/o Gsasa/hb       -412.023878204996 Eh   ::
         :: gradient norm               0.390285765775 Eh/α ::
         :: HOMO-LUMO gap               1.348179068409 eV   ::
         ::.................................................::
         :: SCC energy               -416.943255127161 Eh   ::
         :: -> isotropic ES             1.713370968065 Eh   ::
         :: -> anisotropic ES          -0.093681034471 Eh   ::
         :: -> anisotropic XC           0.126319943348 Eh   ::
         :: -> dispersion              -0.307892178027 Eh   ::
         :: -> Gsolv                   -0.622493972400 Eh   ::
         ::    -> Gborn                -0.557162774086 Eh   ::
         ::    -> Gsasa                -0.015530750623 Eh   ::
         ::    -> Ghb                  -0.051657890817 Eh   ::
         ::    -> Gshift                0.001857443127 Eh   ::
         :: repulsion energy            4.833494600441 Eh   ::
         :: add. restraining            0.000000000000 Eh   ::
         :::::::::::::::::::::::::::::::::::::::::::::::::::::

           -------------------------------------------------
          |                Property Printout                |
           -------------------------------------------------

    * Orbital Energies and Occupations

         #    Occupation            Energy/Eh            Energy/eV
      -------------------------------------------------------------
         1        2.0000           -0.7521804             -20.4679
       ...           ...                  ...                  ...
       350        2.0000           -0.3925634             -10.6822
       351        2.0000           -0.3905512             -10.6274
       352        2.0000           -0.3901506             -10.6165
       353        2.0000           -0.3827384             -10.4148
       354        2.0000           -0.3785220             -10.3001
       355        2.0000           -0.3782276             -10.2921
       356        2.0000           -0.3761587             -10.2358
       357        2.0000           -0.3730162             -10.1503
       358        2.0000           -0.3710280             -10.0962
       359        2.0000           -0.3685056             -10.0275
       360        2.0000           -0.3603048              -9.8044
       361        2.0000           -0.3601173              -9.7993
       362        2.0000           -0.3591638              -9.7733 (HOMO)
       363        0.0000           -0.3096192              -8.4252 (LUMO)
       364        0.0000           -0.3079755              -8.3804
       365                         -0.2932982              -7.9810
       366                         -0.2397982              -6.5252
       367                         -0.2372339              -6.4555
       368                         -0.2353896              -6.4053
       369                         -0.2339871              -6.3671
       370                         -0.2309590              -6.2847
       371                         -0.2307874              -6.2800
       372                         -0.2290985              -6.2341
       373                         -0.2255986              -6.1388
       ...                                ...                  ...
       652                          0.6652423              18.1022
      -------------------------------------------------------------
                  HL-Gap            0.0495447 Eh            1.3482 eV
             Fermi-level           -0.3340680 Eh           -9.0905 eV

   #   Z        covCN         q      C6AA      α(0)
   1   7 N      2.638    -0.395    30.224     8.165
   2   6 C      3.790     0.027    20.127     6.389
   3   6 C      2.756     0.274    22.361     7.744
   4   8 O      0.858    -0.484    23.434     6.490
   5   6 C      3.833    -0.069    21.794     6.642
   6   6 C      3.795    -0.001    20.607     6.464
   7  16 S      1.971    -0.233   151.012    20.683
   8   6 C      3.745    -0.063    21.788     6.659
   9   1 H      0.860     0.165     1.305     1.789
  10   1 H      0.924     0.039     2.456     2.451
  11   1 H      0.924     0.043     2.414     2.430
  12   1 H      0.924     0.061     2.182     2.310
  13   1 H      0.925     0.052     2.298     2.371
  14   1 H      0.925     0.039     2.460     2.453
  15   1 H      0.925     0.081     1.972     2.196
  16   1 H      0.925     0.064     2.147     2.292
  17   1 H      0.925     0.056     2.250     2.346
  18   7 N      2.696    -0.183    24.970     7.422
  19   6 C      3.795     0.022    20.212     6.402
  20   6 C      2.763     0.273    22.380     7.747
  21   8 O      0.859    -0.482    23.399     6.486
  22   6 C      3.807    -0.045    21.365     6.580
  23   6 C      3.796    -0.087    22.159     6.703
  24   6 C      2.681     0.372    20.696     7.445
  25   8 O      0.856    -0.649    27.349     7.011
  26   8 O      0.856    -0.644    27.235     6.997
  27   1 H      0.860     0.203     1.092     1.637
  28   1 H      0.924     0.066     2.125     2.280
  29   1 H      0.924     0.033     2.550     2.497
  30   1 H      0.924     0.040     2.447     2.446
  31   1 H      0.924     0.005     2.968     2.694
  32   1 H      0.924     0.023     2.689     2.564
  33   7 N      2.692    -0.172    24.719     7.384
  34   6 C      3.799     0.007    20.463     6.441
  35   6 C      2.760     0.270    22.441     7.758
  36   8 O      0.858    -0.485    23.464     6.494
  37   6 C      3.805    -0.069    21.819     6.650
  38   6 C      3.807    -0.104    22.470     6.748
  39   6 C      2.743     0.284    22.184     7.712
  40   8 O      0.859    -0.466    23.036     6.435
  41   7 N      2.640    -0.286    27.371     7.770
  42   1 H      0.860     0.209     1.060     1.613
  43   1 H      0.924     0.077     2.008     2.216
  44   1 H      0.924     0.081     1.968     2.194
  45   1 H      0.925     0.081     1.967     2.193
  46   1 H      0.924     0.076     2.025     2.226
  47   1 H      0.924     0.056     2.242     2.341
  48   1 H      0.860     0.213     1.041     1.598
  49   1 H      0.860     0.246     0.897     1.484
  50   7 N      2.698    -0.180    24.895     7.410
  51   6 C      3.796     0.017    20.296     6.415
  52   6 C      2.761     0.273    22.381     7.747
  53   8 O      0.859    -0.485    23.460     6.494
  54   6 C      3.806    -0.064    21.716     6.634
  55   6 C      3.849    -0.011    20.741     6.478
  56   6 C      3.756    -0.113    22.725     6.797
  57   6 C      3.756    -0.109    22.635     6.784
  58   1 H      0.860     0.221     1.006     1.571
  59   1 H      0.924     0.078     2.000     2.212
  60   1 H      0.924     0.042     2.423     2.434
  61   1 H      0.924     0.028     2.612     2.527
  62   1 H      0.924     0.043     2.413     2.429
  63   1 H      0.925     0.053     2.281     2.362
  64   1 H      0.925     0.042     2.425     2.435
  65   1 H      0.925     0.026     2.647     2.544
  66   1 H      0.925     0.049     2.326     2.385
  67   1 H      0.925     0.032     2.553     2.499
  68   1 H      0.925     0.031     2.571     2.508
  69   7 N      2.692    -0.155    24.362     7.331
  70   6 C      3.795     0.006    20.476     6.443
  71   6 C      2.759     0.270    22.441     7.758
  72   8 O      0.858    -0.471    23.149     6.451
  73   6 C      3.807    -0.084    22.097     6.692
  74   6 C      3.805    -0.079    22.004     6.678
  75   6 C      3.802    -0.099    22.392     6.737
  76   6 C      3.734    -0.053    21.623     6.637
  77   7 N      3.482    -0.149    24.215     7.309
  78   1 H      0.860     0.217     1.024     1.585
  79   1 H      0.924     0.065     2.136     2.286
  80   1 H      0.924     0.085     1.932     2.174
  81   1 H      0.925     0.079     1.989     2.205
  82   1 H      0.924     0.058     2.224     2.332
  83   1 H      0.924     0.038     2.469     2.457
  84   1 H      0.924     0.087     1.913     2.163
  85   1 H      0.925     0.101     1.775     2.083
  86   1 H      0.925     0.115     1.654     2.011
  87   1 H      0.924     0.106     1.733     2.058
  88   1 H      0.859     0.299     0.716     1.325
  89   1 H      0.859     0.295     0.729     1.338
  90   1 H      0.859     0.306     0.695     1.306
  91   7 N      2.692    -0.174    24.776     7.393
  92   6 C      3.802     0.009    20.422     6.434
  93   6 C      2.756     0.274    22.369     7.745
  94   8 O      0.858    -0.477    23.289     6.470
  95   6 C      3.852    -0.014    20.784     6.484
  96   6 C      3.755    -0.117    22.792     6.807
  97   6 C      3.756    -0.112    22.687     6.791
  98   1 H      0.860     0.216     1.028     1.589
  99   1 H      0.924     0.079     1.986     2.204
 100   1 H      0.924     0.040     2.456     2.451
 101   1 H      0.925     0.048     2.339     2.392
 102   1 H      0.925     0.036     2.508     2.477
 103   1 H      0.925     0.054     2.267     2.355
 104   1 H      0.925     0.037     2.484     2.465
 105   1 H      0.925     0.053     2.283     2.363
 106   1 H      0.925     0.033     2.543     2.494
 107   7 N      2.695    -0.160    24.466     7.346
 108   6 C      3.795     0.010    20.416     6.434
 109   6 C      2.761     0.269    22.464     7.762
 110   8 O      0.858    -0.472    23.182     6.455
 111   6 C      3.806    -0.076    21.954     6.670
 112   6 C      3.806    -0.081    22.038     6.683
 113   6 C      3.803    -0.094    22.293     6.722
 114   6 C      3.733    -0.053    21.611     6.635
 115   7 N      3.483    -0.149    24.214     7.309
 116   1 H      0.860     0.216     1.027     1.587
 117   1 H      0.924     0.072     2.066     2.248
 118   1 H      0.924     0.070     2.088     2.260
 119   1 H      0.924     0.063     2.170     2.303
 120   1 H      0.924     0.071     2.072     2.251
 121   1 H      0.924     0.052     2.293     2.368
 122   1 H      0.924     0.083     1.949     2.183
 123   1 H      0.924     0.076     2.024     2.225
 124   1 H      0.925     0.116     1.645     2.006
 125   1 H      0.925     0.119     1.622     1.992
 126   1 H      0.859     0.308     0.691     1.302
 127   1 H      0.859     0.304     0.701     1.312
 128   1 H      0.859     0.296     0.726     1.335
 129   7 N      2.689    -0.167    24.618     7.369
 130   6 C      3.794     0.027    20.124     6.388
 131   6 C      2.769     0.204    23.664     7.967
 132   8 O      0.856    -0.359    20.870     6.125
 133   6 C      3.813    -0.070    21.827     6.650
 134   6 C      2.971     0.006    27.882     8.661
 135   6 C      2.925    -0.041    29.012     8.833
 136   6 C      2.924    -0.042    29.033     8.836
 137   6 C      2.920    -0.032    28.789     8.799
 138   6 C      2.920    -0.033    28.811     8.802
 139   6 C      2.920    -0.035    28.866     8.811
 140   1 H      0.860     0.212     1.049     1.604
 141   1 H      0.924     0.094     1.840     2.122
 142   1 H      0.925     0.070     2.089     2.260
 143   1 H      0.924     0.060     2.194     2.317
 144   1 H      0.926     0.047     2.359     2.402
 145   1 H      0.925     0.029     2.602     2.523
 146   1 H      0.926     0.043     2.412     2.429
 147   1 H      0.926     0.035     2.512     2.479
 148   1 H      0.926     0.039     2.468     2.457
 149   7 N      2.638    -0.392    30.142     8.154
 150   6 C      3.786     0.037    19.975     6.366
 151   6 C      2.764     0.276    22.338     7.740
 152   8 O      0.859    -0.519    24.215     6.598
 153   6 C      3.812    -0.106    22.511     6.753
 154   6 C      2.743     0.278    22.291     7.730
 155   8 O      0.859    -0.467    23.068     6.439
 156   7 N      2.640    -0.290    27.469     7.784
 157   1 H      0.860     0.152     1.388     1.845
 158   1 H      0.924     0.066     2.132     2.284
 159   1 H      0.924     0.084     1.943     2.180
 160   1 H      0.925     0.044     2.390     2.418
 161   1 H      0.860     0.245     0.904     1.490
 162   1 H      0.860     0.212     1.048     1.604
 163   7 N      2.688    -0.186    25.028     7.430
 164   6 C      3.800     0.024    20.169     6.394
 165   6 C      2.758     0.270    22.431     7.756
 166   8 O      0.858    -0.467    23.065     6.439
 167   6 C      3.756    -0.109    22.641     6.784
 168   1 H      0.860     0.239     0.927     1.508
 169   1 H      0.924     0.062     2.174     2.306
 170   1 H      0.925     0.030     2.584     2.514
 171   1 H      0.925     0.055     2.253     2.347
 172   1 H      0.925     0.068     2.107     2.270
 173   7 N      2.689    -0.165    24.570     7.362
 174   6 C      3.802     0.013    20.360     6.424
 175   6 C      2.751     0.279    22.271     7.728
 176   8 O      0.857    -0.532    24.499     6.636
 177   6 C      3.851    -0.021    20.915     6.505
 178   6 C      3.756    -0.133    23.101     6.853
 179   6 C      3.755    -0.104    22.540     6.770
 180   1 H      0.860     0.200     1.108     1.649
 181   1 H      0.924     0.088     1.894     2.152
 182   1 H      0.924     0.059     2.207     2.323
 183   1 H      0.925     0.093     1.853     2.129
 184   1 H      0.925     0.068     2.106     2.270
 185   1 H      0.925     0.047     2.359     2.402
 186   1 H      0.925     0.066     2.125     2.280
 187   1 H      0.925     0.031     2.571     2.507
 188   1 H      0.925     0.003     3.012     2.714
 189   7 N      2.693    -0.188    25.083     7.438
 190   6 C      3.796     0.028    20.109     6.385
 191   6 C      2.767     0.266    22.514     7.771
 192   8 O      0.858    -0.466    23.047     6.437
 193   6 C      3.813    -0.063    21.692     6.629
 194   6 C      3.203     0.055    26.205     8.340
 195   7 N      1.914    -0.300    28.623     7.932
 196   6 C      3.050    -0.017    28.395     8.739
 197   6 C      3.169     0.090    25.666     8.277
 198   7 N      2.806    -0.112    23.439     7.191
 199   1 H      0.860     0.249     0.889     1.477
 200   1 H      0.924     0.059     2.208     2.324
 201   1 H      0.924     0.073     2.048     2.238
 202   1 H      0.924     0.033     2.547     2.496
 203   1 H      0.926     0.012     2.858     2.644
 204   1 H      0.926     0.043     2.403     2.424
 205   1 H      0.860     0.199     1.110     1.651
 206   7 N      2.691    -0.168    24.637     7.372
 207   6 C      3.793     0.014    20.342     6.423
 208   6 C      2.768     0.200    23.737     7.979
 209   8 O      0.856    -0.355    20.800     6.115
 210   6 C      3.676     0.073    19.583     6.340
 211   8 O      1.656    -0.454    21.929     6.322
 212   1 H      0.860     0.209     1.059     1.612
 213   1 H      0.924     0.106     1.728     2.056
 214   1 H      0.924     0.068     2.113     2.273
 215   1 H      0.924     0.091     1.872     2.140
 216   1 H      0.805     0.324     0.653     1.269
 217   7 N      2.636    -0.398    30.319     8.178
 218   6 C      3.787     0.033    20.028     6.374
 219   6 C      2.758     0.274    22.362     7.744
 220   8 O      0.858    -0.492    23.613     6.515
 221   6 C      3.678     0.079    19.472     6.321
 222   8 O      1.656    -0.483    22.526     6.407
 223   1 H      0.860     0.177     1.233     1.739
 224   1 H      0.924     0.044     2.397     2.421
 225   1 H      0.924     0.051     2.308     2.376
 226   1 H      0.923    -0.001     3.071     2.740
 227   1 H      0.805     0.349     0.589     1.206
 228   7 N      2.694    -0.187    25.046     7.433
 229   6 C      3.798     0.050    19.733     6.325
 230   6 C      2.760     0.294    22.016     7.684
 231   8 O      0.858    -0.509    23.977     6.565
 232   6 C      3.803    -0.092    22.261     6.717
 233   6 C      2.685     0.375    20.645     7.436
 234   8 O      0.856    -0.617    26.551     6.909
 235   8 O      0.856    -0.617    26.542     6.907
 236   1 H      0.860     0.201     1.103     1.645
 237   1 H      0.924     0.043     2.412     2.429
 238   1 H      0.924     0.029     2.605     2.524
 239   1 H      0.924     0.039     2.457     2.451
 240   7 N      2.694    -0.169    24.654     7.374
 241   6 C      3.793     0.036    19.978     6.365
 242   6 C      2.768     0.200    23.740     7.980
 243   8 O      0.856    -0.354    20.788     6.113
 244   6 C      3.807    -0.045    21.367     6.580
 245   6 C      3.800    -0.087    22.161     6.702
 246   6 C      2.685     0.373    20.680     7.442
 247   8 O      0.856    -0.625    26.730     6.932
 248   8 O      0.856    -0.645    27.264     7.001
 249   1 H      0.860     0.207     1.072     1.622
 250   1 H      0.924     0.075     2.033     2.230
 251   1 H      0.924     0.053     2.281     2.362
 252   1 H      0.924     0.054     2.272     2.357
 253   1 H      0.925     0.027     2.628     2.535
 254   1 H      0.924     0.007     2.938     2.680
 255   1 H      0.862     0.191     1.153     1.682
 256   1 H      0.930     0.081     1.972     2.196
 257   1 H      0.862     0.194     1.135     1.669
 258   1 H      0.930     0.085     1.928     2.171
 259   1 H      0.862     0.198     1.118     1.657
 260   1 H      0.930     0.086     1.913     2.163

 Mol. C6AA /au·bohr⁶  :     649937.213143
 Mol. C8AA /au·bohr⁸  :   14646331.165498
 Mol. α(0) /au        :       1207.183740


Wiberg/Mayer (AO) data.
largest (>0.10) Wiberg bond orders for each atom
          total WBO             WBO to atom ...
     1  N   2.994        C    2 1.029    H  255 0.948    H    9 0.947
     2  C   3.988        N    1 1.029    C    5 0.961    H   10 0.949    C    3 0.942
     3  C   3.938        O    4 1.648    N   18 1.276    C    2 0.942
     4  O   1.967        C    3 1.648    N   18 0.185
     5  C   3.993        C    6 1.016    H   11 0.974    H   12 0.971    C    2 0.961
     6  C   3.983        C    5 1.016    S    7 0.989    H   14 0.976    H   13 0.967
     7  S   2.082        C    8 1.011    C    6 0.989
     8  C   3.973        S    7 1.011    H   17 0.983    H   16 0.982    H   15 0.977
     9  H   0.973        N    1 0.947
    10  H   0.998        C    2 0.949
    11  H   0.998        C    5 0.974
    12  H   0.996        C    5 0.971
    13  H   0.997        C    6 0.967
    14  H   0.998        C    6 0.976
    15  H   0.993        C    8 0.977
    16  H   0.996        C    8 0.982
    17  H   0.997        C    8 0.983
    18  N   3.440        C    3 1.276    C   19 0.981    H   27 0.922    O    4 0.185
    19  C   3.970        N   18 0.981    C   22 0.961    H   28 0.959    C   20 0.944
    20  C   3.952        O   21 1.635    N   33 1.300    C   19 0.944
    21  O   1.959        C   20 1.635    N   33 0.195
    22  C   3.992        C   23 1.012    H   29 0.975    H   30 0.973    C   19 0.961
    23  C   3.988        C   22 1.012    H   32 0.978    H   31 0.966    C   24 0.901
    24  C   3.932        O   26 1.508    O   25 1.501    C   23 0.901
    25  O   1.792        C   24 1.501    O   26 0.217
    26  O   1.801        C   24 1.508    O   25 0.217
    27  H   0.959        N   18 0.922
    28  H   0.996        C   19 0.959
    29  H   0.998        C   22 0.975
    30  H   0.998        C   22 0.973
    31  H   1.000        C   23 0.966
    32  H   0.999        C   23 0.978
    33  N   3.457        C   20 1.300    C   34 0.976    H   42 0.914    O   21 0.195
    34  C   3.953        N   33 0.976    C   37 0.961    H   43 0.946    C   35 0.937
    35  C   3.949        O   36 1.637    N   50 1.300    C   34 0.937
    36  O   1.963        C   35 1.637    N   50 0.195
    37  C   3.980        C   38 1.003    H   44 0.972    H   45 0.969    C   34 0.961
    38  C   3.992        C   37 1.003    C   39 0.972    H   47 0.969    H   46 0.948
    39  C   3.953        O   40 1.630    N   41 1.319    C   38 0.972
    40  O   1.952        C   39 1.630    N   41 0.199
    41  N   3.405        C   39 1.319    H   48 0.935    H   49 0.917    O   40 0.199
    42  H   0.956        N   33 0.914
    43  H   0.994        C   34 0.946
    44  H   0.993        C   37 0.972
    45  H   0.993        C   37 0.969
    46  H   0.994        C   38 0.948
    47  H   0.997        C   38 0.969
    48  H   0.954        N   41 0.935
    49  H   0.939        N   41 0.917
    50  N   3.459        C   35 1.300    C   51 0.976    H   58 0.899    O   36 0.195
    51  C   3.963        N   50 0.976    C   54 0.971    H   59 0.955    C   52 0.941
    52  C   3.953        O   53 1.608    N   69 1.324    C   51 0.941
    53  O   1.982        C   52 1.608    N   69 0.202
    54  C   3.989        C   55 0.990    H   61 0.972    H   60 0.972    C   51 0.971
    55  C   3.995        C   57 1.011    C   56 1.009    C   54 0.990    H   62 0.967
    56  C   3.995        C   55 1.009    H   65 0.988    H   64 0.986    H   63 0.984
    57  C   3.995        C   55 1.011    H   67 0.986    H   68 0.984    H   66 0.983
    58  H   0.951        N   50 0.899
    59  H   0.994        C   51 0.955
    60  H   0.998        C   54 0.972
    61  H   0.999        C   54 0.972
    62  H   0.998        C   55 0.967
    63  H   0.997        C   56 0.984
    64  H   0.998        C   56 0.986
    65  H   0.999        C   56 0.988
    66  H   0.997        C   57 0.983
    67  H   0.999        C   57 0.986
    68  H   0.999        C   57 0.984
    69  N   3.491        C   52 1.324    C   70 0.971    H   78 0.918    O   53 0.202
    70  C   3.949        N   69 0.971    C   73 0.962    H   79 0.950    C   71 0.933
    71  C   3.950        O   72 1.642    N   91 1.298    C   70 0.933
    72  O   1.966        C   71 1.642    N   91 0.200
    73  C   3.977        C   74 1.005    H   80 0.969    H   81 0.969    C   70 0.962
    74  C   3.990        C   73 1.005    C   75 1.001    H   83 0.974    H   82 0.972
    75  C   3.980        C   76 1.009    C   74 1.001    H   85 0.970    H   84 0.968
    76  C   3.916        C   75 1.009    H   86 0.965    H   87 0.960    N   77 0.959
    77  N   3.662        C   76 0.959    H   89 0.896    H   90 0.894    H   88 0.885
    78  H   0.952        N   69 0.918
    79  H   0.996        C   70 0.950
    80  H   0.993        C   73 0.969
    81  H   0.993        C   73 0.969
    82  H   0.997        C   74 0.972
    83  H   0.998        C   74 0.974
    84  H   0.992        C   75 0.968
    85  H   0.990        C   75 0.970
    86  H   0.987        C   76 0.965
    87  H   0.989        C   76 0.960
    88  H   0.910        N   77 0.885
    89  H   0.913        N   77 0.896
    90  H   0.906        N   77 0.894
    91  N   3.471        C   71 1.298    C   92 0.981    H   98 0.897    O   72 0.200
    92  C   3.964        N   91 0.981    C   95 0.959    H   99 0.954    C   93 0.935
    93  C   3.950        O   94 1.628    N  107 1.306    C   92 0.935
    94  O   1.986        C   93 1.628    N  107 0.200
    95  C   3.991        C   97 1.009    C   96 1.007    H  100 0.964    C   92 0.959
    96  C   3.994        C   95 1.007    H  103 0.985    H  101 0.985    H  102 0.984
    97  C   3.994        C   95 1.009    H  105 0.985    H  104 0.984    H  106 0.983
    98  H   0.953        N   91 0.897
    99  H   0.993        C   92 0.954
   100  H   0.998        C   95 0.964
   101  H   0.997        C   96 0.985
   102  H   0.999        C   96 0.984
   103  H   0.997        C   96 0.985
   104  H   0.998        C   97 0.984
   105  H   0.997        C   97 0.985
   106  H   0.999        C   97 0.983
   107  N   3.479        C   93 1.306    C  108 0.975    H  116 0.918    O   94 0.200
   108  C   3.957        N  107 0.975    C  111 0.965    H  117 0.955    C  109 0.935
   109  C   3.947        O  110 1.650    N  129 1.286    C  108 0.935
   110  O   1.968        C  109 1.650    N  129 0.198
   111  C   3.981        C  112 1.004    H  118 0.972    H  119 0.972    C  108 0.965
   112  C   3.987        C  111 1.004    C  113 1.002    H  121 0.974    H  120 0.969
   113  C   3.986        C  114 1.011    C  112 1.002    H  123 0.972    H  122 0.970
   114  C   3.916        C  113 1.011    H  124 0.965    H  125 0.963    N  115 0.959
   115  N   3.663        C  114 0.959    H  128 0.898    H  127 0.893    H  126 0.893
   116  H   0.953        N  107 0.918
   117  H   0.995        C  108 0.955
   118  H   0.995        C  111 0.972
   119  H   0.995        C  111 0.972
   120  H   0.995        C  112 0.969
   121  H   0.997        C  112 0.974
   122  H   0.993        C  113 0.970
   123  H   0.994        C  113 0.972
   124  H   0.987        C  114 0.965
   125  H   0.986        C  114 0.963
   126  H   0.905        N  115 0.893
   127  H   0.908        N  115 0.893
   128  H   0.913        N  115 0.898
   129  N   3.468        C  109 1.286    C  130 0.988    H  140 0.921    O  110 0.198
   130  C   3.968        N  129 0.988    C  131 0.983    H  141 0.952    C  133 0.926
   131  C   3.901        O  132 1.901    C  130 0.983    H  256 0.953
   132  O   2.047        C  131 1.901
   133  C   3.986        C  134 1.009    H  143 0.971    H  142 0.966    C  130 0.926
   134  C   3.988        C  135 1.416    C  136 1.408    C  133 1.009    C  139 0.110
   135  C   3.991        C  137 1.442    C  134 1.416    H  144 0.968    C  138 0.110
   136  C   3.991        C  138 1.448    C  134 1.408    H  145 0.968    C  137 0.111
   137  C   3.991        C  135 1.442    C  139 1.441    H  146 0.970    C  136 0.111
   138  C   3.992        C  136 1.448    C  139 1.436    H  147 0.971    C  135 0.110
   139  C   3.991        C  137 1.441    C  138 1.436    H  148 0.971    C  134 0.110
   140  H   0.955        N  129 0.921
   141  H   0.991        C  130 0.952
   142  H   0.995        C  133 0.966
   143  H   0.996        C  133 0.971
   144  H   0.998        C  135 0.968
   145  H   0.999        C  136 0.968
   146  H   0.998        C  137 0.970
   147  H   0.998        C  138 0.971
   148  H   0.998        C  139 0.971
   149  N   2.992        C  150 1.016    H  157 0.958    H  257 0.947
   150  C   3.982        N  149 1.016    C  153 0.966    H  158 0.955    C  151 0.945
   151  C   3.939        O  152 1.621    N  163 1.308    C  150 0.945
   152  O   1.932        C  151 1.621    N  163 0.195
   153  C   3.994        H  160 0.972    C  154 0.967    C  150 0.966    H  159 0.947
   154  C   3.953        O  155 1.651    N  156 1.306    C  153 0.967
   155  O   1.960        C  154 1.651    N  156 0.201
   156  N   3.393        C  154 1.306    H  162 0.935    H  161 0.918    O  155 0.201
   157  H   0.977        N  149 0.958
   158  H   0.996        C  150 0.955
   159  H   0.993        C  153 0.947
   160  H   0.998        C  153 0.972
   161  H   0.939        N  156 0.918
   162  H   0.955        N  156 0.935
   163  N   3.461        C  151 1.308    C  164 0.978    H  168 0.884    O  152 0.195
   164  C   3.972        C  167 0.988    N  163 0.978    H  169 0.953    C  165 0.943
   165  C   3.948        O  166 1.621    N  173 1.308    C  164 0.943
   166  O   1.967        C  165 1.621    N  173 0.196
   167  C   3.991        C  164 0.988    H  170 0.986    H  171 0.983    H  172 0.981
   168  H   0.943        N  163 0.884
   169  H   0.996        C  164 0.953
   170  H   0.999        C  167 0.986
   171  H   0.996        C  167 0.983
   172  H   0.995        C  167 0.981
   173  N   3.483        C  165 1.308    C  174 0.988    H  180 0.910    O  166 0.196
   174  C   3.957        N  173 0.988    C  177 0.946    H  181 0.940    C  175 0.939
   175  C   3.933        O  176 1.609    N  189 1.303    C  174 0.939
   176  O   1.938        C  175 1.609    N  189 0.189
   177  C   3.981        C  179 1.010    C  178 1.005    H  182 0.964    C  174 0.946
   178  C   3.984        C  177 1.005    H  185 0.985    H  183 0.978    H  184 0.976
   179  C   3.993        C  177 1.010    H  188 0.985    H  187 0.983    H  186 0.982
   180  H   0.960        N  173 0.910
   181  H   0.992        C  174 0.940
   182  H   0.996        C  177 0.964
   183  H   0.991        C  178 0.978
   184  H   0.995        C  178 0.976
   185  H   0.998        C  178 0.985
   186  H   0.995        C  179 0.982
   187  H   0.999        C  179 0.983
   188  H   1.000        C  179 0.985
   189  N   3.457        C  175 1.303    C  190 0.997    H  199 0.873    O  176 0.189
   190  C   3.973        N  189 0.997    H  200 0.953    C  193 0.946    C  191 0.945
   191  C   3.953        O  192 1.613    N  206 1.310    C  190 0.945
   192  O   1.956        C  191 1.613    N  206 0.194
   193  C   3.992        C  194 1.013    H  201 0.966    H  202 0.963    C  190 0.946
   194  C   3.972        C  196 1.544    N  195 1.280    C  193 1.013
   195  N   3.002        C  197 1.526    C  194 1.280    N  198 0.104
   196  C   3.942        C  194 1.544    N  198 1.228    H  203 0.967    C  197 0.116
   197  C   3.951        N  195 1.526    N  198 1.280    H  204 0.964    C  196 0.116
   198  N   3.603        C  197 1.280    C  196 1.228    H  205 0.895    N  195 0.104
   199  H   0.938        N  189 0.873
   200  H   0.996        C  190 0.953
   201  H   0.994        C  193 0.966
   202  H   0.998        C  193 0.963
   203  H   1.000        C  196 0.967
   204  H   0.998        C  197 0.964
   205  H   0.960        N  198 0.895
   206  N   3.482        C  191 1.310    C  207 0.985    H  212 0.907    O  192 0.194
   207  C   3.960        C  208 0.989    N  206 0.985    H  213 0.938    C  210 0.925
   208  C   3.899        O  209 1.888    C  207 0.989    H  258 0.952
   209  O   2.066        C  208 1.888
   210  C   3.948        O  211 1.016    H  214 0.965    H  215 0.962    C  207 0.925
   211  O   1.976        C  210 1.016    H  216 0.878
   212  H   0.956        N  206 0.907
   213  H   0.989        C  207 0.938
   214  H   0.995        C  210 0.965
   215  H   0.992        C  210 0.962
   216  H   0.895        O  211 0.878
   217  N   2.990        C  218 1.027    H  259 0.947    H  223 0.932
   218  C   3.988        N  217 1.027    C  221 0.960    H  224 0.958    C  219 0.942
   219  C   3.936        O  220 1.613    N  228 1.305    C  218 0.942
   220  O   1.951        C  219 1.613    N  228 0.189
   221  C   3.960        O  222 1.002    H  226 0.969    H  225 0.961    C  218 0.960
   222  O   1.921        C  221 1.002    H  227 0.865
   223  H   0.969        N  217 0.932
   224  H   0.998        C  218 0.958
   225  H   0.997        C  221 0.961
   226  H   1.000        C  221 0.969
   227  H   0.878        O  222 0.865
   228  N   3.471        C  219 1.305    C  229 0.969    H  236 0.925    O  220 0.189
   229  C   3.966        C  232 0.979    N  228 0.969    H  237 0.958    C  230 0.931
   230  C   3.949        O  231 1.609    N  240 1.304    C  229 0.931
   231  O   1.923        C  230 1.609    N  240 0.187
   232  C   3.983        C  229 0.979    H  238 0.977    H  239 0.965    C  233 0.908
   233  C   3.935        O  234 1.516    O  235 1.480    C  232 0.908
   234  O   1.850        C  233 1.516    O  235 0.210
   235  O   1.816        C  233 1.480    O  234 0.210
   236  H   0.959        N  228 0.925
   237  H   0.998        C  229 0.958
   238  H   0.998        C  232 0.977
   239  H   0.998        C  232 0.965
   240  N   3.474        C  230 1.304    C  241 0.969    H  249 0.912    O  231 0.187
   241  C   3.959        C  242 0.980    N  240 0.969    H  250 0.959    C  244 0.949
   242  C   3.889        O  243 1.878    C  241 0.980    H  260 0.952
   243  O   2.050        C  242 1.878
   244  C   3.988        C  245 1.001    H  252 0.975    H  251 0.969    C  241 0.949
   245  C   3.985        C  244 1.001    H  253 0.982    H  254 0.971    C  246 0.906
   246  C   3.937        O  247 1.522    O  248 1.486    C  245 0.906
   247  O   1.814        C  246 1.522    O  248 0.220
   248  O   1.773        C  246 1.486    O  247 0.220
   249  H   0.957        N  240 0.912
   250  H   0.994        C  241 0.959
   251  H   0.997        C  244 0.969
   252  H   0.996        C  244 0.975
   253  H   0.999        C  245 0.982
   254  H   1.000        C  245 0.971
   255  H   0.963        N    1 0.948
   256  H   0.993        C  131 0.953
   257  H   0.962        N  149 0.947
   258  H   0.992        C  208 0.952
   259  H   0.960        N  217 0.947
   260  H   0.992        C  242 0.952
 
molecular dipole:
                 x           y           z       tot (Debye)
 q only:      -61.645     -88.918    -125.865
   full:      -60.899     -86.391    -127.301     420.571
molecular quadrupole (traceless):
                xx          xy          yy          xz          yz          zz
 q only:     7773.730   -6315.260    1993.398  -13049.360  -18587.562   -9767.128
  q+dip:     7902.132   -6150.472    2498.349  -12955.739  -18099.710  -10400.481
   full:     7912.055   -6142.372    2489.739  -12956.185  -18097.135  -10401.794


           -------------------------------------------------
          | TOTAL ENERGY             -412.089209403310 Eh   |
          | GRADIENT NORM               0.390285765775 Eh/α |
          | HOMO-LUMO GAP               1.348179068409 eV   |
           -------------------------------------------------

------------------------------------------------------------------------
 * finished run on 2019/05/31 at 06:33:36.520     
------------------------------------------------------------------------
 total:
 * wall-time:     0 d,  0 h,  0 min,  5.749 sec
 *  cpu-time:     0 d,  0 h,  0 min, 10.909 sec
 * ratio c/w:     1.897 speedup
 SCF:
 * wall-time:     0 d,  0 h,  0 min,  5.219 sec
 *  cpu-time:     0 d,  0 h,  0 min, 10.004 sec
 * ratio c/w:     1.917 speedup

