      -----------------------------------------------------------      
     |                   =====================                   |     
     |                           x T B                           |     
     |                   =====================                   |     
     |                         S. Grimme                         |     
     |          Mulliken Center for Theoretical Chemistry        |     
     |                    University of Bonn                     |     
     |                 Version 6.0.1 (SAW181210)                 |     
      -----------------------------------------------------------      

   This program is distributed in the hope that it will be useful,
   but WITHOUT ANY WARRANTY; without even the implied warranty of
   MERCHANTABILITY or FITNESS FOR A PARTICULAR PURPOSE.
   
   FOR NON-COMMERCIAL, ACADEMIA USE ONLY.
   
   Cite this work as:
   S. Grimme, C. Bannwarth, P. Shushkov, J. Comput. Theory Chem., 2017,
   13, 1989-2009.
   C. Bannwarth, S. Ehlert and S. Grimme., ChemRxiv, 2018, preprint.
   http://doi.org/10.26434/chemrxiv.7246238.v1
   
   for sTDA-xTB:
   S. Grimme and C. Bannwarth, J. Chem. Phys., 2016, 145, 054103.
   
   in the mass-spec context:
   V. Asgeirsson, C. Bauer and S. Grimme, Chem. Sci., 2017, 8, 4879.
   
   if GBSA is used:
   P. Shushkov, F. März and S. Grimme, unpublished.
   
   for ANC optimizer:
   S. Grimme, unpublished.
   Rational Function algorithm used in ANCopt:
   F. Eckert, P. Pulay, H.-J. Werner, J. Comput. Chem., 1997, 18, 1473.
   
   with help from (in alphabetical order)
   C. Bannwarth, F. Bohle, G. Brandenburg, E. Caldeweyher, M. Checinski,
   S. Dohm, S. Ehlert, S. Ehrlich, F. März, H. Neugebauer, J. Pisarek,
   P. Pracht, P. Shushkov, and S. Spicher.
   
 * started run on 2019/03/14 at 15:08:19.044     
========================================================================
 # omp threads = 1
========================================================================
number of atoms            : 306
number of electrons        : 814
charge                     : 0
spin                       : .0
first test random number   : .2402
           ------------------------------------------------- 
          |                 G F N 2 - x T B                 |
          | Geometry, Frequencies, Noncovalent interactions |
          |            JCTC 2018 parametrisation            |
           ------------------------------------------------- 
 
      method parameters     
 k(s)        :  1.8500
 k(p)        :  2.2300
 k(d)        :  2.2300
 k(f)        :  2.0000
 kEN (H0ij)  : -2.0000
 D4 a1       :  0.5200
 D4 a2       :  5.0000
 D4 s6       :  1.0000
 D4 s8       :  2.7000
 D4 s9       :  5.0000
 alphaj      :  2.0000

 Solvent             : h2o
 Using internal parameter file: .param_gbsa2_h2o
 Gsolv ref. state (COSMO-RS): gsolv [1 M gas/solution]
 temperature (mdtemp)       :    298.150000000000     
 dielectric constant        :    80.2000000000000     
 rho                        :    1.00000000000000     
 mass                       :    18.0000000000000     
 surface tension            :    15.5689454083859     
 probe radius               :   0.975313790000000     
 vdW radii scaling          :    1.00000000000000     
 Gshift (Eh)                :   1.857443126794793E-003
 c1                         :    1.55243817000000     
 soset                      :   0.130326360000000     
 HB correction              :  T

            Z     q(EN)     CN     RAES       Cart. coordinates
     1  N   5.0   -0.21    3.24    1.97   124.80955    96.72480    91.80589
     2  C   4.0    0.03    4.33    4.25   123.67911    94.41306    90.82438
     3  C   4.0    0.15    3.40    3.08   121.81859    95.02887    88.68418
     4  O   6.0   -0.28    1.22    1.80   122.02388    94.20349    86.54507
     5  C   4.0   -0.04    4.32    4.24   122.39564    92.99416    92.98931
     6  C   4.0   -0.02    3.53    3.13   124.15358    92.20234    95.10769
     7  C   4.0   -0.04    3.47    3.10   123.07687    91.32182    97.34426
     8  C   4.0   -0.04    3.48    3.11   126.77389    92.28796    94.93146
     9  C   4.0   -0.04    3.37    3.07   124.57261    90.55024    99.34382
    10  C   4.0   -0.04    3.37    3.07   128.27432    91.52385    96.93955
    11  C   4.0   -0.04    3.37    3.07   127.18198    90.66036    99.15198
    12  H   1.0    0.08    1.03    1.43   124.69255    96.99849    93.68957
    13  H   1.0    0.05    1.05    1.44   125.14687    93.23734    89.95019
    14  H   1.0    0.04    1.03    1.43   120.89455    94.16863    93.79268
    15  H   1.0    0.04    1.03    1.43   121.48801    91.31287    92.20378
    16  H   1.0    0.05    1.03    1.43   121.04590    91.21837    97.51924
    17  H   1.0    0.05    1.03    1.43   127.69313    92.92274    93.22602
    18  H   1.0    0.05    1.03    1.43   123.69715    89.85509   101.05271
    19  H   1.0    0.05    1.03    1.43   130.30832    91.58630    96.76520
    20  H   1.0    0.05    1.03    1.43   128.35048    90.06518   100.71506
    21  N   5.0   -0.15    3.49    2.07   119.96001    96.63262    89.36490
    22  C   4.0    0.04    4.36    4.31   117.88883    97.15506    87.65156
    23  C   4.0    0.09    3.23    3.04   118.71778    99.00003    85.62035
    24  O   6.0   -0.27    1.12    1.80   117.81930    98.94385    83.48240
    25  C   4.0   -0.04    4.31    4.22   115.58639    98.20844    89.06350
    26  C   4.0   -0.02    3.56    3.14   114.77333    96.53609    91.22766
    27  C   4.0   -0.04    3.47    3.10   113.62514    97.61893    93.32790
    28  C   4.0   -0.04    3.49    3.11   115.17024    93.93805    91.21445
    29  C   4.0   -0.05    3.43    3.09   112.97756    96.17460    95.40312
    30  C   4.0   -0.04    3.43    3.09   114.55048    92.47428    93.28380
    31  C   4.0    0.07    3.45    3.09   113.50343    93.59988    95.42085
    32  O   6.0   -0.26    2.13    1.84   113.08735    92.14097    97.48517
    33  H   1.0    0.08    1.07    1.44   119.71676    97.10188    91.19819
    34  H   1.0    0.06    1.06    1.44   117.38457    95.40467    86.65894
    35  H   1.0    0.04    1.03    1.43   116.00931   100.09328    89.79500
    36  H   1.0    0.05    1.03    1.43   114.04313    98.42780    87.70596
    37  H   1.0    0.05    1.03    1.43   113.24792    99.62361    93.35557
    38  H   1.0    0.05    1.03    1.43   116.00404    93.03118    89.58865
    39  H   1.0    0.05    1.03    1.43   112.09813    97.05266    97.02514
    40  H   1.0    0.05    1.03    1.43   114.89586    90.46347    93.27628
    41  H   1.0    0.11    1.03    1.43   112.36911    93.12488    98.84753
    42  N   5.0   -0.21    3.23    1.96   111.90147    54.01243    89.49740
    43  C   4.0    0.03    4.26    4.11   111.55546    56.28562    88.00448
    44  C   4.0    0.08    3.20    3.04   112.94150    55.97751    85.49508
    45  O   6.0   -0.28    1.11    1.80   111.99229    56.56642    83.47138
    46  C   4.0   -0.04    4.30    4.20   112.35543    58.65802    89.43209
    47  C   4.0   -0.02    3.56    3.14   110.95999    58.91959    91.90753
    48  C   4.0   -0.05    3.46    3.10   112.16867    59.99100    93.98176
    49  C   4.0   -0.04    3.49    3.11   108.46965    58.13289    92.17829
    50  C   4.0   -0.04    3.43    3.09   110.93230    60.27026    96.26256
    51  C   4.0   -0.04    3.43    3.09   107.21608    58.38042    94.45581
    52  C   4.0    0.07    3.45    3.09   108.44053    59.45692    96.51545
    53  O   6.0   -0.24    2.11    1.84   107.28740    59.73937    98.79339
    54  H   1.0    0.08    1.02    1.43   113.16776    53.97459    90.92471
    55  H   1.0    0.05    1.06    1.44   109.54853    56.39191    87.51163
    56  H   1.0    0.04    1.03    1.43   114.38904    58.63020    89.77884
    57  H   1.0    0.05    1.03    1.43   111.95070    60.27866    88.21405
    58  H   1.0    0.05    1.03    1.43   114.09509    60.64300    93.80673
    59  H   1.0    0.05    1.03    1.43   107.45460    57.31380    90.61266
    60  H   1.0    0.06    1.03    1.43   111.86167    61.12443    97.86442
    61  H   1.0    0.05    1.03    1.43   105.27976    57.74553    94.62563
    62  H   1.0    0.12    1.04    1.43   105.55623    59.16180    98.70543
    63  N   5.0   -0.22    3.24    1.97   105.72149    80.65674    80.76754
    64  C   4.0    0.02    4.34    4.27   104.15669    81.59904    82.79791
    65  C   4.0    0.14    3.45    3.10   103.75186    79.69182    84.93781
    66  O   6.0   -0.30    1.22    1.80   103.08728    80.42015    87.03532
    67  C   4.0   -0.03    4.33    4.26   101.53104    82.34129    81.86702
    68  C   4.0   -0.04    4.23    4.07   101.64453    84.61276    80.10876
    69  C   4.0    0.15    3.23    3.04    99.02569    85.22627    79.12223
    70  O   6.0   -0.28    1.22    1.80    97.13271    84.08487    79.77857
    71  N   5.0   -0.19    3.18    1.95    98.93625    87.08862    77.39092
    72  H   1.0    0.08    1.03    1.43   104.79930    79.56231    79.49731
    73  H   1.0    0.04    1.06    1.44   105.05745    83.24708    83.65854
    74  H   1.0    0.05    1.03    1.43   100.68784    80.73180    80.89114
    75  H   1.0    0.07    1.03    1.43   100.36515    82.77645    83.51361
    76  H   1.0    0.04    1.03    1.43   102.39720    86.23196    81.13867
    77  H   1.0    0.04    1.03    1.43   102.90665    84.19388    78.53091
    78  H   1.0    0.08    1.03    1.43   100.45812    88.15471    77.00551
    79  H   1.0    0.10    1.03    1.43    97.21775    87.65841    76.79338
    80  N   5.0   -0.15    3.54    2.11   104.22010    77.28264    84.35309
    81  C   4.0    0.03    4.44    4.45   104.06694    75.20461    86.12517
    82  C   4.0    0.14    3.46    3.10   106.59595    74.88540    87.46441
    83  O   6.0   -0.33    1.33    1.80   106.75154    74.57336    89.76602
    84  C   4.0   -0.05    4.27    4.15   103.34843    72.78152    84.72609
    85  C   4.0   -0.05    4.20    4.00   100.75667    73.06351    83.49267
    86  C   4.0    0.00    4.25    4.10    98.70136    73.76441    85.41871
    87  N   5.0   -0.14    3.41    2.02    96.32452    72.52611    84.87700
    88  C   4.0    0.10    3.37    3.07    95.92237    70.10051    85.36514
    89  N   5.0   -0.18    3.26    1.97    97.80448    68.54334    85.97710
    90  N   5.0   -0.18    3.24    1.97    93.57502    69.22033    85.18626
    91  H   1.0    0.07    1.08    1.44   104.75964    76.84362    82.57121
    92  H   1.0    0.07    1.06    1.44   102.66593    75.65335    87.58402
    93  H   1.0    0.04    1.03    1.43   104.76626    72.40894    83.27430
    94  H   1.0    0.05    1.03    1.43   103.35915    71.22864    86.07916
    95  H   1.0    0.04    1.03    1.43   100.86835    74.52599    82.04711
    96  H   1.0    0.05    1.03    1.43   100.22968    71.29896    82.57386
    97  H   1.0    0.07    1.04    1.43    99.24258    73.25673    87.34998
    98  H   1.0    0.06    1.03    1.43    98.38977    75.79812    85.42557
    99  H   1.0    0.08    1.07    1.44    94.82113    73.58916    84.39093
   100  H   1.0    0.09    1.04    1.43    99.44185    69.22651    86.67000
   101  H   1.0    0.09    1.04    1.43    97.37430    66.72662    86.35694
   102  H   1.0    0.09    1.04    1.43    92.35849    70.19668    84.08541
   103  H   1.0    0.09    1.03    1.43    93.19478    67.35637    85.35586
   104  N   5.0   -0.15    3.54    2.10   108.63081    75.02592    85.99953
   105  C   4.0    0.03    4.44    4.45   111.13442    74.90869    87.07049
   106  C   4.0    0.15    3.49    3.11   111.70252    76.96174    89.04140
   107  O   6.0   -0.32    1.30    1.80   113.04822    76.35769    90.84118
   108  C   4.0   -0.05    4.35    4.29   113.10969    74.92027    84.96352
   109  C   4.0   -0.03    4.19    3.99   112.75194    72.75664    83.05775
   110  C   4.0   -0.08    4.11    3.82   114.69517    73.00425    80.94164
   111  C   4.0   -0.08    4.11    3.82   112.99078    70.16593    84.29523
   112  H   1.0    0.07    1.07    1.44   108.47372    75.29718    84.10941
   113  H   1.0    0.05    1.06    1.44   111.30063    73.14787    88.15830
   114  H   1.0    0.04    1.03    1.43   112.99445    76.73234    83.98105
   115  H   1.0    0.04    1.03    1.43   114.96237    74.75585    85.85000
   116  H   1.0    0.04    1.06    1.44   110.86717    72.91160    82.22582
   117  H   1.0    0.04    1.00    1.43   114.46503    71.46739    79.59806
   118  H   1.0    0.04    1.00    1.43   114.45313    74.78701    79.95077
   119  H   1.0    0.04    1.00    1.43   116.59487    72.92354    81.71593
   120  H   1.0    0.04    1.00    1.43   112.82221    68.69766    82.86965
   121  H   1.0    0.04    1.00    1.43   114.80935    69.96385    85.22892
   122  H   1.0    0.04    1.00    1.43   111.49968    69.87678    85.67396
   123  N   5.0   -0.10    3.65    2.20   110.88209    79.33535    88.74820
   124  C   4.0    0.03    4.59    4.65   111.44774    81.28069    90.60935
   125  C   4.0    0.15    3.49    3.11   109.86338    80.96642    92.98947
   126  O   6.0   -0.32    1.34    1.80   110.83968    81.15614    95.07942
   127  C   4.0   -0.05    4.31    4.22   110.84098    83.79208    89.30104
   128  C   4.0   -0.04    4.25    4.09   108.78715    83.10268    87.39000
   129  C   4.0   -0.01    4.43    4.42   109.06308    80.25816    86.92629
   130  H   1.0    0.05    1.05    1.44   113.42484    81.14587    91.19905
   131  H   1.0    0.04    1.02    1.43   110.18874    85.19098    90.66210
   132  H   1.0    0.04    1.02    1.43   112.51603    84.53328    88.36427
   133  H   1.0    0.05    1.02    1.43   106.90473    83.49767    88.13111
   134  H   1.0    0.04    1.02    1.43   109.01946    84.09035    85.60456
   135  H   1.0    0.06    1.08    1.44   107.25587    79.32636    87.21465
   136  H   1.0    0.04    1.02    1.43   109.68522    79.87768    85.00153
   137  N   5.0   -0.14    3.51    2.09   107.38528    80.52845    92.73794
   138  C   4.0    0.03    4.44    4.45   105.92298    80.16860    95.02766
   139  C   4.0    0.16    3.52    3.12   107.07619    77.96198    96.50863
   140  O   6.0   -0.30    1.25    1.80   107.35580    78.04488    98.80131
   141  C   4.0   -0.04    4.24    4.09   103.11567    79.78633    94.44155
   142  C   4.0   -0.02    4.20    4.01   102.53502    77.23036    93.27195
   143  C   4.0    0.26    3.08    3.02    99.78207    76.94085    92.22816
   144  O   6.0   -0.28    1.17    1.80    98.26942    78.71072    92.52896
   145  O   6.0   -0.29    1.18    1.80    99.35714    74.89663    91.13048
   146  H   1.0    0.09    1.06    1.44   106.46790    80.46073    91.07141
   147  H   1.0    0.05    1.05    1.44   106.16736    81.84180    96.23926
   148  H   1.0    0.06    1.03    1.43   102.04595    80.02555    96.18781
   149  H   1.0    0.06    1.03    1.43   102.49089    81.25295    93.12696
   150  H   1.0    0.07    1.04    1.43   103.77309    76.89740    91.66118
   151  H   1.0    0.06    1.02    1.43   102.82686    75.69566    94.62270
   152  N   5.0   -0.14    3.53    2.10   107.81748    75.98883    95.09911
   153  C   4.0    0.04    4.47    4.50   109.00955    73.82049    96.27425
   154  C   4.0    0.16    3.52    3.12   111.38997    74.75890    97.62272
   155  O   6.0   -0.32    1.32    1.80   111.74008    74.40123    99.88358
   156  C   4.0    0.06    4.23    4.07   109.68863    71.74500    94.33741
   157  O   6.0   -0.25    2.12    1.84   107.52653    70.72748    93.18221
   158  C   4.0   -0.07    4.11    3.81   111.05649    69.58550    95.66901
   159  H   1.0    0.10    1.09    1.44   107.36926    75.88934    93.24327
   160  H   1.0    0.06    1.05    1.44   107.72381    73.02576    97.70319
   161  H   1.0    0.06    1.04    1.43   110.93338    72.59213    92.90102
   162  H   1.0    0.15    1.07    1.44   106.79938    71.98741    92.06506
   163  H   1.0    0.05    1.00    1.43   111.52674    68.12162    94.31100
   164  H   1.0    0.04    1.00    1.43   112.76514    70.26143    96.58116
   165  H   1.0    0.05    1.00    1.43   109.80552    68.79044    97.08858
   166  N   5.0   -0.13    3.50    2.08   113.02998    75.99175    96.16702
   167  C   4.0    0.04    4.35    4.29   115.37330    76.98893    97.17094
   168  C   4.0    0.16    3.49    3.11   115.05298    78.28829    99.73735
   169  O   6.0   -0.27    1.24    1.80   116.59833    77.93873   101.41451
   170  C   4.0   -0.07    4.16    3.91   116.41230    78.98957    95.38394
   171  H   1.0    0.11    1.11    1.45   112.77274    76.17745    94.26883
   172  H   1.0    0.05    1.05    1.44   116.73431    75.44364    97.48230
   173  H   1.0    0.04    1.01    1.43   117.86050    80.08213    96.33848
   174  H   1.0    0.05    1.00    1.43   117.17449    78.13032    93.68435
   175  H   1.0    0.06    1.02    1.43   114.86838    80.25629    94.92661
   176  N   5.0   -0.14    3.51    2.09   113.20407    80.01587    99.87130
   177  C   4.0    0.04    4.43    4.43   112.84855    81.54713   102.10190
   178  C   4.0    0.17    3.41    3.08   111.94686    80.00967   104.38965
   179  O   6.0   -0.27    1.21    1.80   112.46520    80.67973   106.54411
   180  C   4.0   -0.04    4.36    4.31   110.88403    83.62126   101.64334
   181  C   4.0   -0.02    4.17    3.95   111.50588    85.49692    99.50953
   182  C   4.0   -0.07    4.11    3.83   109.88521    87.86658    99.82412
   183  C   4.0   -0.07    4.12    3.84   114.28899    86.23163    99.44669
   184  H   1.0    0.11    1.10    1.44   112.05914    80.35340    98.38002
   185  H   1.0    0.06    1.05    1.44   114.66768    82.37484   102.66619
   186  H   1.0    0.05    1.03    1.43   109.08927    82.68990   101.21948
   187  H   1.0    0.05    1.03    1.43   110.66746    84.64083   103.42514
   188  H   1.0    0.06    1.06    1.44   111.02944    84.59991    97.71008
   189  H   1.0    0.05    1.01    1.43   110.07727    89.09299    98.19098
   190  H   1.0    0.04    1.00    1.43   107.90745    87.35919   100.03574
   191  H   1.0    0.04    1.00    1.43   110.49857    88.90853   101.48684
   192  H   1.0    0.05    1.01    1.43   114.54208    87.76942    98.11301
   193  H   1.0    0.04    1.00    1.43   114.90404    86.86644   101.30089
   194  H   1.0    0.04    1.00    1.43   115.44969    84.63870    98.87192
   195  N   5.0   -0.13    3.52    2.09   110.43436    78.05792   103.84868
   196  C   4.0    0.04    4.33    4.25   109.26378    76.41877   105.70005
   197  C   4.0    0.16    3.37    3.07   111.06947    74.40617   106.79035
   198  O   6.0   -0.28    1.20    1.80   110.78136    73.55434   108.92609
   199  C   4.0   -0.06    4.13    3.86   107.07826    75.04233   104.41164
   200  H   1.0    0.11    1.10    1.44   110.04724    77.63581   102.02354
   201  H   1.0    0.06    1.05    1.44   108.59525    77.56501   107.29330
   202  H   1.0    0.05    1.00    1.43   106.15256    73.76040   105.71850
   203  H   1.0    0.06    1.00    1.43   105.71490    76.39909   103.69241
   204  H   1.0    0.06    1.00    1.43   107.81982    73.96980   102.82139
   205  N   5.0   -0.12    3.61    2.16   112.75787    73.58772   105.13056
   206  C   4.0    0.03    4.43    4.43   114.64929    71.62384   105.41890
   207  C   4.0    0.15    3.52    3.12   117.19652    72.96610   105.77491
   208  O   6.0   -0.25    1.33    1.80   117.34947    75.26012   105.49360
   209  C   4.0   -0.02    4.26    4.13   114.38196    69.98933   103.01099
   210  C   4.0   -0.07    4.09    3.78   116.46101    68.05025   102.54065
   211  C   4.0   -0.07    4.13    3.85   111.77283    68.72206   103.05071
   212  H   1.0    0.12    1.12    1.45   112.80962    74.49694   103.44857
   213  H   1.0    0.05    1.05    1.44   114.24968    70.51562   107.12092
   214  H   1.0    0.06    1.07    1.44   114.39497    71.33405   101.43835
   215  H   1.0    0.04    1.01    1.43   116.12848    67.26339   100.67573
   216  H   1.0    0.06    1.00    1.43   118.33524    68.89704   102.53267
   217  H   1.0    0.04    1.00    1.43   116.39092    66.51632   103.90549
   218  H   1.0    0.04    1.00    1.43   111.54593    67.46844   101.44023
   219  H   1.0    0.05    1.00    1.43   111.50949    67.63831   104.77583
   220  H   1.0    0.05    1.00    1.43   110.28821    70.14026   102.95613
   221  N   5.0   -0.09    3.66    2.22   119.27475    71.64068   106.42554
   222  C   4.0    0.04    4.61    4.68   121.61332    73.08887   106.41575
   223  C   4.0    0.16    3.45    3.09   122.28334    73.79614   103.69326
   224  O   6.0   -0.30    1.24    1.80   121.69150    72.47200   101.90172
   225  C   4.0   -0.05    4.29    4.17   123.64255    71.37173   107.55975
   226  C   4.0   -0.04    4.22    4.04   122.29429    68.89407   108.24534
   227  C   4.0   -0.02    4.29    4.18   119.45045    69.31157   107.86427
   228  H   1.0    0.06    1.05    1.44   121.31795    74.84800   107.47431
   229  H   1.0    0.04    1.03    1.43   125.12770    70.95949   106.19159
   230  H   1.0    0.04    1.02    1.43   124.49535    72.30715   109.17776
   231  H   1.0    0.04    1.03    1.43   122.95285    67.44023   106.95293
   232  H   1.0    0.04    1.02    1.43   122.71662    68.33247   110.17390
   233  H   1.0    0.04    1.03    1.43   118.59423    67.75580   106.82835
   234  H   1.0    0.04    1.01    1.43   118.41668    69.50441   109.65243
   235  N   5.0   -0.14    3.43    2.04   123.77768    75.84847   103.48714
   236  C   4.0    0.03    4.44    4.44   124.55409    76.80475   101.04155
   237  C   4.0    0.14    3.43    3.09   127.41990    77.25847   100.97046
   238  O   6.0   -0.31    1.23    1.80   128.44537    78.75960   102.38901
   239  C   4.0   -0.04    4.36    4.30   123.28550    79.32725   100.37059
   240  C   4.0   -0.02    4.20    4.01   123.81554    80.01943    97.61048
   241  C   4.0   -0.08    4.12    3.85   122.67494    78.03740    95.84077
   242  C   4.0   -0.08    4.10    3.79   122.81931    82.65321    96.99549
   243  H   1.0    0.09    1.06    1.44   123.97286    77.02108   104.97627
   244  H   1.0    0.06    1.08    1.44   123.97796    75.34310    99.70298
   245  H   1.0    0.06    1.02    1.43   121.25083    79.17263   100.69616
   246  H   1.0    0.05    1.03    1.43   124.04323    80.78685   101.61944
   247  H   1.0    0.04    1.06    1.44   125.87243    80.04665    97.35662
   248  H   1.0    0.03    1.00    1.43   122.06585    78.91207    94.08901
   249  H   1.0    0.04    1.00    1.43   124.04897    76.56950    95.42979
   250  H   1.0    0.05    1.01    1.43   121.04217    77.14718    96.70599
   251  H   1.0    0.04    1.00    1.43   123.15532    83.09039    95.01700
   252  H   1.0    0.04    1.00    1.43   120.79973    82.76681    97.35386
   253  H   1.0    0.04    1.00    1.43   123.76865    84.05805    98.15286
   254  N   5.0   -0.15    3.46    2.05   128.65823    76.00209    99.13755
   255  C   4.0    0.03    4.48    4.51   131.35478    76.23513    98.68005
   256  C   4.0    0.14    3.41    3.08   131.72383    76.39082    95.80033
   257  O   6.0   -0.30    1.22    1.80   131.07000    74.72323    94.35152
   258  C   4.0   -0.02    4.31    4.22   132.82255    74.02173    99.89231
   259  C   4.0   -0.04    4.20    4.00   132.68199    74.28122   102.77568
   260  C   4.0   -0.07    4.12    3.85   135.55607    74.00053    98.97815
   261  C   4.0   -0.08    4.01    3.63   133.43768    71.89264   104.19200
   262  H   1.0    0.08    1.07    1.44   127.75047    74.63662    98.16580
   263  H   1.0    0.05    1.06    1.44   131.94642    77.99404    99.59610
   264  H   1.0    0.05    1.05    1.44   131.89178    72.26424    99.32238
   265  H   1.0    0.04    1.03    1.43   133.88765    75.84788   103.36827
   266  H   1.0    0.06    1.04    1.43   130.75353    74.75996   103.32121
   267  H   1.0    0.04    1.00    1.43   136.57409    72.50369    99.94035
   268  H   1.0    0.05    1.00    1.43   135.61613    73.64839    96.95632
   269  H   1.0    0.04    1.00    1.43   136.46259    75.79518    99.40235
   270  H   1.0    0.04    1.00    1.43   133.24829    72.19945   106.21546
   271  H   1.0    0.04    1.00    1.43   132.20901    70.33339   103.66252
   272  H   1.0    0.04    1.00    1.43   135.38349    71.36663   103.80993
   273  N   5.0   -0.15    3.32    1.99   132.89692    78.51908    95.01402
   274  C   4.0    0.01    4.14    3.88   132.88736    79.37584    92.40461
   275  C   4.0    0.09    3.12    3.03   133.88387    77.52755    90.44179
   276  O   6.0   -0.30    1.15    1.80   133.21793    77.69007    88.22388
   277  H   1.0    0.07    1.07    1.44   133.12132    79.91976    96.29052
   278  H   1.0    0.05    1.03    1.43   130.98177    79.94878    91.83626
   279  H   1.0    0.04    1.03    1.43   134.11166    81.03703    92.28176
   280  N   5.0   -0.20    3.22    1.96   129.61380    74.05922    86.16009
   281  C   4.0    0.03    4.23    4.07   127.91108    75.85228    84.99665
   282  C   4.0    0.09    3.22    3.04   128.98559    76.77194    82.49273
   283  O   6.0   -0.28    1.11    1.80   127.71860    76.77099    80.55117
   284  C   4.0   -0.04    4.37    4.33   127.48724    78.15449    86.69287
   285  C   4.0   -0.02    4.18    3.96   126.57728    77.54444    89.37465
   286  C   4.0   -0.08    4.11    3.82   126.19664    80.03901    90.78580
   287  C   4.0   -0.08    4.11    3.82   124.15002    75.99682    89.32970
   288  H   1.0    0.11    1.05    1.44   130.70200    74.72723    87.58226
   289  H   1.0    0.05    1.05    1.44   126.13035    74.88696    84.56271
   290  H   1.0    0.06    1.04    1.43   129.27288    79.17725    86.83075
   291  H   1.0    0.04    1.03    1.43   126.09284    79.37156    85.78440
   292  H   1.0    0.06    1.05    1.44   128.03300    76.44381    90.35145
   293  H   1.0    0.04    1.00    1.43   126.35350    79.77590    92.81419
   294  H   1.0    0.04    1.00    1.43   127.58640    81.42335    90.17625
   295  H   1.0    0.04    1.00    1.43   124.33992    80.81376    90.37475
   296  H   1.0    0.04    1.00    1.43   123.50210    75.62461    91.23776
   297  H   1.0    0.04    1.00    1.43   122.64879    77.00156    88.34738
   298  H   1.0    0.04    1.00    1.43   124.47770    74.20255    88.38997
   299  H   1.0    0.09    1.07    1.44   126.46972    96.74590    91.43719
   300  H   1.0    0.06    1.05    1.44   120.02833   100.30530    86.00737
   301  H   1.0    0.09    1.07    1.44   110.43363    53.59880    90.25033
   302  H   1.0    0.06    1.05    1.44   114.69380    55.27074    85.46410
   303  H   1.0    0.09    1.07    1.44   106.38133    81.96561    79.90497
   304  H   1.0    0.06    1.04    1.44   135.09105    76.16641    90.95273
   305  H   1.0    0.09    1.07    1.44   128.71881    72.77255    86.82044
   306  H   1.0    0.07    1.05    1.44   130.76641    77.39761    82.40155

  Z AO/shell   Hii/eV     exponent
  1     Wed Apr 25 08:07:45 CEST 2018   EN: 2.200 GM2: 0.406  GM3: 0.0800  RAES: 1.40
     1s    -10.707211    1.230000
  6     Wed Apr 25 08:07:45 CEST 2018   EN: 2.550 GM2: 0.538  GM3: 0.1500  RAES: 3.00
     2s    -13.970922    2.096432
     2p    -10.063292    1.800000
  7     Wed Apr 25 08:07:45 CEST 2018   EN: 3.040 GM2: 0.461  GM3:-0.0640  RAES: 1.90
     2s    -16.686243    2.339881
     2p    -12.523956    2.014332
  8     Wed Apr 25 08:07:45 CEST 2018   EN: 3.440 GM2: 0.452  GM3:-0.0517  RAES: 1.80
     2s    -20.229985    2.439742
     2p    -15.503117    2.137023
 no old-style atom pair restraining (fixing) potential

molecular fragmentation (1/2 indicates fragments):
111111111111111111111111111111111111111112222222222222222222222222222222
222222222222222222222222222222222222222222222222222222222222222222222222
222222222222222222222222222222222222222222222222222222222222222222222222
222222222222222222222222222222222222222222222222222222222222222222222222
222222222211222222
# atoms in fragment 1/2:    43   263
 fragment masses (1/2) :      312.37     1742.13
CMA distance (Bohr)    :  20.643
constraining FC (au)   :  0.0500
           ------------------------------------------------- 
          |        Self-Consistent Charge Iterations        |
           ------------------------------------------------- 

 Ncao       : 744
 Nao        : 744
 Nshell     : 452
 Nel        : 814
 T(el)      :   500.0
 intcut     :    35.0
 scfconv/Eh :  0.100E-06
   qconv/e  :  0.100E-04
 intneglect :  0.100E-08
 broydamp   :      0.400
 iter      E             dE          RMSdq      gap      omega  full diag
   1   -462.6571068 -0.462657E+03  0.445E+00    3.16       0.0  T
   2   -463.6763738 -0.101927E+01  0.211E+00    2.10       1.0  T
   3   -463.7324305 -0.560567E-01  0.117E+00    2.27       1.0  T
   4   -463.7975164 -0.650859E-01  0.228E-01    1.70       1.0  T
   5   -463.8015349 -0.401855E-02  0.108E-01    1.82       1.0  T
   6   -463.8020971 -0.562196E-03  0.476E-02    1.84       1.0  T
   7   -463.8022889 -0.191762E-03  0.183E-02    1.86       1.0  T
   8   -463.8023054 -0.164746E-04  0.849E-03    1.88       1.0  T
   9   -463.8023093 -0.393810E-05  0.333E-03    1.89       1.7  T
  10   -463.8023101 -0.747798E-06  0.139E-03    1.89       4.1  T
  11   -463.8023101 -0.885241E-07  0.611E-04    1.89       9.4  T
  12   -463.8023102 -0.169506E-07  0.254E-04    1.89      22.5  T
  13   -463.8023102 -0.684611E-08  0.117E-04    1.89      49.0  T
  14   -463.8023102 -0.822979E-09  0.592E-05    1.89      96.5  T
  15   -463.8023102 -0.188265E-09  0.255E-05    1.89     224.3  T
speedup  1.00
cpu  time for SCC    3.92 s
wall time for SCC    3.92 s

   *** convergence criteria satisfied after 15 iterations ***

          eigenvalues
 #    :         395        396        397        398        399        400        401        402
 occ. :        2.000      2.000      2.000      2.000      2.000      2.000      2.000      2.000
 eps  :       -10.680    -10.656    -10.587    -10.559    -10.523    -10.512    -10.411    -10.331
 #    :         403        404        405        406        407        408        409        410
 occ. :        2.000      2.000      2.000      2.000      2.000      0.000      0.000      0.000
 eps  :       -10.272     -9.999     -9.993     -9.799     -9.768     -7.877     -7.846     -7.673
 #    :         411        412        413        414        415        416        417        418
 occ. :        0.000      0.000      0.000      0.000      0.000      0.000      0.000      0.000
 eps  :        -7.532     -6.968     -6.828     -6.639     -6.594     -6.420     -6.342     -6.300


   #   Z            q   n(s)   n(p)   n(d)      C6AA      α(0)
   1   7 N     -0.393  1.314  4.079  0.000    30.167     8.157
   2   6 C      0.031  1.058  2.911  0.000    20.073     6.382
   3   6 C      0.272  1.048  2.679  0.000    22.397     7.750
   4   8 O     -0.494  1.754  4.740  0.000    23.653     6.521
   5   6 C     -0.074  1.056  3.018  0.000    21.913     6.663
   6   6 C      0.014  1.083  2.903  0.000    27.702     8.633
   7   6 C     -0.042  1.082  2.960  0.000    29.046     8.838
   8   6 C     -0.041  1.077  2.964  0.000    29.014     8.833
   9   6 C     -0.032  1.081  2.952  0.000    28.800     8.800
  10   6 C     -0.035  1.081  2.954  0.000    28.869     8.811
  11   6 C     -0.036  1.079  2.957  0.000    28.897     8.815
  12   1 H      0.170  0.830  0.000  0.000     1.275     1.769
  13   1 H      0.037  0.963  0.000  0.000     2.484     2.465
  14   1 H      0.055  0.945  0.000  0.000     2.262     2.352
  15   1 H      0.054  0.946  0.000  0.000     2.274     2.358
  16   1 H      0.037  0.963  0.000  0.000     2.489     2.467
  17   1 H      0.036  0.964  0.000  0.000     2.496     2.470
  18   1 H      0.029  0.971  0.000  0.000     2.599     2.521
  19   1 H      0.037  0.963  0.000  0.000     2.492     2.469
  20   1 H      0.031  0.969  0.000  0.000     2.573     2.508
  21   7 N     -0.174  1.246  3.928  0.000    24.760     7.390
  22   6 C      0.031  1.056  2.913  0.000    20.056     6.377
  23   6 C      0.206  1.084  2.710  0.000    23.623     7.960
  24   8 O     -0.376  1.759  4.616  0.000    21.200     6.173
  25   6 C     -0.076  1.055  3.020  0.000    21.937     6.667
  26   6 C     -0.001  1.075  2.926  0.000    28.043     8.686
  27   6 C     -0.042  1.083  2.960  0.000    29.053     8.839
  28   6 C     -0.043  1.080  2.963  0.000    29.065     8.841
  29   6 C     -0.074  1.078  2.996  0.000    29.843     8.958
  30   6 C     -0.060  1.074  2.987  0.000    29.499     8.906
  31   6 C      0.143  1.045  2.812  0.000    24.878     8.175
  32   8 O     -0.419  1.713  4.706  0.000    21.222     6.219
  33   1 H      0.214  0.786  0.000  0.000     1.036     1.594
  34   1 H      0.089  0.911  0.000  0.000     1.886     2.148
  35   1 H      0.071  0.929  0.000  0.000     2.074     2.252
  36   1 H      0.079  0.921  0.000  0.000     1.990     2.206
  37   1 H      0.049  0.951  0.000  0.000     2.331     2.388
  38   1 H      0.044  0.956  0.000  0.000     2.401     2.423
  39   1 H      0.044  0.956  0.000  0.000     2.397     2.421
  40   1 H      0.049  0.951  0.000  0.000     2.328     2.386
  41   1 H      0.338  0.662  0.000  0.000     0.618     1.235
  42   7 N     -0.390  1.307  4.083  0.000    30.086     8.146
  43   6 C      0.040  1.055  2.905  0.000    19.919     6.357
  44   6 C      0.202  1.091  2.707  0.000    23.703     7.973
  45   8 O     -0.381  1.758  4.623  0.000    21.300     6.188
  46   6 C     -0.072  1.054  3.018  0.000    21.872     6.657
  47   6 C      0.004  1.077  2.919  0.000    27.931     8.669
  48   6 C     -0.043  1.084  2.960  0.000    29.074     8.842
  49   6 C     -0.043  1.079  2.964  0.000    29.065     8.841
  50   6 C     -0.059  1.075  2.984  0.000    29.476     8.903
  51   6 C     -0.076  1.078  2.998  0.000    29.904     8.967
  52   6 C      0.144  1.046  2.810  0.000    24.862     8.172
  53   8 O     -0.443  1.724  4.719  0.000    21.697     6.288
  54   1 H      0.165  0.835  0.000  0.000     1.305     1.789
  55   1 H      0.064  0.936  0.000  0.000     2.151     2.293
  56   1 H      0.054  0.946  0.000  0.000     2.275     2.359
  57   1 H      0.058  0.942  0.000  0.000     2.223     2.332
  58   1 H      0.042  0.958  0.000  0.000     2.424     2.435
  59   1 H      0.046  0.954  0.000  0.000     2.370     2.408
  60   1 H      0.043  0.957  0.000  0.000     2.404     2.425
  61   1 H      0.043  0.957  0.000  0.000     2.414     2.430
  62   1 H      0.348  0.652  0.000  0.000     0.593     1.210
  63   7 N     -0.390  1.316  4.073  0.000    30.094     8.147
  64   6 C      0.015  1.060  2.926  0.000    20.342     6.423
  65   6 C      0.269  1.047  2.684  0.000    22.461     7.761
  66   8 O     -0.518  1.766  4.752  0.000    24.193     6.595
  67   6 C     -0.057  1.048  3.009  0.000    21.582     6.612
  68   6 C     -0.102  1.058  3.044  0.000    22.432     6.742
  69   6 C      0.291  1.037  2.672  0.000    22.067     7.692
  70   8 O     -0.505  1.757  4.747  0.000    23.890     6.553
  71   7 N     -0.299  1.272  4.027  0.000    27.698     7.816
  72   1 H      0.170  0.830  0.000  0.000     1.270     1.766
  73   1 H      0.061  0.939  0.000  0.000     2.184     2.311
  74   1 H      0.050  0.950  0.000  0.000     2.314     2.379
  75   1 H      0.039  0.961  0.000  0.000     2.459     2.452
  76   1 H      0.069  0.931  0.000  0.000     2.095     2.263
  77   1 H      0.079  0.921  0.000  0.000     1.990     2.206
  78   1 H      0.231  0.769  0.000  0.000     0.963     1.537
  79   1 H      0.227  0.773  0.000  0.000     0.977     1.548
  80   7 N     -0.184  1.242  3.942  0.000    24.982     7.423
  81   6 C      0.012  1.059  2.929  0.000    20.378     6.428
  82   6 C      0.269  1.045  2.687  0.000    22.464     7.762
  83   8 O     -0.515  1.749  4.766  0.000    24.127     6.586
  84   6 C     -0.086  1.060  3.027  0.000    22.140     6.698
  85   6 C     -0.093  1.056  3.037  0.000    22.276     6.719
  86   6 C     -0.022  1.048  2.974  0.000    21.037     6.543
  87   7 N     -0.138  1.213  3.925  0.000    23.983     7.273
  88   6 C      0.234  1.018  2.748  0.000    23.087     7.867
  89   7 N     -0.243  1.237  4.007  0.000    26.346     7.623
  90   7 N     -0.267  1.259  4.008  0.000    26.904     7.704
  91   1 H      0.227  0.773  0.000  0.000     0.979     1.550
  92   1 H      0.083  0.917  0.000  0.000     1.945     2.181
  93   1 H      0.083  0.917  0.000  0.000     1.952     2.185
  94   1 H      0.071  0.929  0.000  0.000     2.071     2.251
  95   1 H      0.073  0.927  0.000  0.000     2.056     2.242
  96   1 H      0.100  0.900  0.000  0.000     1.789     2.092
  97   1 H      0.087  0.913  0.000  0.000     1.908     2.160
  98   1 H      0.063  0.937  0.000  0.000     2.167     2.302
  99   1 H      0.232  0.768  0.000  0.000     0.958     1.533
 100   1 H      0.237  0.763  0.000  0.000     0.935     1.515
 101   1 H      0.255  0.745  0.000  0.000     0.863     1.455
 102   1 H      0.249  0.751  0.000  0.000     0.887     1.475
 103   1 H      0.258  0.742  0.000  0.000     0.852     1.446
 104   7 N     -0.167  1.244  3.924  0.000    24.623     7.370
 105   6 C      0.022  1.060  2.918  0.000    20.210     6.401
 106   6 C      0.258  1.049  2.693  0.000    22.658     7.795
 107   8 O     -0.502  1.747  4.755  0.000    23.830     6.545
 108   6 C     -0.081  1.060  3.021  0.000    22.046     6.684
 109   6 C     -0.016  1.060  2.957  0.000    20.833     6.492
 110   6 C     -0.122  1.043  3.080  0.000    22.893     6.822
 111   6 C     -0.122  1.040  3.082  0.000    22.884     6.821
 112   1 H      0.227  0.773  0.000  0.000     0.978     1.549
 113   1 H      0.084  0.916  0.000  0.000     1.941     2.179
 114   1 H      0.063  0.937  0.000  0.000     2.166     2.302
 115   1 H      0.068  0.932  0.000  0.000     2.111     2.272
 116   1 H      0.046  0.954  0.000  0.000     2.369     2.407
 117   1 H      0.052  0.948  0.000  0.000     2.292     2.368
 118   1 H      0.048  0.952  0.000  0.000     2.343     2.394
 119   1 H      0.044  0.956  0.000  0.000     2.399     2.422
 120   1 H      0.053  0.947  0.000  0.000     2.279     2.361
 121   1 H      0.042  0.958  0.000  0.000     2.418     2.432
 122   1 H      0.038  0.962  0.000  0.000     2.482     2.464
 123   7 N     -0.088  1.233  3.855  0.000    22.960     7.117
 124   6 C      0.015  1.066  2.919  0.000    20.298     6.410
 125   6 C      0.273  1.043  2.684  0.000    22.379     7.747
 126   8 O     -0.487  1.744  4.743  0.000    23.489     6.498
 127   6 C     -0.077  1.055  3.022  0.000    21.959     6.669
 128   6 C     -0.077  1.052  3.024  0.000    21.950     6.668
 129   6 C     -0.018  1.052  2.966  0.000    20.928     6.520
 130   1 H      0.090  0.910  0.000  0.000     1.877     2.142
 131   1 H      0.067  0.933  0.000  0.000     2.114     2.274
 132   1 H      0.091  0.909  0.000  0.000     1.865     2.136
 133   1 H      0.056  0.944  0.000  0.000     2.251     2.346
 134   1 H      0.086  0.914  0.000  0.000     1.915     2.164
 135   1 H      0.046  0.954  0.000  0.000     2.376     2.411
 136   1 H      0.089  0.911  0.000  0.000     1.886     2.148
 137   7 N     -0.179  1.243  3.935  0.000    24.871     7.407
 138   6 C      0.028  1.063  2.909  0.000    20.097     6.382
 139   6 C      0.285  1.041  2.673  0.000    22.165     7.710
 140   8 O     -0.497  1.747  4.749  0.000    23.708     6.528
 141   6 C     -0.055  1.049  3.006  0.000    21.560     6.611
 142   6 C     -0.095  1.064  3.031  0.000    22.310     6.725
 143   6 C      0.370  1.025  2.605  0.000    20.721     7.449
 144   8 O     -0.642  1.778  4.864  0.000    27.170     6.988
 145   8 O     -0.630  1.752  4.878  0.000    26.867     6.949
 146   1 H      0.211  0.789  0.000  0.000     1.054     1.608
 147   1 H      0.064  0.936  0.000  0.000     2.155     2.296
 148   1 H      0.037  0.963  0.000  0.000     2.493     2.469
 149   1 H      0.057  0.943  0.000  0.000     2.232     2.337
 150   1 H      0.039  0.961  0.000  0.000     2.467     2.456
 151   1 H      0.008  0.992  0.000  0.000     2.925     2.675
 152   7 N     -0.198  1.251  3.947  0.000    25.295     7.470
 153   6 C      0.019  1.066  2.915  0.000    20.254     6.408
 154   6 C      0.280  1.040  2.680  0.000    22.265     7.727
 155   8 O     -0.501  1.743  4.758  0.000    23.806     6.542
 156   6 C      0.118  1.045  2.837  0.000    18.744     6.182
 157   8 O     -0.468  1.712  4.756  0.000    22.215     6.363
 158   6 C     -0.125  1.041  3.084  0.000    22.951     6.831
 159   1 H      0.219  0.781  0.000  0.000     1.015     1.578
 160   1 H      0.057  0.943  0.000  0.000     2.237     2.339
 161   1 H      0.029  0.971  0.000  0.000     2.606     2.524
 162   1 H      0.330  0.670  0.000  0.000     0.639     1.255
 163   1 H      0.083  0.917  0.000  0.000     1.953     2.185
 164   1 H      0.041  0.959  0.000  0.000     2.437     2.441
 165   1 H      0.062  0.938  0.000  0.000     2.176     2.307
 166   7 N     -0.193  1.257  3.936  0.000    25.188     7.454
 167   6 C      0.038  1.055  2.907  0.000    19.936     6.358
 168   6 C      0.285  1.037  2.678  0.000    22.175     7.712
 169   8 O     -0.497  1.757  4.739  0.000    23.709     6.528
 170   6 C     -0.135  1.044  3.091  0.000    23.144     6.857
 171   1 H      0.234  0.766  0.000  0.000     0.950     1.527
 172   1 H      0.048  0.952  0.000  0.000     2.339     2.392
 173   1 H      0.065  0.935  0.000  0.000     2.138     2.286
 174   1 H      0.082  0.918  0.000  0.000     1.962     2.191
 175   1 H      0.076  0.924  0.000  0.000     2.026     2.226
 176   7 N     -0.195  1.246  3.949  0.000    25.234     7.461
 177   6 C      0.033  1.058  2.909  0.000    20.027     6.372
 178   6 C      0.279  1.044  2.677  0.000    22.276     7.729
 179   8 O     -0.513  1.751  4.762  0.000    24.081     6.579
 180   6 C     -0.068  1.059  3.010  0.000    21.794     6.645
 181   6 C     -0.011  1.057  2.954  0.000    20.734     6.477
 182   6 C     -0.122  1.044  3.078  0.000    22.897     6.822
 183   6 C     -0.118  1.040  3.078  0.000    22.817     6.811
 184   1 H      0.224  0.776  0.000  0.000     0.993     1.561
 185   1 H      0.065  0.935  0.000  0.000     2.139     2.287
 186   1 H      0.034  0.966  0.000  0.000     2.530     2.487
 187   1 H      0.050  0.950  0.000  0.000     2.316     2.380
 188   1 H      0.040  0.960  0.000  0.000     2.455     2.450
 189   1 H      0.066  0.934  0.000  0.000     2.125     2.280
 190   1 H      0.030  0.970  0.000  0.000     2.582     2.513
 191   1 H      0.045  0.955  0.000  0.000     2.379     2.412
 192   1 H      0.070  0.930  0.000  0.000     2.081     2.256
 193   1 H      0.038  0.962  0.000  0.000     2.478     2.462
 194   1 H      0.028  0.972  0.000  0.000     2.622     2.532
 195   7 N     -0.187  1.246  3.941  0.000    25.051     7.434
 196   6 C      0.029  1.059  2.912  0.000    20.095     6.384
 197   6 C      0.276  1.042  2.683  0.000    22.339     7.739
 198   8 O     -0.514  1.745  4.769  0.000    24.092     6.581
 199   6 C     -0.120  1.042  3.078  0.000    22.847     6.814
 200   1 H      0.215  0.785  0.000  0.000     1.034     1.593
 201   1 H      0.062  0.938  0.000  0.000     2.172     2.305
 202   1 H      0.068  0.932  0.000  0.000     2.111     2.272
 203   1 H      0.067  0.933  0.000  0.000     2.115     2.274
 204   1 H      0.056  0.944  0.000  0.000     2.249     2.345
 205   7 N     -0.165  1.238  3.926  0.000    24.560     7.360
 206   6 C      0.026  1.066  2.909  0.000    20.157     6.394
 207   6 C      0.265  1.048  2.688  0.000    22.540     7.776
 208   8 O     -0.500  1.766  4.734  0.000    23.776     6.538
 209   6 C     -0.012  1.062  2.949  0.000    20.746     6.478
 210   6 C     -0.124  1.041  3.083  0.000    22.946     6.831
 211   6 C     -0.115  1.042  3.073  0.000    22.760     6.802
 212   1 H      0.216  0.784  0.000  0.000     1.026     1.586
 213   1 H      0.063  0.937  0.000  0.000     2.165     2.301
 214   1 H      0.038  0.962  0.000  0.000     2.478     2.462
 215   1 H      0.060  0.940  0.000  0.000     2.204     2.321
 216   1 H      0.055  0.945  0.000  0.000     2.256     2.349
 217   1 H      0.056  0.944  0.000  0.000     2.251     2.346
 218   1 H      0.059  0.941  0.000  0.000     2.215     2.328
 219   1 H      0.048  0.952  0.000  0.000     2.343     2.394
 220   1 H      0.032  0.968  0.000  0.000     2.560     2.502
 221   7 N     -0.094  1.236  3.857  0.000    23.069     7.133
 222   6 C      0.027  1.064  2.910  0.000    20.101     6.379
 223   6 C      0.285  1.043  2.672  0.000    22.177     7.712
 224   8 O     -0.477  1.740  4.737  0.000    23.279     6.469
 225   6 C     -0.070  1.055  3.015  0.000    21.837     6.651
 226   6 C     -0.073  1.054  3.020  0.000    21.886     6.658
 227   6 C     -0.011  1.054  2.957  0.000    20.835     6.510
 228   1 H      0.044  0.956  0.000  0.000     2.402     2.424
 229   1 H      0.061  0.939  0.000  0.000     2.189     2.314
 230   1 H      0.069  0.931  0.000  0.000     2.101     2.267
 231   1 H      0.075  0.925  0.000  0.000     2.029     2.227
 232   1 H      0.079  0.921  0.000  0.000     1.991     2.207
 233   1 H      0.078  0.922  0.000  0.000     2.003     2.213
 234   1 H      0.052  0.948  0.000  0.000     2.300     2.371
 235   7 N     -0.186  1.249  3.937  0.000    25.032     7.431
 236   6 C      0.019  1.062  2.919  0.000    20.254     6.408
 237   6 C      0.274  1.044  2.681  0.000    22.364     7.744
 238   8 O     -0.469  1.743  4.726  0.000    23.108     6.445
 239   6 C     -0.067  1.058  3.009  0.000    21.767     6.641
 240   6 C     -0.010  1.057  2.953  0.000    20.723     6.475
 241   6 C     -0.123  1.043  3.080  0.000    22.904     6.824
 242   6 C     -0.115  1.041  3.073  0.000    22.750     6.801
 243   1 H      0.199  0.801  0.000  0.000     1.113     1.653
 244   1 H      0.073  0.927  0.000  0.000     2.057     2.243
 245   1 H      0.045  0.955  0.000  0.000     2.388     2.416
 246   1 H      0.047  0.953  0.000  0.000     2.355     2.400
 247   1 H      0.026  0.974  0.000  0.000     2.643     2.542
 248   1 H      0.067  0.933  0.000  0.000     2.122     2.278
 249   1 H      0.035  0.965  0.000  0.000     2.515     2.480
 250   1 H      0.037  0.963  0.000  0.000     2.495     2.470
 251   1 H      0.059  0.941  0.000  0.000     2.209     2.324
 252   1 H      0.034  0.966  0.000  0.000     2.532     2.488
 253   1 H      0.042  0.958  0.000  0.000     2.417     2.431
 254   7 N     -0.175  1.245  3.929  0.000    24.781     7.393
 255   6 C      0.010  1.073  2.918  0.000    20.421     6.435
 256   6 C      0.274  1.045  2.682  0.000    22.372     7.745
 257   8 O     -0.462  1.747  4.715  0.000    22.959     6.424
 258   6 C     -0.020  1.066  2.954  0.000    20.896     6.502
 259   6 C     -0.061  1.049  3.012  0.000    21.672     6.627
 260   6 C     -0.121  1.040  3.081  0.000    22.870     6.819
 261   6 C     -0.111  1.038  3.074  0.000    22.689     6.793
 262   1 H      0.199  0.801  0.000  0.000     1.109     1.650
 263   1 H      0.075  0.925  0.000  0.000     2.033     2.230
 264   1 H      0.048  0.952  0.000  0.000     2.351     2.398
 265   1 H      0.044  0.956  0.000  0.000     2.393     2.419
 266   1 H      0.029  0.971  0.000  0.000     2.596     2.519
 267   1 H      0.062  0.938  0.000  0.000     2.175     2.307
 268   1 H      0.042  0.958  0.000  0.000     2.421     2.433
 269   1 H      0.051  0.949  0.000  0.000     2.303     2.373
 270   1 H      0.041  0.959  0.000  0.000     2.431     2.438
 271   1 H      0.037  0.963  0.000  0.000     2.484     2.465
 272   1 H      0.046  0.954  0.000  0.000     2.369     2.407
 273   7 N     -0.177  1.256  3.920  0.000    24.822     7.400
 274   6 C     -0.031  1.050  2.981  0.000    21.217     6.573
 275   6 C      0.207  1.077  2.716  0.000    23.604     7.956
 276   8 O     -0.364  1.756  4.608  0.000    20.980     6.141
 277   1 H      0.220  0.780  0.000  0.000     1.012     1.576
 278   1 H      0.105  0.895  0.000  0.000     1.736     2.060
 279   1 H      0.128  0.872  0.000  0.000     1.547     1.945
 280   7 N     -0.387  1.314  4.073  0.000    30.024     8.138
 281   6 C      0.043  1.053  2.904  0.000    19.877     6.351
 282   6 C      0.203  1.093  2.704  0.000    23.682     7.970
 283   8 O     -0.388  1.758  4.630  0.000    21.449     6.209
 284   6 C     -0.075  1.061  3.014  0.000    21.917     6.663
 285   6 C     -0.006  1.055  2.952  0.000    20.659     6.465
 286   6 C     -0.120  1.043  3.077  0.000    22.844     6.814
 287   6 C     -0.115  1.039  3.077  0.000    22.761     6.802
 288   1 H      0.165  0.835  0.000  0.000     1.305     1.789
 289   1 H      0.053  0.947  0.000  0.000     2.288     2.366
 290   1 H      0.055  0.945  0.000  0.000     2.256     2.349
 291   1 H      0.041  0.959  0.000  0.000     2.434     2.440
 292   1 H      0.031  0.969  0.000  0.000     2.567     2.505
 293   1 H      0.044  0.956  0.000  0.000     2.392     2.419
 294   1 H      0.041  0.959  0.000  0.000     2.431     2.438
 295   1 H      0.044  0.956  0.000  0.000     2.390     2.418
 296   1 H      0.043  0.957  0.000  0.000     2.415     2.430
 297   1 H      0.041  0.959  0.000  0.000     2.440     2.443
 298   1 H      0.035  0.965  0.000  0.000     2.518     2.482
 299   1 H      0.177  0.823  0.000  0.000     1.231     1.738
 300   1 H      0.078  0.922  0.000  0.000     1.999     2.211
 301   1 H      0.182  0.818  0.000  0.000     1.201     1.717
 302   1 H      0.073  0.927  0.000  0.000     2.056     2.242
 303   1 H      0.194  0.806  0.000  0.000     1.137     1.671
 304   1 H      0.080  0.920  0.000  0.000     1.977     2.199
 305   1 H      0.180  0.820  0.000  0.000     1.212     1.724
 306   1 H      0.071  0.929  0.000  0.000     2.072     2.251

 Mol. C6AA /au·bohr⁶  :     863298.683715
 Mol. C8AA /au·bohr⁸  :   19285546.126949
 Mol. α(0) /au        :       1397.252860

 
molecular dipole:
                 x           y           z       tot (Debye)
 q only:       -2.267      -3.954     -16.124
   full:       -3.500      -2.823     -15.453      40.909
molecular quadrupole (traceless):
                xx          xy          yy          xz          yz          zz
 q only:     1389.353    -764.048    1250.791   -2705.621   -2374.553   -2640.144
  q+dip:      977.787    -710.275    1490.987   -2747.513   -2137.600   -2468.774
   full:      977.602    -710.594    1496.170   -2746.908   -2139.096   -2473.772
speedup  1.00
cpu  time for grad    4.89 s
wall time for grad    4.89 s

SCC energy    :    -463.8198342
rep           :       5.8450520
ES            :       1.2407320
AES           :      -0.0171338
AXC           :       0.1637686
disp          :      -0.3723008
XB            :       0.0000000
fix           :       0.0000000
Gborn         :       0.0000000
Gsasa         :       0.0000000
Ghb           :       0.0000000
Gshift        :       0.0000000
Gsolv         :      -0.3046309     -191.16
Etot ala COSMO:    -463.8198342
grad norm     :       0.4438250
total E       :    -457.9521461
atomizationE  :      86.6530489    54375.61
(atE without considering molecular charge,
 total energy contains solvation terms)
H-L gap (eV)  :          1.8915

------------------------------------------------------------------------
 * finished run on 2019/03/14 at 15:08:24.463     
------------------------------------------------------------------------
 total:
 * wall-time:     0 d,  0 h,  0 min,  5.418 sec
 *  cpu-time:     0 d,  0 h,  0 min,  5.215 sec
 * ratio c/w:     0.963 speedup
 SCF:
 * wall-time:     0 d,  0 h,  0 min,  5.132 sec
 *  cpu-time:     0 d,  0 h,  0 min,  5.129 sec
 * ratio c/w:     0.999 speedup

