      -----------------------------------------------------------      
     |                   =====================                   |     
     |                           x T B                           |     
     |                   =====================                   |     
     |                         S. Grimme                         |     
     |          Mulliken Center for Theoretical Chemistry        |     
     |                    University of Bonn                     |     
     |                 Version 6.0.1 (SAW181210)                 |     
      -----------------------------------------------------------      

   This program is distributed in the hope that it will be useful,
   but WITHOUT ANY WARRANTY; without even the implied warranty of
   MERCHANTABILITY or FITNESS FOR A PARTICULAR PURPOSE.
   
   FOR NON-COMMERCIAL, ACADEMIA USE ONLY.
   
   Cite this work as:
   S. Grimme, C. Bannwarth, P. Shushkov, J. Comput. Theory Chem., 2017,
   13, 1989-2009.
   C. Bannwarth, S. Ehlert and S. Grimme., ChemRxiv, 2018, preprint.
   http://doi.org/10.26434/chemrxiv.7246238.v1
   
   for sTDA-xTB:
   S. Grimme and C. Bannwarth, J. Chem. Phys., 2016, 145, 054103.
   
   in the mass-spec context:
   V. Asgeirsson, C. Bauer and S. Grimme, Chem. Sci., 2017, 8, 4879.
   
   if GBSA is used:
   P. Shushkov, F. März and S. Grimme, unpublished.
   
   for ANC optimizer:
   S. Grimme, unpublished.
   Rational Function algorithm used in ANCopt:
   F. Eckert, P. Pulay, H.-J. Werner, J. Comput. Chem., 1997, 18, 1473.
   
   with help from (in alphabetical order)
   C. Bannwarth, F. Bohle, G. Brandenburg, E. Caldeweyher, M. Checinski,
   S. Dohm, S. Ehlert, S. Ehrlich, F. März, H. Neugebauer, J. Pisarek,
   P. Pracht, P. Shushkov, and S. Spicher.
   
 * started run on 2019/02/13 at 00:17:30.434     
========================================================================
 # omp threads = 16
========================================================================
number of atoms            : 545
number of electrons        : 1432
charge                     : -2
spin                       : .0
first test random number   : .2718

########################################################################
# WARNING! Please study the warnings concerning your input carefully
#  - Process number higher than OMP_NUM_THREADS, I hope you know what you are doing.
########################################################################

           ------------------------------------------------- 
          |                 G F N 2 - x T B                 |
          | Geometry, Frequencies, Noncovalent interactions |
          |            JCTC 2018 parametrisation            |
           ------------------------------------------------- 
 
      method parameters     
 k(s)        :  1.8500
 k(p)        :  2.2300
 k(d)        :  2.2300
 k(f)        :  2.0000
 kEN (H0ij)  : -2.0000
 D4 a1       :  0.5200
 D4 a2       :  5.0000
 D4 s6       :  1.0000
 D4 s8       :  2.7000
 D4 s9       :  5.0000
 alphaj      :  2.0000

 Solvent             : h2o
 Using internal parameter file: .param_gbsa2_h2o
 Gsolv ref. state (COSMO-RS): gsolv [1 M gas/solution]
 temperature (mdtemp)       :    298.150000000000     
 dielectric constant        :    80.2000000000000     
 rho                        :    1.00000000000000     
 mass                       :    18.0000000000000     
 surface tension            :    15.5689454083859     
 probe radius               :   0.975313790000000     
 vdW radii scaling          :    1.00000000000000     
 Gshift (Eh)                :   1.857443126794793E-003
 c1                         :    1.55243817000000     
 soset                      :   0.130326360000000     
 HB correction              :  T

            Z     q(EN)     CN     RAES       Cart. coordinates
     1  N   5.0   -0.20    3.25    1.97   337.18897   125.33452   170.60613
     2  C   4.0    0.03    4.30    4.20   339.09627   125.79069   172.51069
     3  C   4.0    0.07    3.22    3.04   341.71048   125.65142   171.27430
     4  O   6.0   -0.29    1.13    1.80   342.14924   124.24311   169.49890
     5  C   4.0   -0.02    4.25    4.11   338.84278   123.82442   174.65044
     6  C   4.0   -0.08    4.11    3.83   340.83775   124.24983   176.68913
     7  C   4.0   -0.08    4.12    3.85   336.20209   123.96231   175.81130
     8  H   1.0    0.09    1.03    1.43   337.10051   123.55538   169.92763
     9  H   1.0    0.03    1.05    1.44   338.78699   127.69585   173.25340
    10  H   1.0    0.05    1.05    1.44   339.12975   121.94914   173.82169
    11  H   1.0    0.04    1.00    1.43   340.52954   122.95076   178.25008
    12  H   1.0    0.05    1.00    1.43   342.73761   123.92639   175.97336
    13  H   1.0    0.03    1.00    1.43   340.72615   126.16801   177.41986
    14  H   1.0    0.04    1.00    1.43   335.99330   122.51185   177.24974
    15  H   1.0    0.03    1.00    1.43   335.92803   125.79242   176.70229
    16  H   1.0    0.03    1.00    1.43   334.72658   123.69593   174.40560
    17  N   5.0   -0.19    3.26    1.97   350.06352   128.61023   173.16583
    18  C   4.0    0.03    4.23    4.06   351.79849   129.37265   175.12585
    19  C   4.0    0.08    3.24    3.04   354.37925   129.90360   173.94570
    20  O   6.0   -0.28    1.14    1.80   355.05466   128.93305   171.96323
    21  C   4.0   -0.04    4.28    4.15   352.05282   127.28415   177.12590
    22  C   4.0    0.24    3.19    3.03   353.03039   124.83825   175.91842
    23  O   6.0   -0.33    1.41    1.80   355.28495   124.23409   176.38319
    24  O   6.0   -0.32    1.26    1.80   351.57831   123.55090   174.59784
    25  H   1.0    0.11    1.04    1.43   350.84469   127.60571   171.74094
    26  H   1.0    0.03    1.05    1.44   351.06247   131.09030   176.01681
    27  H   1.0    0.04    1.03    1.43   353.34458   127.88170   178.60372
    28  H   1.0    0.04    1.03    1.43   350.19201   126.92365   177.94085
    29  N   5.0   -0.23    3.18    1.95   372.97023   122.88617   201.48640
    30  C   4.0    0.03    4.23    4.07   370.35837   122.23555   202.01802
    31  C   4.0    0.06    3.21    3.04   370.03635   120.56980   204.34462
    32  O   6.0   -0.31    1.16    1.80   368.04435   119.44589   204.71777
    33  C   4.0   -0.04    4.36    4.31   369.00822   120.95542   199.78210
    34  C   4.0   -0.03    4.18    3.96   369.19859   122.39837   197.28509
    35  C   4.0   -0.08    4.11    3.82   367.52539   121.11231   195.31213
    36  C   4.0   -0.08    4.13    3.85   368.38400   125.14420   197.59222
    37  H   1.0    0.07    1.02    1.43   373.33794   124.76231   201.36654
    38  H   1.0    0.04    1.06    1.44   369.39756   124.01468   202.46311
    39  H   1.0    0.04    1.03    1.43   369.80114   119.07248   199.55188
    40  H   1.0    0.05    1.03    1.43   367.02551   120.77309   200.31308
    41  H   1.0    0.04    1.05    1.44   371.15555   122.36948   196.62098
    42  H   1.0    0.04    1.00    1.43   367.63676   122.13093   193.53448
    43  H   1.0    0.05    1.00    1.43   368.10956   119.17862   194.95420
    44  H   1.0    0.04    1.00    1.43   365.56460   121.10723   195.92758
    45  H   1.0    0.03    1.01    1.43   368.46300   126.08753   195.77614
    46  H   1.0    0.03    1.00    1.43   366.45946   125.23785   198.30438
    47  H   1.0    0.03    1.00    1.43   369.61358   126.17981   198.86995
    48  N   5.0   -0.20    3.22    1.96   363.41518   119.97142   207.44535
    49  C   4.0    0.03    4.15    3.89   361.50147   118.94464   205.77865
    50  C   4.0    0.08    3.20    3.04   361.94340   116.12011   205.34487
    51  O   6.0   -0.33    1.17    1.80   360.21520   114.59101   205.51932
    52  C   4.0   -0.08    4.11    3.82   361.54971   120.38335   203.28842
    53  H   1.0    0.10    1.04    1.43   364.61079   121.25587   206.70004
    54  H   1.0    0.04    1.05    1.44   359.65303   119.12844   206.69965
    55  H   1.0    0.03    1.00    1.43   360.11627   119.64329   202.02225
    56  H   1.0    0.04    1.00    1.43   361.18917   122.37829   203.63454
    57  H   1.0    0.05    1.00    1.43   363.39556   120.18505   202.41110
    58  N   5.0   -0.21    3.22    1.96   357.40924   110.16471   206.73791
    59  C   4.0    0.03    4.22    4.04   356.72141   108.39391   204.76784
    60  C   4.0    0.08    3.21    3.04   357.38666   105.69025   205.54187
    61  O   6.0   -0.32    1.15    1.80   355.92172   103.92630   205.18994
    62  C   4.0   -0.04    4.36    4.31   358.08370   109.05724   202.30970
    63  C   4.0   -0.02    4.18    3.95   357.14176   111.49208   201.04607
    64  C   4.0   -0.08    4.11    3.82   358.80515   112.02784   198.74973
    65  C   4.0   -0.08    4.10    3.81   354.37864   111.29781   200.24100
    66  H   1.0    0.11    1.07    1.44   358.59968   111.60055   206.28229
    67  H   1.0    0.04    1.05    1.44   354.66463   108.42983   204.50723
    68  H   1.0    0.05    1.03    1.43   360.09321   109.23097   202.74343
    69  H   1.0    0.04    1.03    1.43   357.86359   107.48316   200.99551
    70  H   1.0    0.05    1.06    1.44   357.33653   113.05043   202.38712
    71  H   1.0    0.03    1.00    1.43   358.12157   113.68013   197.74400
    72  H   1.0    0.04    1.00    1.43   360.74448   112.36820   199.33321
    73  H   1.0    0.04    1.00    1.43   358.77025   110.41921   197.47227
    74  H   1.0    0.04    1.00    1.43   353.83414   112.95928   199.16364
    75  H   1.0    0.04    1.00    1.43   354.09071   109.63703   199.06685
    76  H   1.0    0.04    1.00    1.43   353.13197   111.16548   201.86575
    77  N   5.0   -0.20    3.24    1.97   354.75541    99.65693   201.83624
    78  C   4.0    0.03    4.30    4.20   355.13759   100.44594   199.24801
    79  C   4.0    0.07    3.23    3.04   357.86688    99.88674   198.44312
    80  O   6.0   -0.29    1.12    1.80   359.68281   100.46840   199.73380
    81  C   4.0   -0.02    4.27    4.14   354.54747   103.28014   199.00649
    82  C   4.0   -0.08    4.12    3.85   355.39324   104.31325   196.45281
    83  C   4.0   -0.08    4.11    3.83   351.72702   103.73008   199.40806
    84  H   1.0    0.12    1.05    1.44   355.15415   100.91873   203.22522
    85  H   1.0    0.03    1.05    1.44   353.83933    99.32830   198.08434
    86  H   1.0    0.06    1.06    1.44   355.59620   104.22623   200.51454
    87  H   1.0    0.04    1.00    1.43   354.84579   106.28604   196.29618
    88  H   1.0    0.05    1.00    1.43   357.43454   104.19703   196.24081
    89  H   1.0    0.04    1.00    1.43   354.48497   103.26190   194.93834
    90  H   1.0    0.04    1.00    1.43   351.32194   105.74317   199.43507
    91  H   1.0    0.04    1.00    1.43   350.63696   102.86770   197.89415
    92  H   1.0    0.04    1.00    1.43   351.10949   102.91392   201.19052
    93  N   5.0   -0.20    3.12    1.94   359.91449   100.97680   191.82275
    94  C   4.0    0.00    4.15    3.89   360.69435   102.41818   189.63500
    95  C   4.0    0.15    3.32    3.06   362.22074   104.77670   190.35259
    96  O   6.0   -0.30    1.24    1.80   361.64950   106.12478   192.13726
    97  H   1.0    0.08    1.02    1.43   358.28754   101.44055   192.70207
    98  H   1.0    0.03    1.03    1.43   361.84004   101.17841   188.44930
    99  H   1.0    0.04    1.03    1.43   359.00602   103.01780   188.61364
   100  N   5.0   -0.13    3.50    2.07   364.15614   105.26819   188.80346
   101  C   4.0    0.04    4.48    4.51   365.78273   107.43828   189.17084
   102  C   4.0    0.15    3.43    3.09   364.14840   109.84514   189.11865
   103  O   6.0   -0.29    1.23    1.80   362.30675   110.02361   187.74277
   104  C   4.0    0.05    4.24    4.07   367.76388   107.50771   187.03634
   105  O   6.0   -0.27    2.15    1.85   368.68574   105.01001   186.76904
   106  C   4.0   -0.08    4.07    3.74   369.88419   109.36943   187.63797
   107  H   1.0    0.08    1.08    1.44   364.76598   103.98196   187.53522
   108  H   1.0    0.04    1.05    1.44   366.73427   107.25684   191.00387
   109  H   1.0    0.05    1.03    1.43   366.79162   108.07792   185.28350
   110  H   1.0    0.11    1.03    1.43   370.14970   105.03955   185.68074
   111  H   1.0    0.04    1.00    1.43   371.22381   109.42442   186.08080
   112  H   1.0    0.05    1.00    1.43   369.13536   111.25995   187.91797
   113  H   1.0    0.04    1.00    1.43   370.87254   108.75247   189.32977
   114  N   5.0   -0.14    3.45    2.05   364.99982   111.69500   190.61583
   115  C   4.0    0.04    4.33    4.25   363.66955   114.04516   191.08161
   116  C   4.0    0.14    3.39    3.08   365.20447   116.31739   190.12713
   117  O   6.0   -0.32    1.22    1.80   367.46764   116.51628   190.54110
   118  C   4.0   -0.07    4.12    3.84   363.29176   114.34622   193.92942
   119  H   1.0    0.08    1.07    1.44   366.51740   111.37698   191.72611
   120  H   1.0    0.07    1.08    1.44   361.86459   113.93813   190.09279
   121  H   1.0    0.04    1.00    1.43   362.15486   116.00422   194.31976
   122  H   1.0    0.04    1.00    1.43   362.32862   112.69204   194.67216
   123  H   1.0    0.05    1.00    1.43   365.11559   114.54708   194.85394
   124  N   5.0   -0.13    3.47    2.06   363.82538   118.07354   188.93346
   125  C   4.0    0.04    4.37    4.33   364.85266   120.44670   188.04552
   126  C   4.0    0.15    3.42    3.09   363.08101   122.61043   188.83785
   127  O   6.0   -0.32    1.31    1.80   361.08603   122.16432   189.91682
   128  C   4.0    0.03    4.14    3.89   365.16591   120.45467   185.15374
   129  O   6.0   -0.25    2.08    1.84   362.76699   120.79185   184.03994
   130  H   1.0    0.11    1.09    1.44   361.98411   117.70307   188.53529
   131  H   1.0    0.04    1.06    1.44   366.71004   120.66132   188.93585
   132  H   1.0    0.03    1.01    1.43   366.44233   121.99148   184.59549
   133  H   1.0    0.04    1.01    1.43   366.00292   118.64547   184.58185
   134  H   1.0    0.11    1.02    1.43   362.95502   120.79366   182.22860
   135  N   5.0   -0.14    3.48    2.06   363.88296   124.95657   188.33257
   136  C   4.0    0.04    4.51    4.56   362.34425   127.16927   188.81844
   137  C   4.0    0.14    3.45    3.10   361.62688   128.40338   186.31658
   138  O   6.0   -0.31    1.23    1.80   363.20153   128.72545   184.63742
   139  C   4.0   -0.02    4.27    4.14   363.73458   129.17476   190.41576
   140  C   4.0   -0.08    4.12    3.85   361.85023   131.16301   191.31624
   141  C   4.0   -0.08    4.13    3.86   365.03903   127.93892   192.66252
   142  H   1.0    0.08    1.06    1.44   365.46628   125.25023   187.31209
   143  H   1.0    0.06    1.07    1.44   360.65430   126.51876   189.81333
   144  H   1.0    0.04    1.05    1.44   365.15978   130.09171   189.22662
   145  H   1.0    0.03    1.00    1.43   362.82497   132.58693   192.42646
   146  H   1.0    0.05    1.00    1.43   360.93587   132.08904   189.72770
   147  H   1.0    0.04    1.00    1.43   360.39731   130.29359   192.48101
   148  H   1.0    0.03    1.00    1.43   365.90767   129.38064   193.83751
   149  H   1.0    0.04    1.00    1.43   363.68087   126.88396   193.78805
   150  H   1.0    0.04    1.00    1.43   366.49583   126.63946   192.02710
   151  N   5.0   -0.14    3.49    2.07   359.23877   129.18366   186.18381
   152  C   4.0    0.03    4.39    4.37   358.19426   130.33320   183.94970
   153  C   4.0    0.06    3.23    3.04   356.35672   132.44704   184.63752
   154  O   6.0   -0.32    1.18    1.80   355.20430   132.50686   186.64121
   155  C   4.0   -0.02    4.27    4.13   356.79805   128.37212   182.28976
   156  C   4.0   -0.06    4.11    3.83   358.61040   126.33633   181.35254
   157  C   4.0   -0.07    4.13    3.86   354.57587   127.18508   183.69147
   158  H   1.0    0.11    1.09    1.44   358.00524   128.74328   187.58393
   159  H   1.0    0.05    1.06    1.44   359.75642   131.11409   182.84598
   160  H   1.0    0.03    1.06    1.44   356.10451   129.42258   180.64735
   161  H   1.0    0.06    1.01    1.43   357.70315   125.24715   179.86773
   162  H   1.0    0.05    1.00    1.43   360.30203   127.19460   180.57004
   163  H   1.0    0.05    1.00    1.43   359.16251   125.07762   182.88041
   164  H   1.0    0.04    1.00    1.43   353.65946   125.77796   182.50878
   165  H   1.0    0.06    1.00    1.43   355.21893   126.27149   185.41670
   166  H   1.0    0.05    1.01    1.43   353.17025   128.60188   184.18177
   167  N   5.0   -0.19    3.23    1.96   349.89724   135.00718   181.80232
   168  C   4.0    0.03    4.26    4.11   347.84949   133.88454   180.37198
   169  C   4.0    0.07    3.20    3.04   346.77497   135.77718   178.45214
   170  O   6.0   -0.29    1.13    1.80   347.03529   138.05931   178.73921
   171  C   4.0   -0.05    4.33    4.25   345.71800   133.08781   182.15749
   172  C   4.0   -0.04    4.05    3.72   346.54592   131.13611   184.10929
   173  S   6.0   -0.07    2.55    3.10   347.85764   128.24520   182.73542
   174  C   4.0   -0.07    3.89    3.44   345.08079   127.07417   181.10365
   175  H   1.0    0.08    1.02    1.43   349.52086   135.64907   183.56744
   176  H   1.0    0.03    1.06    1.44   348.57964   132.22530   179.36880
   177  H   1.0    0.04    1.03    1.43   345.05304   134.76768   183.15711
   178  H   1.0    0.03    1.03    1.43   344.16814   132.33530   181.02474
   179  H   1.0    0.04    1.07    1.44   348.03924   131.87538   185.31792
   180  H   1.0    0.03    1.07    1.44   344.94661   130.56533   185.27338
   181  H   1.0    0.04    1.05    1.44   345.39036   125.07204   180.78051
   182  H   1.0    0.03    1.04    1.43   343.43012   127.35030   182.28825
   183  H   1.0    0.04    1.04    1.43   344.88576   128.03786   179.30173
   184  N   5.0   -0.20    3.23    1.96   351.00912   137.09480   191.58914
   185  C   4.0    0.03    4.34    4.28   352.73099   134.98543   191.45559
   186  C   4.0    0.15    3.42    3.08   351.36993   132.50714   192.03000
   187  O   6.0   -0.30    1.26    1.80   349.56806   132.35033   193.48295
   188  C   4.0   -0.04    4.37    4.32   354.87350   135.27788   193.37973
   189  C   4.0   -0.03    4.18    3.96   356.40825   137.71782   193.07478
   190  C   4.0   -0.09    4.11    3.81   358.36139   137.86256   195.19583
   191  C   4.0   -0.08    4.10    3.81   357.71615   137.85020   190.50816
   192  H   1.0    0.09    1.03    1.43   350.63995   137.76114   193.33695
   193  H   1.0    0.06    1.07    1.44   353.47166   134.88542   189.53171
   194  H   1.0    0.06    1.03    1.43   354.04791   135.22570   195.27475
   195  H   1.0    0.04    1.03    1.43   356.14144   133.66065   193.18941
   196  H   1.0    0.03    1.05    1.44   355.12918   139.33251   193.25452
   197  H   1.0    0.03    1.00    1.43   359.38726   139.64190   195.13330
   198  H   1.0    0.04    1.00    1.43   357.45750   137.69236   197.03544
   199  H   1.0    0.03    1.00    1.43   359.71872   136.32955   195.01278
   200  H   1.0    0.03    1.00    1.43   358.89734   139.52688   190.41465
   201  H   1.0    0.04    1.00    1.43   358.90927   136.20032   190.23555
   202  H   1.0    0.04    1.00    1.43   356.34417   137.92728   188.98461
   203  N   5.0   -0.14    3.50    2.08   352.37854   130.52581   190.84337
   204  C   4.0    0.04    4.37    4.32   351.69031   127.95622   191.38839
   205  C   4.0    0.15    3.45    3.10   354.09583   126.37940   191.41633
   206  O   6.0   -0.32    1.28    1.80   355.91698   126.89961   190.08046
   207  C   4.0   -0.06    4.10    3.81   349.87569   126.85124   189.42018
   208  H   1.0    0.11    1.10    1.44   353.77893   130.77526   189.56000
   209  H   1.0    0.07    1.07    1.44   350.77543   127.90903   193.23975
   210  H   1.0    0.05    1.00    1.43   349.44964   124.90280   189.91013
   211  H   1.0    0.05    1.00    1.43   348.13067   127.93332   189.41766
   212  H   1.0    0.05    1.00    1.43   350.70342   126.91675   187.54166
   213  N   5.0   -0.14    3.50    2.08   354.02699   124.44013   193.02291
   214  C   4.0    0.04    4.54    4.59   355.82224   122.38472   192.82918
   215  C   4.0    0.15    3.45    3.09   354.70133   120.52947   190.91175
   216  O   6.0   -0.32    1.27    1.80   352.52044   119.74362   191.10893
   217  C   4.0   -0.02    4.25    4.11   356.36568   121.16917   195.39782
   218  C   4.0   -0.08    4.14    3.87   358.03616   118.85327   195.00546
   219  C   4.0   -0.08    4.12    3.84   357.69963   123.07972   197.09557
   220  H   1.0    0.11    1.10    1.44   352.37330   124.10416   193.94201
   221  H   1.0    0.07    1.08    1.44   357.57391   123.15871   192.05856
   222  H   1.0    0.04    1.05    1.44   354.56913   120.59982   196.25359
   223  H   1.0    0.03    1.00    1.43   358.61836   118.08405   196.81845
   224  H   1.0    0.05    1.00    1.43   357.04914   117.38661   193.95636
   225  H   1.0    0.05    1.00    1.43   359.70391   119.39814   193.93365
   226  H   1.0    0.03    1.00    1.43   357.91448   122.32299   198.98981
   227  H   1.0    0.04    1.00    1.43   359.56087   123.49223   196.33207
   228  H   1.0    0.04    1.00    1.43   356.63097   124.82766   197.19452
   229  N   5.0   -0.14    3.48    2.06   356.20911   120.03725   188.96327
   230  C   4.0    0.04    4.42    4.42   355.53086   118.39879   186.88032
   231  C   4.0    0.15    3.43    3.09   356.73100   115.81103   187.33934
   232  O   6.0   -0.31    1.28    1.80   358.97564   115.61963   187.86566
   233  C   4.0   -0.04    4.28    4.16   356.51233   119.49595   184.39630
   234  C   4.0   -0.04    4.19    3.98   355.53418   118.01669   182.12144
   235  C   4.0   -0.04    4.19    3.98   356.54247   119.16107   179.67524
   236  C   4.0   -0.02    4.12    3.85   355.20548   118.10778   177.35482
   237  N   5.0   -0.11    4.01    2.88   356.00638   119.55055   175.08937
   238  H   1.0    0.11    1.10    1.44   358.03613   120.63562   189.03485
   239  H   1.0    0.07    1.07    1.44   353.47503   118.21623   186.82807
   240  H   1.0    0.04    1.03    1.43   355.87436   121.45104   184.25338
   241  H   1.0    0.06    1.03    1.43   358.57571   119.48539   184.43024
   242  H   1.0    0.06    1.03    1.43   356.08697   116.03414   182.24218
   243  H   1.0    0.06    1.03    1.43   353.46991   118.05018   182.11724
   244  H   1.0    0.05    1.03    1.43   356.24808   121.19980   179.72940
   245  H   1.0    0.04    1.03    1.43   358.56601   118.80012   179.54529
   246  H   1.0    0.06    1.02    1.43   355.59159   116.09531   177.13474
   247  H   1.0    0.06    1.02    1.43   353.16602   118.30950   177.57622
   248  H   1.0    0.07    1.02    1.43   354.89245   119.11960   173.57463
   249  H   1.0    0.11    1.17    1.46   355.77564   121.62289   175.51841
   250  H   1.0    0.06    1.02    1.43   357.85851   119.19504   174.68077
   251  N   5.0   -0.14    3.50    2.08   355.13589   113.86899   187.18029
   252  C   4.0    0.04    4.50    4.53   355.83185   111.25165   187.60870
   253  C   4.0    0.15    3.48    3.11   354.87875   109.81931   185.28972
   254  O   6.0   -0.31    1.30    1.80   352.67937   109.11351   185.10633
   255  C   4.0   -0.01    4.28    4.15   354.58689   110.22140   190.02277
   256  C   4.0   -0.07    4.12    3.85   355.31337   107.45482   190.37092
   257  C   4.0   -0.07    4.11    3.83   355.36988   111.78262   192.31223
   258  H   1.0    0.11    1.11    1.44   353.32057   114.20097   186.65274
   259  H   1.0    0.07    1.06    1.44   357.89376   111.14383   187.76062
   260  H   1.0    0.05    1.05    1.44   352.53713   110.35280   189.75004
   261  H   1.0    0.04    1.00    1.43   354.27104   106.65159   191.94220
   262  H   1.0    0.05    1.00    1.43   354.86214   106.37519   188.67989
   263  H   1.0    0.06    1.00    1.43   357.32521   107.28807   190.75931
   264  H   1.0    0.03    1.00    1.43   354.49472   111.04149   194.01366
   265  H   1.0    0.05    1.00    1.43   357.41105   111.70568   192.53398
   266  H   1.0    0.05    1.00    1.43   354.79890   113.74337   192.07903
   267  N   5.0   -0.14    3.36    2.00   356.58814   109.49081   183.45423
   268  C   4.0    0.02    4.25    4.10   355.87658   108.47118   181.00779
   269  C   4.0    0.16    3.34    3.06   353.81631   110.15304   179.83599
   270  O   6.0   -0.30    1.21    1.80   354.27785   112.31436   179.16119
   271  H   1.0    0.09    1.06    1.44   358.36174   110.13978   183.71559
   272  H   1.0    0.05    1.03    1.43   357.52865   108.47654   179.78406
   273  H   1.0    0.05    1.03    1.43   355.14750   106.54939   181.21559
   274  N   5.0   -0.13    3.56    2.13   351.52616   109.09575   179.77646
   275  C   4.0    0.04    4.41    4.40   349.34704   110.24663   178.60837
   276  C   4.0    0.16    3.42    3.08   347.74098   111.78832   180.46210
   277  O   6.0   -0.29    1.22    1.80   345.97532   113.09088   179.71396
   278  C   4.0   -0.02    4.29    4.19   347.61572   108.16505   177.57604
   279  C   4.0    0.25    3.14    3.03   349.18074   106.15475   176.08896
   280  O   6.0   -0.30    1.23    1.80   350.56123   104.75040   177.39973
   281  O   6.0   -0.29    1.16    1.80   348.95933   106.11662   173.75561
   282  H   1.0    0.11    1.12    1.45   351.36829   107.18017   179.91217
   283  H   1.0    0.07    1.05    1.44   349.95801   111.50749   177.07587
   284  H   1.0    0.07    1.03    1.43   346.68952   107.22435   179.16818
   285  H   1.0    0.06    1.02    1.43   346.18641   108.99349   176.34817
   286  N   5.0   -0.11    3.53    2.10   348.36011   111.53268   182.88634
   287  C   4.0    0.04    4.43    4.42   346.83254   112.50834   184.91440
   288  C   4.0    0.15    3.41    3.08   347.98080   114.94778   185.95805
   289  O   6.0   -0.31    1.29    1.80   350.19885   115.51329   185.64266
   290  C   4.0   -0.03    4.26    4.13   346.61274   110.55391   187.03535
   291  C   4.0    0.25    3.10    3.02   344.70012   108.41895   186.32899
   292  O   6.0   -0.28    1.18    1.80   344.80028   107.50692   184.18652
   293  O   6.0   -0.32    1.34    1.80   343.18246   107.78416   188.04426
   294  H   1.0    0.12    1.12    1.45   349.83560   110.40377   183.36251
   295  H   1.0    0.06    1.06    1.44   344.96859   112.93105   184.10442
   296  H   1.0    0.06    1.03    1.43   348.46020   109.67265   187.30137
   297  H   1.0    0.05    1.03    1.43   346.03788   111.47666   188.78504
   298  N   5.0   -0.14    3.49    2.07   346.39021   116.33625   187.35863
   299  C   4.0    0.04    4.42    4.41   347.04785   118.78367   188.38150
   300  C   4.0    0.14    3.41    3.08   345.85283   119.09312   190.99795
   301  O   6.0   -0.32    1.26    1.80   343.68725   118.37496   191.40498
   302  C   4.0   -0.03    4.33    4.26   345.97210   120.92433   186.70751
   303  C   4.0   -0.01    3.57    3.15   346.69820   120.63697   183.97896
   304  C   4.0   -0.04    3.47    3.10   345.14863   119.30126   182.32880
   305  C   4.0   -0.04    3.47    3.10   348.90515   121.69805   183.04217
   306  C   4.0   -0.02    3.44    3.09   345.74502   119.07507   179.80266
   307  C   4.0   -0.05    3.43    3.09   349.51375   121.49829   180.50840
   308  C   4.0    0.07    3.44    3.09   347.93024   120.20046   178.85513
   309  O   6.0   -0.23    2.11    1.84   348.41709   119.96634   176.34604
   310  H   1.0    0.08    1.07    1.44   344.54111   115.86797   187.44758
   311  H   1.0    0.07    1.06    1.44   349.10646   118.88800   188.47483
   312  H   1.0    0.04    1.03    1.43   343.91489   120.86645   186.87177
   313  H   1.0    0.04    1.03    1.43   346.66127   122.72356   187.43744
   314  H   1.0    0.05    1.03    1.43   343.42835   118.43567   183.00975
   315  H   1.0    0.05    1.03    1.43   350.14903   122.71889   184.29621
   316  H   1.0    0.07    1.03    1.43   344.56111   118.00778   178.53285
   317  H   1.0    0.05    1.03    1.43   351.21886   122.36206   179.79397
   318  H   1.0    0.15    1.09    1.44   349.66607   121.22295   175.76757
   319  N   5.0   -0.14    3.47    2.06   347.29076   120.31362   192.66476
   320  C   4.0    0.04    4.41    4.40   346.48673   120.98746   195.19343
   321  C   4.0    0.15    3.47    3.10   346.96975   123.80487   195.62505
   322  O   6.0   -0.32    1.33    1.80   349.06806   124.70405   195.21607
   323  C   4.0   -0.03    4.34    4.27   348.02442   119.54286   197.19751
   324  C   4.0   -0.01    3.55    3.14   347.52174   116.75577   197.13479
   325  C   4.0   -0.04    3.47    3.10   348.79640   115.18981   195.45136
   326  C   4.0   -0.04    3.47    3.10   345.75648   115.69791   198.76337
   327  C   4.0   -0.04    3.43    3.09   348.33273   112.62046   195.40827
   328  C   4.0   -0.05    3.43    3.09   345.29632   113.12611   198.75274
   329  C   4.0    0.06    3.45    3.10   346.59695   111.57374   197.08177
   330  O   6.0   -0.27    2.14    1.85   346.16829   109.02838   196.97390
   331  H   1.0    0.11    1.09    1.44   349.15820   120.56167   192.26850
   332  H   1.0    0.07    1.06    1.44   344.47578   120.57940   195.38466
   333  H   1.0    0.05    1.03    1.43   350.02318   119.92390   196.85260
   334  H   1.0    0.05    1.04    1.43   347.49910   120.31702   199.03165
   335  H   1.0    0.06    1.03    1.43   350.17186   115.98217   194.16849
   336  H   1.0    0.06    1.03    1.43   344.72924   116.89781   200.05719
   337  H   1.0    0.05    1.03    1.43   349.32413   111.40204   194.10895
   338  H   1.0    0.05    1.03    1.43   343.93047   112.33965   200.05133
   339  H   1.0    0.11    1.04    1.43   345.20389   108.51267   198.43897
   340  N   5.0   -0.14    3.46    2.05   345.00026   125.19929   196.37902
   341  C   4.0    0.04    4.42    4.41   345.41433   127.83489   197.00495
   342  C   4.0    0.17    3.47    3.10   347.57889   128.05699   198.92240
   343  O   6.0   -0.29    1.24    1.80   347.72764   126.64103   200.75375
   344  C   4.0    0.04    4.14    3.89   342.98167   128.97749   198.08219
   345  O   6.0   -0.23    2.07    1.84   342.20097   127.57711   200.19151
   346  H   1.0    0.11    1.09    1.44   343.53528   124.32907   197.25665
   347  H   1.0    0.05    1.05    1.44   345.95082   128.86895   195.29145
   348  H   1.0    0.05    1.01    1.43   343.34577   130.96033   198.58241
   349  H   1.0    0.04    1.01    1.43   341.51974   128.93469   196.60319
   350  H   1.0    0.15    1.09    1.44   340.68672   128.38356   200.94772
   351  N   5.0   -0.13    3.46    2.06   349.25994   129.87260   198.42917
   352  C   4.0    0.04    4.26    4.11   351.41265   130.27079   200.05936
   353  C   4.0    0.07    3.21    3.04   351.77820   133.08859   200.51438
   354  O   6.0   -0.29    1.13    1.80   351.32521   134.68381   198.90405
   355  C   4.0   -0.07    4.10    3.80   353.79760   129.13277   198.89484
   356  H   1.0    0.11    1.09    1.44   349.15431   130.98415   196.86388
   357  H   1.0    0.05    1.06    1.44   351.01663   129.34597   201.86455
   358  H   1.0    0.03    1.00    1.43   355.36116   129.31746   200.21025
   359  H   1.0    0.05    1.00    1.43   353.46646   127.13939   198.52805
   360  H   1.0    0.05    1.00    1.43   354.24943   130.09054   197.13184
   361  N   5.0   -0.22    3.22    1.96   364.95711   132.28104   206.55305
   362  C   4.0    0.02    4.29    4.19   362.63288   131.67149   205.24394
   363  C   4.0    0.07    3.23    3.04   361.40451   129.35261   206.42160
   364  O   6.0   -0.31    1.12    1.80   362.43227   127.29138   206.63332
   365  C   4.0   -0.03    4.33    4.26   363.08501   131.37721   202.37419
   366  C   4.0   -0.05    4.19    3.99   360.57429   130.77458   201.06462
   367  C   4.0   -0.08    4.13    3.85   365.11399   129.41158   201.82459
   368  C   4.0   -0.09    4.01    3.64   360.72616   131.03592   198.20083
   369  H   1.0    0.09    1.02    1.43   365.92727   130.87314   207.44529
   370  H   1.0    0.03    1.05    1.44   361.36011   133.28367   205.52423
   371  H   1.0    0.03    1.05    1.44   363.76954   133.22069   201.71638
   372  H   1.0    0.04    1.03    1.43   360.00613   128.85606   201.57422
   373  H   1.0    0.03    1.03    1.43   359.13665   132.06414   201.79821
   374  H   1.0    0.03    1.00    1.43   365.42843   129.25538   199.80524
   375  H   1.0    0.03    1.00    1.43   366.89124   129.95647   202.70464
   376  H   1.0    0.05    1.00    1.43   364.56213   127.58408   202.58247
   377  H   1.0    0.04    1.00    1.43   358.86128   130.81910   197.37341
   378  H   1.0    0.03    1.00    1.43   361.45474   132.89163   197.70913
   379  H   1.0    0.03    1.00    1.43   361.96854   129.61286   197.40480
   380  N   5.0   -0.20    3.25    1.97   354.24197   125.01829   207.01497
   381  C   4.0    0.03    4.32    4.24   351.88051   124.35854   205.78459
   382  C   4.0    0.08    3.23    3.04   349.71455   125.09477   207.55122
   383  O   6.0   -0.29    1.13    1.80   349.91986   124.94177   209.85568
   384  C   4.0   -0.02    4.33    4.25   351.82244   121.54096   205.08200
   385  C   4.0   -0.05    4.20    3.99   353.91123   120.99695   203.14683
   386  C   4.0   -0.08    4.13    3.87   349.22235   120.87422   204.03400
   387  C   4.0   -0.08    4.01    3.63   354.36345   118.18252   202.72798
   388  H   1.0    0.09    1.03    1.43   354.62835   124.04014   208.60849
   389  H   1.0    0.04    1.05    1.44   351.74546   125.49832   204.06584
   390  H   1.0    0.04    1.05    1.44   352.17214   120.44310   206.80315
   391  H   1.0    0.04    1.03    1.43   353.38673   121.90044   201.36800
   392  H   1.0    0.03    1.04    1.43   355.65361   121.88022   203.80686
   393  H   1.0    0.03    1.00    1.43   349.23558   118.96815   203.27534
   394  H   1.0    0.04    1.00    1.43   347.78254   120.99717   205.49455
   395  H   1.0    0.06    1.00    1.43   348.71890   122.19039   202.53622
   396  H   1.0    0.04    1.00    1.43   355.93749   117.90506   201.43996
   397  H   1.0    0.04    1.00    1.43   354.80474   117.25130   204.50519
   398  H   1.0    0.03    1.00    1.43   352.71204   117.28083   201.90921
   399  N   5.0   -0.20    3.25    1.97   341.96532   114.23891   208.94522
   400  C   4.0    0.03    4.33    4.26   342.98798   116.08788   207.22038
   401  C   4.0    0.15    3.41    3.08   341.01185   116.81658   205.23533
   402  O   6.0   -0.30    1.24    1.80   339.31767   115.38327   204.60236
   403  C   4.0   -0.05    4.36    4.30   345.32499   114.98162   205.90651
   404  C   4.0   -0.03    4.19    3.98   347.30169   113.89725   207.73421
   405  C   4.0   -0.08    4.10    3.80   349.53208   112.85906   206.22031
   406  C   4.0   -0.08    4.11    3.81   348.19464   115.86962   209.63919
   407  H   1.0    0.08    1.03    1.43   341.88884   112.44316   208.31137
   408  H   1.0    0.04    1.05    1.44   343.46704   117.77416   208.31180
   409  H   1.0    0.04    1.03    1.43   344.69664   113.47626   204.64345
   410  H   1.0    0.04    1.03    1.43   346.18172   116.46911   204.77285
   411  H   1.0    0.03    1.06    1.44   346.45051   112.33684   208.79292
   412  H   1.0    0.04    1.00    1.43   350.86777   111.91599   207.46659
   413  H   1.0    0.04    1.00    1.43   348.88281   111.49673   204.82778
   414  H   1.0    0.03    1.00    1.43   350.50738   114.38608   205.25483
   415  H   1.0    0.04    1.00    1.43   349.70414   115.09967   210.80238
   416  H   1.0    0.04    1.00    1.43   348.89018   117.55065   208.68440
   417  H   1.0    0.04    1.00    1.43   346.66894   116.43175   210.89747
   418  N   5.0   -0.14    3.47    2.06   341.41630   119.08016   204.15706
   419  C   4.0    0.05    4.43    4.43   339.50638   120.26174   202.57645
   420  C   4.0    0.16    3.42    3.09   340.23944   119.97870   199.77670
   421  O   6.0   -0.31    1.27    1.80   341.72419   121.41022   198.73180
   422  C   4.0   -0.02    4.33    4.26   339.24539   123.06141   203.19705
   423  C   4.0    0.15    3.22    3.04   338.51599   123.54864   205.92711
   424  O   6.0   -0.29    1.23    1.80   338.37181   121.87646   207.51516
   425  N   5.0   -0.18    3.19    1.95   338.01220   125.97325   206.45023
   426  H   1.0    0.08    1.07    1.44   342.66958   120.25649   204.99588
   427  H   1.0    0.07    1.06    1.44   337.72380   119.26028   202.91990
   428  H   1.0    0.07    1.03    1.43   341.03167   124.01268   202.78836
   429  H   1.0    0.05    1.03    1.43   337.82628   123.90987   201.96891
   430  H   1.0    0.10    1.03    1.43   337.59407   126.45573   208.24994
   431  H   1.0    0.12    1.06    1.44   338.11176   127.34632   205.11146
   432  N   5.0   -0.13    3.49    2.07   339.22462   117.96441   198.64224
   433  C   4.0    0.04    4.41    4.40   339.46324   117.56209   195.93928
   434  C   4.0    0.15    3.43    3.09   337.82354   119.50441   194.56590
   435  O   6.0   -0.32    1.34    1.80   336.12837   120.64880   195.65972
   436  C   4.0   -0.05    4.27    4.14   338.66394   114.83380   195.37269
   437  C   4.0   -0.04    4.17    3.93   339.20437   113.99268   192.66253
   438  C   4.0   -0.05    4.17    3.93   338.61373   111.18969   192.22554
   439  C   4.0   -0.03    4.12    3.84   340.30113   109.35428   193.66821
   440  N   5.0   -0.12    4.05    2.99   342.92637   109.48339   192.70955
   441  H   1.0    0.11    1.10    1.44   337.69415   117.15910   199.46819
   442  H   1.0    0.06    1.06    1.44   341.43660   117.85194   195.38947
   443  H   1.0    0.04    1.03    1.43   339.70745   113.66401   196.70907
   444  H   1.0    0.05    1.03    1.43   336.65464   114.64106   195.78455
   445  H   1.0    0.06    1.03    1.43   338.02341   115.06688   191.36067
   446  H   1.0    0.06    1.02    1.43   341.16515   114.43549   192.19761
   447  H   1.0    0.04    1.03    1.43   336.65946   110.84382   192.76974
   448  H   1.0    0.05    1.03    1.43   338.78423   110.78141   190.21211
   449  H   1.0    0.04    1.02    1.43   340.28714   109.79109   195.68144
   450  H   1.0    0.04    1.02    1.43   339.61694   107.43515   193.38084
   451  H   1.0    0.10    1.13    1.45   343.03598   108.79063   190.77246
   452  H   1.0    0.06    1.03    1.43   343.52092   111.32563   192.71879
   453  H   1.0    0.07    1.04    1.43   344.15267   108.45874   193.82667
   454  N   5.0   -0.14    3.47    2.06   338.31607   119.85675   192.11656
   455  C   4.0    0.03    4.32    4.24   336.69986   121.42049   190.54990
   456  C   4.0    0.07    3.21    3.04   335.02023   119.71494   188.90730
   457  O   6.0   -0.30    1.13    1.80   335.74032   117.67085   188.11690
   458  C   4.0   -0.05    4.33    4.26   338.23816   123.18883   188.85485
   459  C   4.0   -0.02    4.17    3.95   339.71019   125.20581   190.32854
   460  C   4.0   -0.08    4.10    3.81   341.48997   126.61565   188.54488
   461  C   4.0   -0.08    4.10    3.81   337.94166   127.08730   191.62048
   462  H   1.0    0.10    1.08    1.44   339.88472   119.08247   191.33600
   463  H   1.0    0.05    1.07    1.44   335.47172   122.50659   191.80757
   464  H   1.0    0.05    1.03    1.43   339.56420   122.04125   187.76758
   465  H   1.0    0.03    1.03    1.43   336.95539   124.10454   187.52241
   466  H   1.0    0.05    1.05    1.44   340.83513   124.26821   191.79532
   467  H   1.0    0.04    1.00    1.43   342.52169   128.05827   189.58412
   468  H   1.0    0.04    1.00    1.43   342.84662   125.32969   187.69766
   469  H   1.0    0.03    1.00    1.43   340.41257   127.52262   187.04842
   470  H   1.0    0.04    1.00    1.43   339.02232   128.54013   192.59643
   471  H   1.0    0.03    1.00    1.43   336.71757   128.01882   190.25438
   472  H   1.0    0.04    1.00    1.43   336.74379   126.17693   193.02177
   473  N   5.0   -0.20    3.23    1.96   330.79155   126.72383   195.98364
   474  C   4.0    0.03    4.32    4.23   332.29544   125.09092   197.59738
   475  C   4.0    0.15    3.42    3.08   330.57970   122.90881   198.43563
   476  O   6.0   -0.30    1.23    1.80   328.54074   123.34371   199.47245
   477  C   4.0   -0.04    4.27    4.14   333.30569   126.53529   199.88180
   478  C   4.0   -0.04    4.17    3.94   335.48690   128.30327   199.21447
   479  C   4.0    0.24    3.11    3.03   336.12372   129.98742   201.52822
   480  O   6.0   -0.30    1.17    1.80   334.47477   131.44954   202.29408
   481  O   6.0   -0.32    1.30    1.80   338.29261   129.72080   202.50410
   482  H   1.0    0.08    1.03    1.43   329.88425   128.17456   196.82096
   483  H   1.0    0.05    1.06    1.44   333.85731   124.32681   196.47998
   484  H   1.0    0.06    1.03    1.43   331.78542   127.64507   200.73153
   485  H   1.0    0.05    1.03    1.43   333.94281   125.17307   201.29947
   486  H   1.0    0.05    1.02    1.43   337.15142   127.22486   198.65225
   487  H   1.0    0.04    1.03    1.43   334.92916   129.55155   197.66945
   488  N   5.0   -0.14    3.51    2.09   331.37742   120.60582   197.85023
   489  C   4.0    0.03    4.50    4.53   330.01774   118.35652   198.59191
   490  C   4.0    0.14    3.45    3.10   331.74280   116.81517   200.31254
   491  O   6.0   -0.31    1.29    1.80   334.04547   116.99514   200.23380
   492  C   4.0   -0.02    4.24    4.09   329.11627   116.78966   196.29243
   493  C   4.0   -0.08    4.11    3.83   327.50064   118.43538   194.55702
   494  C   4.0   -0.07    4.12    3.84   331.33493   115.65733   194.83976
   495  H   1.0    0.12    1.12    1.45   333.13956   120.36717   197.11127
   496  H   1.0    0.05    1.07    1.44   328.36664   118.99648   199.66884
   497  H   1.0    0.04    1.05    1.44   327.95505   115.25219   197.05038
   498  H   1.0    0.03    1.00    1.43   326.70440   117.29831   193.04615
   499  H   1.0    0.04    1.00    1.43   325.96324   119.31354   195.60168
   500  H   1.0    0.05    1.00    1.43   328.63791   119.93813   193.72969
   501  H   1.0    0.04    1.00    1.43   330.64327   114.62119   193.20940
   502  H   1.0    0.06    1.00    1.43   332.59045   117.14459   194.17929
   503  H   1.0    0.05    1.00    1.43   332.38618   114.37618   196.05060
   504  N   5.0   -0.14    3.46    2.05   330.56104   115.20858   201.86925
   505  C   4.0    0.04    4.41    4.40   332.00470   113.82831   203.73768
   506  C   4.0    0.07    3.24    3.04   330.97093   111.16511   204.05943
   507  O   6.0   -0.31    1.13    1.80   328.71045   110.71154   204.17948
   508  C   4.0   -0.02    4.26    4.11   332.03232   115.24066   206.30184
   509  C   4.0   -0.07    4.12    3.83   329.42638   115.26726   207.54027
   510  C   4.0   -0.07    4.10    3.81   334.03556   114.10275   208.03150
   511  H   1.0    0.08    1.06    1.44   328.64881   115.21386   202.01501
   512  H   1.0    0.06    1.07    1.44   333.95234   113.76952   203.03678
   513  H   1.0    0.05    1.06    1.44   332.59017   117.18791   205.86033
   514  H   1.0    0.03    1.00    1.43   329.44905   116.42093   209.24219
   515  H   1.0    0.04    1.00    1.43   328.02973   116.05403   206.25299
   516  H   1.0    0.05    1.00    1.43   328.85185   113.36402   208.05779
   517  H   1.0    0.04    1.00    1.43   334.24630   115.26405   209.71114
   518  H   1.0    0.04    1.00    1.43   333.52849   112.19073   208.58981
   519  H   1.0    0.06    1.01    1.43   335.85032   114.08329   207.06645
   520  H   1.0    0.08    1.08    1.44   335.65156   125.67309   171.24978
   521  H   1.0    0.05    1.05    1.44   343.11920   126.73385   171.91844
   522  H   1.0    0.10    1.08    1.44   348.84271   127.63425   173.83641
   523  H   1.0    0.05    1.05    1.44   355.58409   131.08276   174.79951
   524  H   1.0    0.08    1.08    1.44   373.96957   122.27667   202.72026
   525  H   1.0    0.04    1.05    1.44   371.45490   120.38734   205.57973
   526  H   1.0    0.09    1.07    1.44   362.66577   120.75159   208.75770
   527  H   1.0    0.06    1.05    1.44   363.67089   115.48999   204.90924
   528  H   1.0    0.09    1.07    1.44   356.00861   110.92402   207.33309
   529  H   1.0    0.05    1.05    1.44   359.05141   105.32340   206.35740
   530  H   1.0    0.08    1.07    1.44   353.12226    99.24271   202.06822
   531  H   1.0    0.04    1.05    1.44   358.20799    99.01273   196.80275
   532  H   1.0    0.08    1.07    1.44   359.71290    99.34561   191.38554
   533  H   1.0    0.04    1.05    1.44   356.05162   133.86510   183.42628
   534  H   1.0    0.09    1.07    1.44   351.14029   133.86451   182.00651
   535  H   1.0    0.04    1.04    1.43   345.84160   135.15393   176.93180
   536  H   1.0    0.08    1.07    1.44   351.64556   138.40377   190.70931
   537  H   1.0    0.05    1.05    1.44   352.41312   133.70129   202.18547
   538  H   1.0    0.08    1.08    1.44   366.07514   132.93444   205.45049
   539  H   1.0    0.05    1.05    1.44   359.63871   129.45393   207.08696
   540  H   1.0    0.08    1.08    1.44   355.53614   124.73625   205.94813
   541  H   1.0    0.06    1.04    1.44   348.08122   125.71893   206.83447
   542  H   1.0    0.08    1.08    1.44   342.91186   114.19542   210.35757
   543  H   1.0    0.04    1.05    1.44   333.27168   120.26782   188.45126
   544  H   1.0    0.08    1.07    1.44   331.79084   127.43242   194.80385
   545  H   1.0    0.05    1.05    1.44   332.15739   109.69935   204.18155

  Z AO/shell   Hii/eV     exponent
  1     Wed Apr 25 08:07:45 CEST 2018   EN: 2.200 GM2: 0.406  GM3: 0.0800  RAES: 1.40
     1s    -10.707211    1.230000
  6     Wed Apr 25 08:07:45 CEST 2018   EN: 2.550 GM2: 0.538  GM3: 0.1500  RAES: 3.00
     2s    -13.970922    2.096432
     2p    -10.063292    1.800000
  7     Wed Apr 25 08:07:45 CEST 2018   EN: 3.040 GM2: 0.461  GM3:-0.0640  RAES: 1.90
     2s    -16.686243    2.339881
     2p    -12.523956    2.014332
  8     Wed Apr 25 08:07:45 CEST 2018   EN: 3.440 GM2: 0.452  GM3:-0.0517  RAES: 1.80
     2s    -20.229985    2.439742
     2p    -15.503117    2.137023
 16     Tue Apr 24 11:44:34 CEST 2018   EN: 2.580 GM2: 0.340  GM3:-0.0502  RAES: 3.10
     3s    -20.029654    1.981333
     3p    -11.377694    2.025643
     3d     -0.420282    1.702555
 no old-style atom pair restraining (fixing) potential

molecular fragmentation (1/2 indicates fragments):
111111111111111122222222222222222222222222222222222222222222222222222222
222222222222222222222222222222222222222222222222222222222222222222222222
222222222222222222222222222222222222222222222222222222222222222222222222
222222222222222222222222222222222222222222222222222222222222222222222222
222222222222222222222222222222222222222222222222222222222222222222222222
222222222222222222222222222222222222222222222222222222222222222222222222
222222222222222222222222222222222222222222222222222222222222222222222222
22222222222222211222222222222222222222222
# atoms in fragment 1/2:    18   527
 fragment masses (1/2) :      101.15     3484.27
CMA distance (Bohr)    :  23.631
constraining FC (au)   :  0.0500
           ------------------------------------------------- 
          |        Self-Consistent Charge Iterations        |
           ------------------------------------------------- 

 Ncao       : 1301
 Nao        : 1300
 Nshell     : 796
 Nel        : 1432
 T(el)      :   500.0
 intcut     :    35.0
 scfconv/Eh :  0.100E-06
   qconv/e  :  0.100E-04
 intneglect :  0.100E-08
 broydamp   :      0.400
 iter      E             dE          RMSdq      gap      omega  full diag
   1   -816.8796833 -0.816880E+03  0.451E+00    3.26       0.0  T
   2   -818.8909230 -0.201124E+01  0.209E+00    1.82       1.0  T
   3   -819.0211183 -0.130195E+00  0.122E+00    1.86       1.0  T
   4   -819.1441299 -0.123012E+00  0.237E-01    1.29       1.0  T
   5   -819.1506015 -0.647162E-02  0.115E-01    1.46       1.0  T
   6   -819.1516612 -0.105975E-02  0.485E-02    1.46       1.0  T
   7   -819.1519419 -0.280679E-03  0.211E-02    1.45       1.0  T
   8   -819.1519850 -0.431337E-04  0.104E-02    1.45       1.0  T
   9   -819.1519994 -0.143831E-04  0.498E-03    1.45       1.0  T
  10   -819.1520021 -0.263851E-05  0.215E-03    1.45       2.0  T
  11   -819.1520025 -0.439206E-06  0.979E-04    1.45       4.4  T
  12   -819.1520026 -0.738505E-07  0.407E-04    1.45      10.5  T
  13   -819.1520026 -0.208303E-07  0.213E-04    1.45      20.1  T
  14   -819.1520026 -0.450018E-08  0.921E-05    1.45      46.5  T
  15   -819.1520026 -0.138709E-08  0.390E-05    1.45     109.8  T
speedup 14.01
cpu  time for SCC    1 m  3.2 s
wall time for SCC    0 m  4.5 s

   *** convergence criteria satisfied after 15 iterations ***

          eigenvalues
 #    :         704        705        706        707        708        709        710        711
 occ. :        2.000      2.000      2.000      2.000      2.000      2.000      2.000      2.000
 eps  :       -10.035    -10.030    -10.016    -10.003     -9.946     -9.930     -9.914     -9.868
 #    :         712        713        714        715        716        717        718        719
 occ. :        2.000      2.000      2.000      2.000      2.000      0.000      0.000      0.000
 eps  :        -9.762     -9.740     -9.709     -9.583     -9.541     -8.093     -8.052     -8.047
 #    :         720        721        722        723        724        725        726        727
 occ. :        0.000      0.000      0.000      0.000      0.000      0.000      0.000      0.000
 eps  :        -7.870     -7.797     -7.724     -7.689     -7.655     -7.633     -7.592     -7.495


   #   Z            q   n(s)   n(p)   n(d)      C6AA      α(0)
   1   7 N     -0.383  1.316  4.067  0.000    29.894     8.120
   2   6 C      0.032  1.062  2.906  0.000    20.048     6.378
   3   6 C      0.204  1.084  2.711  0.000    23.662     7.966
   4   8 O     -0.375  1.759  4.616  0.000    21.194     6.172
   5   6 C     -0.013  1.064  2.949  0.000    20.766     6.481
   6   6 C     -0.115  1.040  3.075  0.000    22.749     6.801
   7   6 C     -0.116  1.040  3.076  0.000    22.784     6.806
   8   1 H      0.157  0.843  0.000  0.000     1.353     1.822
   9   1 H      0.064  0.936  0.000  0.000     2.151     2.294
  10   1 H      0.028  0.972  0.000  0.000     2.610     2.526
  11   1 H      0.045  0.955  0.000  0.000     2.382     2.414
  12   1 H      0.023  0.977  0.000  0.000     2.681     2.561
  13   1 H      0.050  0.950  0.000  0.000     2.318     2.381
  14   1 H      0.047  0.953  0.000  0.000     2.359     2.402
  15   1 H      0.052  0.948  0.000  0.000     2.292     2.367
  16   1 H      0.047  0.953  0.000  0.000     2.354     2.400
  17   7 N     -0.378  1.306  4.071  0.000    29.758     8.102
  18   6 C      0.047  1.054  2.899  0.000    19.805     6.339
  19   6 C      0.202  1.084  2.714  0.000    23.712     7.975
  20   8 O     -0.375  1.757  4.618  0.000    21.195     6.172
  21   6 C     -0.099  1.065  3.034  0.000    22.384     6.735
  22   6 C      0.370  1.021  2.608  0.000    20.722     7.450
  23   8 O     -0.557  1.753  4.804  0.000    25.074     6.714
  24   8 O     -0.594  1.765  4.829  0.000    25.983     6.834
  25   1 H      0.161  0.839  0.000  0.000     1.327     1.804
  26   1 H      0.060  0.940  0.000  0.000     2.196     2.317
  27   1 H      0.057  0.943  0.000  0.000     2.236     2.338
  28   1 H      0.054  0.946  0.000  0.000     2.268     2.355
  29   7 N     -0.384  1.320  4.064  0.000    29.933     8.126
  30   6 C      0.037  1.055  2.908  0.000    19.966     6.365
  31   6 C      0.186  1.087  2.727  0.000    24.014     8.025
  32   8 O     -0.378  1.760  4.618  0.000    21.244     6.180
  33   6 C     -0.065  1.057  3.008  0.000    21.741     6.637
  34   6 C     -0.012  1.057  2.956  0.000    20.757     6.480
  35   6 C     -0.110  1.040  3.070  0.000    22.661     6.787
  36   6 C     -0.123  1.042  3.081  0.000    22.907     6.824
  37   1 H      0.165  0.835  0.000  0.000     1.303     1.788
  38   1 H      0.070  0.930  0.000  0.000     2.084     2.257
  39   1 H      0.043  0.957  0.000  0.000     2.415     2.430
  40   1 H      0.053  0.947  0.000  0.000     2.287     2.365
  41   1 H      0.046  0.954  0.000  0.000     2.367     2.406
  42   1 H      0.032  0.968  0.000  0.000     2.554     2.499
  43   1 H      0.036  0.964  0.000  0.000     2.501     2.473
  44   1 H      0.037  0.963  0.000  0.000     2.492     2.468
  45   1 H      0.048  0.952  0.000  0.000     2.343     2.394
  46   1 H      0.043  0.957  0.000  0.000     2.403     2.424
  47   1 H      0.040  0.960  0.000  0.000     2.443     2.444
  48   7 N     -0.383  1.309  4.074  0.000    29.902     8.121
  49   6 C      0.048  1.051  2.901  0.000    19.791     6.337
  50   6 C      0.201  1.096  2.702  0.000    23.715     7.975
  51   8 O     -0.369  1.745  4.624  0.000    21.075     6.155
  52   6 C     -0.114  1.041  3.073  0.000    22.729     6.797
  53   1 H      0.165  0.835  0.000  0.000     1.303     1.788
  54   1 H      0.045  0.955  0.000  0.000     2.380     2.413
  55   1 H      0.048  0.952  0.000  0.000     2.344     2.394
  56   1 H      0.057  0.943  0.000  0.000     2.240     2.340
  57   1 H      0.062  0.938  0.000  0.000     2.179     2.308
  58   7 N     -0.405  1.314  4.091  0.000    30.525     8.206
  59   6 C      0.044  1.053  2.902  0.000    19.854     6.347
  60   6 C      0.199  1.096  2.706  0.000    23.769     7.984
  61   8 O     -0.385  1.751  4.635  0.000    21.386     6.200
  62   6 C     -0.064  1.059  3.005  0.000    21.719     6.633
  63   6 C     -0.010  1.056  2.954  0.000    20.723     6.475
  64   6 C     -0.117  1.042  3.075  0.000    22.785     6.805
  65   6 C     -0.113  1.039  3.074  0.000    22.709     6.795
  66   1 H      0.193  0.807  0.000  0.000     1.143     1.675
  67   1 H      0.047  0.953  0.000  0.000     2.354     2.400
  68   1 H      0.048  0.952  0.000  0.000     2.349     2.397
  69   1 H      0.034  0.966  0.000  0.000     2.524     2.485
  70   1 H      0.049  0.951  0.000  0.000     2.333     2.389
  71   1 H      0.045  0.955  0.000  0.000     2.381     2.413
  72   1 H      0.038  0.962  0.000  0.000     2.477     2.461
  73   1 H      0.038  0.962  0.000  0.000     2.475     2.460
  74   1 H      0.041  0.959  0.000  0.000     2.433     2.439
  75   1 H      0.036  0.964  0.000  0.000     2.506     2.476
  76   1 H      0.039  0.961  0.000  0.000     2.462     2.454
  77   7 N     -0.394  1.316  4.078  0.000    30.219     8.164
  78   6 C      0.036  1.060  2.904  0.000    19.978     6.366
  79   6 C      0.204  1.087  2.709  0.000    23.667     7.967
  80   8 O     -0.371  1.755  4.616  0.000    21.103     6.159
  81   6 C     -0.013  1.062  2.950  0.000    20.762     6.481
  82   6 C     -0.110  1.039  3.071  0.000    22.653     6.786
  83   6 C     -0.116  1.040  3.075  0.000    22.770     6.804
  84   1 H      0.177  0.823  0.000  0.000     1.230     1.737
  85   1 H      0.043  0.957  0.000  0.000     2.413     2.429
  86   1 H      0.041  0.959  0.000  0.000     2.432     2.439
  87   1 H      0.048  0.952  0.000  0.000     2.341     2.393
  88   1 H      0.032  0.968  0.000  0.000     2.557     2.500
  89   1 H      0.032  0.968  0.000  0.000     2.558     2.501
  90   1 H      0.051  0.949  0.000  0.000     2.312     2.378
  91   1 H      0.044  0.956  0.000  0.000     2.393     2.419
  92   1 H      0.047  0.953  0.000  0.000     2.353     2.399
  93   7 N     -0.379  1.302  4.076  0.000    29.791     8.106
  94   6 C     -0.010  1.048  2.962  0.000    20.833     6.514
  95   6 C      0.276  1.043  2.681  0.000    22.335     7.739
  96   8 O     -0.483  1.745  4.739  0.000    23.420     6.488
  97   1 H      0.149  0.851  0.000  0.000     1.411     1.861
  98   1 H      0.053  0.947  0.000  0.000     2.287     2.365
  99   1 H      0.036  0.964  0.000  0.000     2.501     2.473
 100   7 N     -0.177  1.244  3.934  0.000    24.837     7.402
 101   6 C      0.017  1.067  2.916  0.000    20.295     6.415
 102   6 C      0.278  1.041  2.682  0.000    22.302     7.733
 103   8 O     -0.488  1.744  4.744  0.000    23.522     6.502
 104   6 C      0.114  1.047  2.839  0.000    18.808     6.192
 105   8 O     -0.486  1.726  4.760  0.000    22.600     6.418
 106   6 C     -0.144  1.046  3.098  0.000    23.339     6.889
 107   1 H      0.219  0.781  0.000  0.000     1.013     1.576
 108   1 H      0.063  0.937  0.000  0.000     2.168     2.303
 109   1 H      0.026  0.974  0.000  0.000     2.651     2.546
 110   1 H      0.351  0.649  0.000  0.000     0.586     1.202
 111   1 H      0.071  0.929  0.000  0.000     2.072     2.251
 112   1 H      0.055  0.945  0.000  0.000     2.261     2.352
 113   1 H      0.070  0.930  0.000  0.000     2.084     2.257
 114   7 N     -0.170  1.244  3.926  0.000    24.679     7.378
 115   6 C      0.011  1.062  2.927  0.000    20.399     6.432
 116   6 C      0.270  1.045  2.686  0.000    22.444     7.758
 117   8 O     -0.478  1.739  4.740  0.000    23.307     6.473
 118   6 C     -0.130  1.042  3.087  0.000    23.044     6.844
 119   1 H      0.210  0.790  0.000  0.000     1.055     1.609
 120   1 H      0.090  0.910  0.000  0.000     1.877     2.142
 121   1 H      0.069  0.931  0.000  0.000     2.092     2.262
 122   1 H      0.065  0.935  0.000  0.000     2.138     2.286
 123   1 H      0.067  0.933  0.000  0.000     2.124     2.279
 124   7 N     -0.171  1.240  3.931  0.000    24.694     7.380
 125   6 C      0.013  1.061  2.927  0.000    20.376     6.429
 126   6 C      0.278  1.042  2.680  0.000    22.292     7.732
 127   8 O     -0.471  1.731  4.740  0.000    23.151     6.451
 128   6 C      0.070  1.042  2.889  0.000    19.630     6.348
 129   8 O     -0.474  1.720  4.754  0.000    22.350     6.382
 130   1 H      0.225  0.775  0.000  0.000     0.989     1.558
 131   1 H      0.089  0.911  0.000  0.000     1.891     2.151
 132   1 H      0.048  0.952  0.000  0.000     2.349     2.397
 133   1 H      0.047  0.953  0.000  0.000     2.352     2.398
 134   1 H      0.337  0.663  0.000  0.000     0.619     1.236
 135   7 N     -0.152  1.234  3.919  0.000    24.297     7.321
 136   6 C      0.005  1.067  2.928  0.000    20.491     6.445
 137   6 C      0.272  1.041  2.687  0.000    22.405     7.752
 138   8 O     -0.493  1.748  4.745  0.000    23.624     6.517
 139   6 C     -0.019  1.062  2.957  0.000    20.870     6.497
 140   6 C     -0.120  1.040  3.080  0.000    22.848     6.815
 141   6 C     -0.118  1.041  3.077  0.000    22.815     6.810
 142   1 H      0.207  0.793  0.000  0.000     1.069     1.620
 143   1 H      0.087  0.913  0.000  0.000     1.910     2.161
 144   1 H      0.049  0.951  0.000  0.000     2.337     2.391
 145   1 H      0.061  0.939  0.000  0.000     2.183     2.310
 146   1 H      0.032  0.968  0.000  0.000     2.556     2.500
 147   1 H      0.050  0.950  0.000  0.000     2.325     2.384
 148   1 H      0.061  0.939  0.000  0.000     2.189     2.314
 149   1 H      0.050  0.950  0.000  0.000     2.319     2.381
 150   1 H      0.044  0.956  0.000  0.000     2.392     2.419
 151   7 N     -0.164  1.236  3.927  0.000    24.546     7.358
 152   6 C      0.019  1.060  2.921  0.000    20.269     6.411
 153   6 C      0.194  1.088  2.718  0.000    23.854     7.999
 154   8 O     -0.355  1.743  4.612  0.000    20.805     6.115
 155   6 C     -0.010  1.064  2.946  0.000    20.718     6.474
 156   6 C     -0.124  1.040  3.084  0.000    22.931     6.828
 157   6 C     -0.116  1.036  3.079  0.000    22.773     6.804
 158   1 H      0.229  0.771  0.000  0.000     0.968     1.541
 159   1 H      0.096  0.904  0.000  0.000     1.818     2.109
 160   1 H      0.039  0.961  0.000  0.000     2.456     2.451
 161   1 H      0.066  0.934  0.000  0.000     2.130     2.282
 162   1 H      0.055  0.945  0.000  0.000     2.259     2.351
 163   1 H      0.049  0.951  0.000  0.000     2.329     2.386
 164   1 H      0.047  0.953  0.000  0.000     2.355     2.400
 165   1 H      0.055  0.945  0.000  0.000     2.258     2.350
 166   1 H      0.040  0.960  0.000  0.000     2.446     2.446
 167   7 N     -0.367  1.301  4.066  0.000    29.469     8.062
 168   6 C      0.040  1.054  2.905  0.000    19.917     6.357
 169   6 C      0.193  1.089  2.718  0.000    23.868     8.001
 170   8 O     -0.361  1.757  4.603  0.000    20.912     6.131
 171   6 C     -0.066  1.054  3.011  0.000    21.737     6.634
 172   6 C     -0.013  1.067  2.946  0.000    20.818     6.497
 173  16 S     -0.215  1.917  4.247  0.051   150.232    20.629
 174   6 C     -0.057  1.051  3.006  0.000    21.675     6.641
 175   1 H      0.163  0.837  0.000  0.000     1.316     1.797
 176   1 H      0.057  0.943  0.000  0.000     2.238     2.340
 177   1 H      0.059  0.941  0.000  0.000     2.210     2.325
 178   1 H      0.051  0.949  0.000  0.000     2.312     2.378
 179   1 H      0.063  0.937  0.000  0.000     2.165     2.301
 180   1 H      0.054  0.946  0.000  0.000     2.268     2.355
 181   1 H      0.046  0.954  0.000  0.000     2.368     2.407
 182   1 H      0.060  0.940  0.000  0.000     2.204     2.322
 183   1 H      0.051  0.949  0.000  0.000     2.311     2.377
 184   7 N     -0.389  1.316  4.073  0.000    30.079     8.145
 185   6 C      0.025  1.058  2.917  0.000    20.162     6.395
 186   6 C      0.270  1.048  2.682  0.000    22.440     7.758
 187   8 O     -0.505  1.746  4.759  0.000    23.892     6.553
 188   6 C     -0.069  1.059  3.010  0.000    21.814     6.648
 189   6 C     -0.008  1.056  2.952  0.000    20.681     6.468
 190   6 C     -0.116  1.043  3.073  0.000    22.764     6.802
 191   6 C     -0.115  1.039  3.076  0.000    22.758     6.802
 192   1 H      0.154  0.846  0.000  0.000     1.373     1.836
 193   1 H      0.060  0.940  0.000  0.000     2.204     2.322
 194   1 H      0.037  0.963  0.000  0.000     2.486     2.466
 195   1 H      0.032  0.968  0.000  0.000     2.563     2.504
 196   1 H      0.027  0.973  0.000  0.000     2.633     2.537
 197   1 H      0.044  0.956  0.000  0.000     2.400     2.423
 198   1 H      0.035  0.965  0.000  0.000     2.516     2.481
 199   1 H      0.046  0.954  0.000  0.000     2.376     2.410
 200   1 H      0.046  0.954  0.000  0.000     2.370     2.407
 201   1 H      0.041  0.959  0.000  0.000     2.429     2.437
 202   1 H      0.032  0.968  0.000  0.000     2.553     2.498
 203   7 N     -0.185  1.244  3.940  0.000    25.004     7.427
 204   6 C      0.018  1.055  2.927  0.000    20.275     6.411
 205   6 C      0.265  1.044  2.691  0.000    22.532     7.774
 206   8 O     -0.479  1.728  4.752  0.000    23.328     6.476
 207   6 C     -0.116  1.039  3.077  0.000    22.773     6.804
 208   1 H      0.226  0.774  0.000  0.000     0.984     1.554
 209   1 H      0.079  0.921  0.000  0.000     1.986     2.204
 210   1 H      0.043  0.957  0.000  0.000     2.406     2.426
 211   1 H      0.056  0.944  0.000  0.000     2.248     2.345
 212   1 H      0.064  0.936  0.000  0.000     2.152     2.294
 213   7 N     -0.177  1.256  3.920  0.000    24.822     7.400
 214   6 C      0.007  1.068  2.925  0.000    20.455     6.438
 215   6 C      0.269  1.046  2.685  0.000    22.466     7.762
 216   8 O     -0.509  1.739  4.770  0.000    23.986     6.566
 217   6 C     -0.014  1.058  2.956  0.000    20.794     6.486
 218   6 C     -0.117  1.039  3.077  0.000    22.784     6.805
 219   6 C     -0.126  1.042  3.085  0.000    22.976     6.834
 220   1 H      0.219  0.781  0.000  0.000     1.012     1.576
 221   1 H      0.098  0.902  0.000  0.000     1.806     2.102
 222   1 H      0.039  0.961  0.000  0.000     2.460     2.453
 223   1 H      0.059  0.941  0.000  0.000     2.215     2.327
 224   1 H      0.028  0.972  0.000  0.000     2.621     2.532
 225   1 H      0.054  0.946  0.000  0.000     2.271     2.357
 226   1 H      0.058  0.942  0.000  0.000     2.217     2.329
 227   1 H      0.058  0.942  0.000  0.000     2.228     2.334
 228   1 H      0.049  0.951  0.000  0.000     2.338     2.391
 229   7 N     -0.174  1.255  3.919  0.000    24.763     7.391
 230   6 C      0.018  1.060  2.922  0.000    20.270     6.411
 231   6 C      0.273  1.043  2.684  0.000    22.386     7.748
 232   8 O     -0.471  1.728  4.743  0.000    23.143     6.450
 233   6 C     -0.080  1.058  3.023  0.000    22.026     6.681
 234   6 C     -0.060  1.045  3.015  0.000    21.647     6.624
 235   6 C     -0.084  1.054  3.030  0.000    22.102     6.693
 236   6 C     -0.021  1.049  2.973  0.000    21.046     6.548
 237   7 N     -0.198  1.261  3.937  0.000    25.279     7.467
 238   1 H      0.237  0.763  0.000  0.000     0.935     1.514
 239   1 H      0.070  0.930  0.000  0.000     2.081     2.256
 240   1 H      0.065  0.935  0.000  0.000     2.144     2.290
 241   1 H      0.080  0.920  0.000  0.000     1.980     2.201
 242   1 H      0.034  0.966  0.000  0.000     2.531     2.488
 243   1 H      0.035  0.965  0.000  0.000     2.521     2.483
 244   1 H      0.075  0.925  0.000  0.000     2.027     2.226
 245   1 H      0.073  0.927  0.000  0.000     2.053     2.241
 246   1 H      0.091  0.909  0.000  0.000     1.867     2.137
 247   1 H      0.069  0.931  0.000  0.000     2.097     2.265
 248   1 H      0.255  0.745  0.000  0.000     0.863     1.456
 249   1 H      0.307  0.693  0.000  0.000     0.691     1.301
 250   1 H      0.270  0.730  0.000  0.000     0.809     1.409
 251   7 N     -0.180  1.251  3.928  0.000    24.887     7.409
 252   6 C      0.016  1.066  2.918  0.000    20.309     6.417
 253   6 C      0.273  1.045  2.682  0.000    22.390     7.749
 254   8 O     -0.495  1.747  4.748  0.000    23.675     6.524
 255   6 C     -0.009  1.057  2.952  0.000    20.695     6.470
 256   6 C     -0.115  1.038  3.077  0.000    22.750     6.800
 257   6 C     -0.111  1.038  3.073  0.000    22.685     6.791
 258   1 H      0.211  0.789  0.000  0.000     1.052     1.607
 259   1 H      0.087  0.913  0.000  0.000     1.912     2.162
 260   1 H      0.035  0.965  0.000  0.000     2.519     2.482
 261   1 H      0.061  0.939  0.000  0.000     2.189     2.314
 262   1 H      0.020  0.980  0.000  0.000     2.730     2.584
 263   1 H      0.054  0.946  0.000  0.000     2.275     2.359
 264   1 H      0.063  0.937  0.000  0.000     2.168     2.303
 265   1 H      0.052  0.948  0.000  0.000     2.298     2.371
 266   1 H      0.033  0.967  0.000  0.000     2.539     2.492
 267   7 N     -0.168  1.244  3.924  0.000    24.628     7.370
 268   6 C     -0.029  1.054  2.975  0.000    21.159     6.561
 269   6 C      0.277  1.040  2.683  0.000    22.312     7.735
 270   8 O     -0.478  1.733  4.745  0.000    23.307     6.473
 271   1 H      0.227  0.773  0.000  0.000     0.977     1.548
 272   1 H      0.101  0.899  0.000  0.000     1.772     2.082
 273   1 H      0.069  0.931  0.000  0.000     2.101     2.267
 274   7 N     -0.192  1.263  3.929  0.000    25.171     7.451
 275   6 C      0.045  1.054  2.901  0.000    19.825     6.340
 276   6 C      0.278  1.042  2.680  0.000    22.295     7.732
 277   8 O     -0.513  1.744  4.769  0.000    24.076     6.579
 278   6 C     -0.091  1.068  3.023  0.000    22.230     6.712
 279   6 C      0.373  1.022  2.605  0.000    20.683     7.442
 280   8 O     -0.629  1.765  4.863  0.000    26.830     6.945
 281   8 O     -0.619  1.766  4.853  0.000    26.594     6.914
 282   1 H      0.220  0.780  0.000  0.000     1.010     1.574
 283   1 H      0.047  0.953  0.000  0.000     2.357     2.401
 284   1 H      0.026  0.974  0.000  0.000     2.637     2.540
 285   1 H      0.031  0.969  0.000  0.000     2.572     2.508
 286   7 N     -0.174  1.242  3.931  0.000    24.762     7.391
 287   6 C      0.044  1.052  2.904  0.000    19.839     6.342
 288   6 C      0.271  1.048  2.681  0.000    22.417     7.753
 289   8 O     -0.476  1.733  4.743  0.000    23.260     6.466
 290   6 C     -0.114  1.076  3.038  0.000    22.675     6.779
 291   6 C      0.372  1.020  2.608  0.000    20.695     7.445
 292   8 O     -0.609  1.783  4.827  0.000    26.350     6.882
 293   8 O     -0.575  1.738  4.837  0.000    25.497     6.770
 294   1 H      0.221  0.779  0.000  0.000     1.003     1.569
 295   1 H      0.050  0.950  0.000  0.000     2.319     2.381
 296   1 H      0.061  0.939  0.000  0.000     2.189     2.314
 297   1 H      0.052  0.948  0.000  0.000     2.300     2.372
 298   7 N     -0.168  1.239  3.929  0.000    24.631     7.371
 299   6 C      0.017  1.065  2.919  0.000    20.299     6.415
 300   6 C      0.266  1.043  2.691  0.000    22.517     7.771
 301   8 O     -0.485  1.730  4.755  0.000    23.450     6.493
 302   6 C     -0.071  1.056  3.015  0.000    21.842     6.652
 303   6 C     -0.001  1.073  2.928  0.000    28.052     8.688
 304   6 C     -0.042  1.082  2.961  0.000    29.047     8.838
 305   6 C     -0.040  1.082  2.958  0.000    28.990     8.830
 306   6 C     -0.055  1.077  2.978  0.000    29.361     8.886
 307   6 C     -0.072  1.075  2.997  0.000    29.784     8.949
 308   6 C      0.147  1.046  2.807  0.000    24.798     8.161
 309   8 O     -0.456  1.728  4.728  0.000    21.969     6.327
 310   1 H      0.204  0.796  0.000  0.000     1.085     1.632
 311   1 H      0.088  0.912  0.000  0.000     1.901     2.156
 312   1 H      0.055  0.945  0.000  0.000     2.253     2.348
 313   1 H      0.065  0.935  0.000  0.000     2.145     2.290
 314   1 H      0.029  0.971  0.000  0.000     2.597     2.520
 315   1 H      0.053  0.947  0.000  0.000     2.280     2.361
 316   1 H      0.033  0.967  0.000  0.000     2.539     2.492
 317   1 H      0.039  0.961  0.000  0.000     2.467     2.456
 318   1 H      0.344  0.656  0.000  0.000     0.604     1.221
 319   7 N     -0.170  1.249  3.921  0.000    24.678     7.378
 320   6 C      0.023  1.060  2.917  0.000    20.201     6.400
 321   6 C      0.273  1.045  2.682  0.000    22.390     7.749
 322   8 O     -0.477  1.728  4.748  0.000    23.279     6.469
 323   6 C     -0.067  1.051  3.016  0.000    21.771     6.641
 324   6 C      0.002  1.077  2.921  0.000    27.969     8.675
 325   6 C     -0.040  1.084  2.956  0.000    29.005     8.832
 326   6 C     -0.037  1.081  2.955  0.000    28.910     8.818
 327   6 C     -0.066  1.075  2.990  0.000    29.637     8.927
 328   6 C     -0.074  1.078  2.997  0.000    29.850     8.959
 329   6 C      0.132  1.045  2.823  0.000    25.116     8.214
 330   8 O     -0.426  1.712  4.714  0.000    21.355     6.238
 331   1 H      0.229  0.771  0.000  0.000     0.968     1.541
 332   1 H      0.077  0.923  0.000  0.000     2.014     2.219
 333   1 H      0.062  0.938  0.000  0.000     2.180     2.309
 334   1 H      0.058  0.942  0.000  0.000     2.221     2.331
 335   1 H      0.045  0.955  0.000  0.000     2.387     2.416
 336   1 H      0.033  0.967  0.000  0.000     2.549     2.497
 337   1 H      0.056  0.944  0.000  0.000     2.243     2.342
 338   1 H      0.055  0.945  0.000  0.000     2.257     2.349
 339   1 H      0.358  0.642  0.000  0.000     0.570     1.186
 340   7 N     -0.170  1.259  3.911  0.000    24.676     7.378
 341   6 C      0.026  1.060  2.914  0.000    20.144     6.390
 342   6 C      0.282  1.040  2.678  0.000    22.228     7.721
 343   8 O     -0.486  1.742  4.744  0.000    23.467     6.495
 344   6 C      0.097  1.031  2.872  0.000    19.190     6.275
 345   8 O     -0.489  1.717  4.772  0.000    22.653     6.425
 346   1 H      0.233  0.767  0.000  0.000     0.953     1.529
 347   1 H      0.064  0.936  0.000  0.000     2.154     2.295
 348   1 H      0.019  0.981  0.000  0.000     2.753     2.595
 349   1 H      0.022  0.978  0.000  0.000     2.698     2.569
 350   1 H      0.321  0.679  0.000  0.000     0.661     1.277
 351   7 N     -0.177  1.244  3.933  0.000    24.824     7.400
 352   6 C      0.032  1.051  2.917  0.000    20.041     6.375
 353   6 C      0.195  1.086  2.719  0.000    23.844     7.997
 354   8 O     -0.354  1.755  4.599  0.000    20.779     6.112
 355   6 C     -0.119  1.040  3.078  0.000    22.832     6.813
 356   1 H      0.226  0.774  0.000  0.000     0.982     1.553
 357   1 H      0.083  0.917  0.000  0.000     1.951     2.184
 358   1 H      0.084  0.916  0.000  0.000     1.935     2.175
 359   1 H      0.073  0.927  0.000  0.000     2.050     2.239
 360   1 H      0.059  0.941  0.000  0.000     2.205     2.322
 361   7 N     -0.382  1.320  4.062  0.000    29.879     8.118
 362   6 C      0.034  1.059  2.907  0.000    20.011     6.372
 363   6 C      0.202  1.086  2.712  0.000    23.708     7.974
 364   8 O     -0.378  1.751  4.627  0.000    21.254     6.181
 365   6 C     -0.022  1.071  2.951  0.000    20.923     6.506
 366   6 C     -0.063  1.051  3.013  0.000    21.715     6.634
 367   6 C     -0.112  1.035  3.077  0.000    22.694     6.793
 368   6 C     -0.115  1.037  3.077  0.000    22.757     6.803
 369   1 H      0.158  0.842  0.000  0.000     1.349     1.819
 370   1 H      0.047  0.953  0.000  0.000     2.363     2.404
 371   1 H      0.048  0.952  0.000  0.000     2.339     2.392
 372   1 H      0.030  0.970  0.000  0.000     2.591     2.517
 373   1 H      0.028  0.972  0.000  0.000     2.614     2.528
 374   1 H      0.058  0.942  0.000  0.000     2.224     2.332
 375   1 H      0.039  0.961  0.000  0.000     2.468     2.457
 376   1 H      0.045  0.955  0.000  0.000     2.388     2.417
 377   1 H      0.036  0.964  0.000  0.000     2.497     2.471
 378   1 H      0.046  0.954  0.000  0.000     2.370     2.407
 379   1 H      0.055  0.945  0.000  0.000     2.261     2.352
 380   7 N     -0.383  1.320  4.063  0.000    29.895     8.120
 381   6 C      0.035  1.060  2.906  0.000    20.005     6.370
 382   6 C      0.205  1.086  2.710  0.000    23.649     7.964
 383   8 O     -0.375  1.755  4.620  0.000    21.183     6.171
 384   6 C     -0.017  1.067  2.950  0.000    20.837     6.492
 385   6 C     -0.062  1.051  3.012  0.000    21.696     6.631
 386   6 C     -0.108  1.037  3.072  0.000    22.626     6.782
 387   6 C     -0.106  1.035  3.071  0.000    22.582     6.777
 388   1 H      0.164  0.836  0.000  0.000     1.308     1.792
 389   1 H      0.057  0.943  0.000  0.000     2.229     2.335
 390   1 H      0.039  0.961  0.000  0.000     2.461     2.453
 391   1 H      0.040  0.960  0.000  0.000     2.449     2.447
 392   1 H      0.043  0.957  0.000  0.000     2.405     2.425
 393   1 H      0.053  0.947  0.000  0.000     2.286     2.364
 394   1 H      0.015  0.985  0.000  0.000     2.803     2.618
 395   1 H      0.043  0.957  0.000  0.000     2.404     2.425
 396   1 H      0.045  0.955  0.000  0.000     2.389     2.417
 397   1 H      0.044  0.956  0.000  0.000     2.393     2.419
 398   1 H      0.039  0.961  0.000  0.000     2.467     2.456
 399   7 N     -0.385  1.315  4.070  0.000    29.961     8.129
 400   6 C      0.036  1.055  2.909  0.000    19.982     6.367
 401   6 C      0.275  1.048  2.677  0.000    22.356     7.743
 402   8 O     -0.462  1.735  4.727  0.000    22.958     6.424
 403   6 C     -0.074  1.061  3.013  0.000    21.901     6.661
 404   6 C     -0.009  1.057  2.952  0.000    20.704     6.472
 405   6 C     -0.112  1.040  3.072  0.000    22.701     6.793
 406   6 C     -0.110  1.037  3.072  0.000    22.655     6.787
 407   1 H      0.167  0.833  0.000  0.000     1.290     1.780
 408   1 H      0.029  0.971  0.000  0.000     2.603     2.523
 409   1 H      0.042  0.958  0.000  0.000     2.420     2.433
 410   1 H      0.035  0.965  0.000  0.000     2.522     2.483
 411   1 H      0.036  0.964  0.000  0.000     2.503     2.474
 412   1 H      0.039  0.961  0.000  0.000     2.458     2.452
 413   1 H      0.041  0.959  0.000  0.000     2.440     2.443
 414   1 H      0.044  0.956  0.000  0.000     2.392     2.419
 415   1 H      0.045  0.955  0.000  0.000     2.385     2.415
 416   1 H      0.035  0.965  0.000  0.000     2.519     2.482
 417   1 H      0.026  0.974  0.000  0.000     2.639     2.540
 418   7 N     -0.180  1.252  3.928  0.000    24.908     7.412
 419   6 C      0.036  1.055  2.909  0.000    19.968     6.363
 420   6 C      0.274  1.044  2.681  0.000    22.361     7.744
 421   8 O     -0.486  1.735  4.751  0.000    23.472     6.496
 422   6 C     -0.092  1.053  3.039  0.000    22.251     6.714
 423   6 C      0.290  1.036  2.674  0.000    22.088     7.695
 424   8 O     -0.499  1.744  4.756  0.000    23.772     6.537
 425   7 N     -0.302  1.277  4.025  0.000    27.790     7.829
 426   1 H      0.184  0.816  0.000  0.000     1.192     1.710
 427   1 H      0.067  0.933  0.000  0.000     2.114     2.274
 428   1 H      0.090  0.910  0.000  0.000     1.882     2.145
 429   1 H      0.052  0.948  0.000  0.000     2.291     2.367
 430   1 H      0.226  0.774  0.000  0.000     0.983     1.553
 431   1 H      0.219  0.781  0.000  0.000     1.015     1.578
 432   7 N     -0.169  1.256  3.913  0.000    24.654     7.374
 433   6 C      0.017  1.062  2.921  0.000    20.295     6.415
 434   6 C      0.274  1.045  2.681  0.000    22.373     7.746
 435   8 O     -0.498  1.741  4.757  0.000    23.750     6.534
 436   6 C     -0.085  1.058  3.027  0.000    22.123     6.696
 437   6 C     -0.080  1.050  3.030  0.000    22.032     6.683
 438   6 C     -0.090  1.052  3.039  0.000    22.222     6.711
 439   6 C     -0.039  1.055  2.985  0.000    21.375     6.600
 440   7 N     -0.178  1.247  3.930  0.000    24.837     7.402
 441   1 H      0.233  0.767  0.000  0.000     0.951     1.528
 442   1 H      0.081  0.919  0.000  0.000     1.965     2.192
 443   1 H      0.079  0.921  0.000  0.000     1.992     2.207
 444   1 H      0.065  0.935  0.000  0.000     2.144     2.290
 445   1 H      0.061  0.939  0.000  0.000     2.185     2.312
 446   1 H      0.051  0.949  0.000  0.000     2.311     2.378
 447   1 H      0.085  0.915  0.000  0.000     1.932     2.174
 448   1 H      0.070  0.930  0.000  0.000     2.085     2.258
 449   1 H      0.104  0.896  0.000  0.000     1.746     2.066
 450   1 H      0.113  0.887  0.000  0.000     1.668     2.020
 451   1 H      0.295  0.705  0.000  0.000     0.728     1.337
 452   1 H      0.236  0.764  0.000  0.000     0.941     1.520
 453   1 H      0.278  0.722  0.000  0.000     0.784     1.387
 454   7 N     -0.164  1.239  3.924  0.000    24.540     7.357
 455   6 C      0.024  1.058  2.918  0.000    20.172     6.396
 456   6 C      0.195  1.088  2.717  0.000    23.842     7.997
 457   8 O     -0.351  1.752  4.599  0.000    20.733     6.105
 458   6 C     -0.073  1.060  3.013  0.000    21.891     6.660
 459   6 C     -0.010  1.056  2.954  0.000    20.715     6.474
 460   6 C     -0.116  1.041  3.076  0.000    22.780     6.805
 461   6 C     -0.110  1.038  3.071  0.000    22.650     6.786
 462   1 H      0.227  0.773  0.000  0.000     0.977     1.548
 463   1 H      0.087  0.913  0.000  0.000     1.907     2.159
 464   1 H      0.058  0.942  0.000  0.000     2.221     2.331
 465   1 H      0.070  0.930  0.000  0.000     2.091     2.261
 466   1 H      0.031  0.969  0.000  0.000     2.577     2.510
 467   1 H      0.042  0.958  0.000  0.000     2.423     2.434
 468   1 H      0.044  0.956  0.000  0.000     2.390     2.418
 469   1 H      0.051  0.949  0.000  0.000     2.303     2.373
 470   1 H      0.033  0.967  0.000  0.000     2.551     2.498
 471   1 H      0.051  0.949  0.000  0.000     2.303     2.373
 472   1 H      0.025  0.975  0.000  0.000     2.653     2.547
 473   7 N     -0.384  1.312  4.072  0.000    29.934     8.126
 474   6 C      0.034  1.060  2.906  0.000    20.009     6.371
 475   6 C      0.270  1.048  2.682  0.000    22.439     7.757
 476   8 O     -0.515  1.751  4.765  0.000    24.126     6.585
 477   6 C     -0.037  1.047  2.989  0.000    21.224     6.558
 478   6 C     -0.089  1.064  3.024  0.000    22.193     6.708
 479   6 C      0.369  1.027  2.605  0.000    20.750     7.455
 480   8 O     -0.607  1.768  4.839  0.000    26.292     6.875
 481   8 O     -0.629  1.769  4.860  0.000    26.854     6.948
 482   1 H      0.157  0.843  0.000  0.000     1.353     1.822
 483   1 H      0.039  0.961  0.000  0.000     2.462     2.454
 484   1 H      0.033  0.967  0.000  0.000     2.547     2.496
 485   1 H     -0.001  1.001  0.000  0.000     3.076     2.743
 486   1 H      0.021  0.979  0.000  0.000     2.724     2.581
 487   1 H      0.027  0.973  0.000  0.000     2.626     2.534
 488   7 N     -0.177  1.248  3.929  0.000    24.842     7.403
 489   6 C      0.016  1.063  2.921  0.000    20.310     6.417
 490   6 C      0.269  1.045  2.686  0.000    22.460     7.761
 491   8 O     -0.479  1.736  4.743  0.000    23.314     6.474
 492   6 C     -0.019  1.065  2.954  0.000    20.873     6.498
 493   6 C     -0.117  1.040  3.077  0.000    22.796     6.808
 494   6 C     -0.115  1.038  3.077  0.000    22.762     6.803
 495   1 H      0.232  0.768  0.000  0.000     0.959     1.534
 496   1 H      0.066  0.934  0.000  0.000     2.128     2.281
 497   1 H      0.052  0.948  0.000  0.000     2.299     2.371
 498   1 H      0.062  0.938  0.000  0.000     2.181     2.309
 499   1 H      0.044  0.956  0.000  0.000     2.401     2.423
 500   1 H      0.042  0.958  0.000  0.000     2.426     2.436
 501   1 H      0.063  0.937  0.000  0.000     2.164     2.301
 502   1 H      0.038  0.962  0.000  0.000     2.473     2.459
 503   1 H      0.043  0.957  0.000  0.000     2.412     2.429
 504   7 N     -0.166  1.241  3.925  0.000    24.592     7.365
 505   6 C      0.017  1.062  2.920  0.000    20.284     6.413
 506   6 C      0.203  1.082  2.714  0.000    23.683     7.970
 507   8 O     -0.354  1.751  4.603  0.000    20.785     6.112
 508   6 C     -0.006  1.063  2.943  0.000    20.651     6.464
 509   6 C     -0.116  1.038  3.078  0.000    22.783     6.806
 510   6 C     -0.126  1.041  3.085  0.000    22.979     6.835
 511   1 H      0.206  0.794  0.000  0.000     1.076     1.625
 512   1 H      0.097  0.903  0.000  0.000     1.810     2.104
 513   1 H      0.033  0.967  0.000  0.000     2.542     2.493
 514   1 H      0.050  0.950  0.000  0.000     2.322     2.383
 515   1 H      0.041  0.959  0.000  0.000     2.429     2.437
 516   1 H      0.054  0.946  0.000  0.000     2.265     2.354
 517   1 H      0.052  0.948  0.000  0.000     2.297     2.370
 518   1 H      0.050  0.950  0.000  0.000     2.315     2.379
 519   1 H      0.065  0.935  0.000  0.000     2.146     2.291
 520   1 H      0.189  0.811  0.000  0.000     1.163     1.689
 521   1 H      0.061  0.939  0.000  0.000     2.181     2.309
 522   1 H      0.176  0.824  0.000  0.000     1.238     1.743
 523   1 H      0.073  0.927  0.000  0.000     2.058     2.243
 524   1 H      0.175  0.825  0.000  0.000     1.242     1.745
 525   1 H      0.058  0.942  0.000  0.000     2.216     2.328
 526   1 H      0.179  0.821  0.000  0.000     1.219     1.729
 527   1 H      0.075  0.925  0.000  0.000     2.031     2.228
 528   1 H      0.170  0.830  0.000  0.000     1.275     1.769
 529   1 H      0.066  0.934  0.000  0.000     2.125     2.279
 530   1 H      0.183  0.817  0.000  0.000     1.199     1.715
 531   1 H      0.061  0.939  0.000  0.000     2.190     2.314
 532   1 H      0.187  0.813  0.000  0.000     1.173     1.696
 533   1 H      0.084  0.916  0.000  0.000     1.939     2.177
 534   1 H      0.170  0.830  0.000  0.000     1.273     1.767
 535   1 H      0.068  0.932  0.000  0.000     2.107     2.270
 536   1 H      0.181  0.819  0.000  0.000     1.206     1.720
 537   1 H      0.086  0.914  0.000  0.000     1.914     2.163
 538   1 H      0.189  0.811  0.000  0.000     1.162     1.688
 539   1 H      0.058  0.942  0.000  0.000     2.224     2.332
 540   1 H      0.181  0.819  0.000  0.000     1.207     1.721
 541   1 H      0.052  0.948  0.000  0.000     2.294     2.368
 542   1 H      0.181  0.819  0.000  0.000     1.210     1.723
 543   1 H      0.084  0.916  0.000  0.000     1.934     2.175
 544   1 H      0.179  0.821  0.000  0.000     1.217     1.728
 545   1 H      0.086  0.914  0.000  0.000     1.917     2.165

 Mol. C6AA /au·bohr⁶  :    2624748.603751
 Mol. C8AA /au·bohr⁸  :   57879766.538422
 Mol. α(0) /au        :       2420.898389

 
molecular dipole:
                 x           y           z       tot (Debye)
 q only:     -679.912    -232.811    -374.877
   full:     -680.414    -232.078    -375.474    2061.531
molecular quadrupole (traceless):
                xx          xy          yy          xz          yz          zz
 q only:  -181899.515 -118339.587  123487.006 -190898.458  -65822.024   58412.509
  q+dip:  -182213.571 -118064.633  123950.259 -191373.104  -65646.227   58263.312
   full:  -182219.910 -118066.441  123949.980 -191369.057  -65648.192   58269.930
speedup 14.17
cpu  time for grad    1 m  9.9 s
wall time for grad    0 m  4.9 s

SCC energy    :    -819.1709604
rep           :      10.0236678
ES            :       2.3341301
AES           :      -0.0459397
AXC           :       0.2812177
disp          :      -0.7026264
XB            :       0.0000000
fix           :       0.0000000
Gborn         :       0.0000000
Gsasa         :       0.0000000
Ghb           :       0.0000000
Gshift        :       0.0000000
Gsolv         :      -0.5032747     -315.81
Etot ala COSMO:    -819.1709604
grad norm     :       0.7970813
total E       :    -809.0671297
atomizationE  :     149.2997573    93687.01
(atE without considering molecular charge,
 total energy contains solvation terms)
H-L gap (eV)  :          1.4476

------------------------------------------------------------------------
 * finished run on 2019/02/13 at 00:17:35.990     
------------------------------------------------------------------------
 total:
 * wall-time:     0 d,  0 h,  0 min,  5.554 sec
 *  cpu-time:     0 d,  0 h,  1 min, 18.473 sec
 * ratio c/w:    14.129 speedup
 SCF:
 * wall-time:     0 d,  0 h,  0 min,  5.240 sec
 *  cpu-time:     0 d,  0 h,  1 min, 14.055 sec
 * ratio c/w:    14.132 speedup

