      -----------------------------------------------------------      
     |                   =====================                   |     
     |                           x T B                           |     
     |                   =====================                   |     
     |                         S. Grimme                         |     
     |          Mulliken Center for Theoretical Chemistry        |     
     |                    University of Bonn                     |     
     |                 Version 6.0.1 (SAW181210)                 |     
      -----------------------------------------------------------      

   This program is distributed in the hope that it will be useful,
   but WITHOUT ANY WARRANTY; without even the implied warranty of
   MERCHANTABILITY or FITNESS FOR A PARTICULAR PURPOSE.
   
   FOR NON-COMMERCIAL, ACADEMIA USE ONLY.
   
   Cite this work as:
   S. Grimme, C. Bannwarth, P. Shushkov, J. Comput. Theory Chem., 2017,
   13, 1989-2009.
   C. Bannwarth, S. Ehlert and S. Grimme., ChemRxiv, 2018, preprint.
   http://doi.org/10.26434/chemrxiv.7246238.v1
   
   for sTDA-xTB:
   S. Grimme and C. Bannwarth, J. Chem. Phys., 2016, 145, 054103.
   
   in the mass-spec context:
   V. Asgeirsson, C. Bauer and S. Grimme, Chem. Sci., 2017, 8, 4879.
   
   if GBSA is used:
   P. Shushkov, F. März and S. Grimme, unpublished.
   
   for ANC optimizer:
   S. Grimme, unpublished.
   Rational Function algorithm used in ANCopt:
   F. Eckert, P. Pulay, H.-J. Werner, J. Comput. Chem., 1997, 18, 1473.
   
   with help from (in alphabetical order)
   C. Bannwarth, F. Bohle, G. Brandenburg, E. Caldeweyher, M. Checinski,
   S. Dohm, S. Ehlert, S. Ehrlich, F. März, H. Neugebauer, J. Pisarek,
   P. Pracht, P. Shushkov, and S. Spicher.
   
 * started run on 2019/02/13 at 00:18:30.432     
========================================================================
 # omp threads = 16
========================================================================
number of atoms            : 407
number of electrons        : 1088
charge                     : -1
spin                       : .0
first test random number   : .6123

########################################################################
# WARNING! Please study the warnings concerning your input carefully
#  - Process number higher than OMP_NUM_THREADS, I hope you know what you are doing.
########################################################################

           ------------------------------------------------- 
          |                 G F N 2 - x T B                 |
          | Geometry, Frequencies, Noncovalent interactions |
          |            JCTC 2018 parametrisation            |
           ------------------------------------------------- 
 
      method parameters     
 k(s)        :  1.8500
 k(p)        :  2.2300
 k(d)        :  2.2300
 k(f)        :  2.0000
 kEN (H0ij)  : -2.0000
 D4 a1       :  0.5200
 D4 a2       :  5.0000
 D4 s6       :  1.0000
 D4 s8       :  2.7000
 D4 s9       :  5.0000
 alphaj      :  2.0000

 Solvent             : h2o
 Using internal parameter file: .param_gbsa2_h2o
 Gsolv ref. state (COSMO-RS): gsolv [1 M gas/solution]
 temperature (mdtemp)       :    298.150000000000     
 dielectric constant        :    80.2000000000000     
 rho                        :    1.00000000000000     
 mass                       :    18.0000000000000     
 surface tension            :    15.5689454083859     
 probe radius               :   0.975313790000000     
 vdW radii scaling          :    1.00000000000000     
 Gshift (Eh)                :   1.857443126794793E-003
 c1                         :    1.55243817000000     
 soset                      :   0.130326360000000     
 HB correction              :  T

            Z     q(EN)     CN     RAES       Cart. coordinates
     1  N   5.0   -0.21    3.28    1.98   414.60615   119.73363   234.34930
     2  C   4.0    0.03    4.37    4.33   416.10748   118.47967   232.45621
     3  C   4.0    0.15    3.45    3.09   417.79449   120.26556   230.96354
     4  O   6.0   -0.30    1.28    1.80   419.71112   119.47947   229.90381
     5  C   4.0    0.06    4.25    4.09   414.26837   117.11926   230.61567
     6  O   6.0   -0.26    2.15    1.85   412.35191   118.80475   229.86613
     7  C   4.0   -0.07    4.08    3.77   413.06344   114.84257   231.91209
     8  H   1.0    0.09    1.04    1.43   412.71702   119.55375   234.13722
     9  H   1.0    0.04    1.05    1.44   417.33839   117.06228   233.33839
    10  H   1.0    0.05    1.04    1.43   415.35379   116.46182   228.97001
    11  H   1.0    0.15    1.08    1.44   412.97245   119.89072   228.49143
    12  H   1.0    0.07    1.01    1.43   412.08892   113.69308   230.51498
    13  H   1.0    0.04    1.00    1.43   414.48364   113.68771   232.83540
    14  H   1.0    0.04    1.00    1.43   411.66352   115.45469   233.28948
    15  N   5.0   -0.14    3.47    2.06   417.10943   122.67530   230.87506
    16  C   4.0    0.04    4.36    4.32   418.52585   124.45838   229.36373
    17  C   4.0    0.10    3.34    3.06   421.34209   124.13310   229.84906
    18  O   6.0   -0.32    1.24    1.80   422.85946   123.89183   228.10213
    19  C   4.0   -0.05    4.33    4.25   417.73992   127.17736   229.98788
    20  C   4.0   -0.01    3.59    3.16   419.44767   129.01558   228.65075
    21  C   4.0   -0.04    3.48    3.10   419.14011   129.44716   226.07976
    22  C   4.0   -0.04    3.46    3.10   421.36212   130.27103   229.93497
    23  C   4.0   -0.05    3.38    3.07   420.69887   131.12707   224.82191
    24  C   4.0   -0.05    3.37    3.07   422.94559   131.92425   228.66881
    25  C   4.0   -0.05    3.37    3.07   422.61893   132.35052   226.10996
    26  H   1.0    0.08    1.07    1.44   415.60706   123.33571   231.85934
    27  H   1.0    0.06    1.05    1.44   418.18632   124.05483   227.35519
    28  H   1.0    0.04    1.03    1.43   415.78464   127.43390   229.38238
    29  H   1.0    0.04    1.03    1.43   417.81421   127.44174   232.02936
    30  H   1.0    0.05    1.03    1.43   417.66490   128.46430   225.06383
    31  H   1.0    0.05    1.03    1.43   421.61443   129.94811   231.93437
    32  H   1.0    0.04    1.03    1.43   420.38224   131.48813   222.84241
    33  H   1.0    0.05    1.03    1.43   424.42969   132.88825   229.68078
    34  H   1.0    0.04    1.03    1.43   423.85768   133.63298   225.12858
    35  N   5.0   -0.20    3.23    1.96   425.40603   118.84960   227.19535
    36  C   4.0    0.03    4.27    4.14   426.11276   119.21834   224.57046
    37  C   4.0    0.15    3.40    3.08   428.08842   121.33230   224.29445
    38  O   6.0   -0.31    1.23    1.80   429.89563   121.14418   222.86366
    39  C   4.0    0.04    4.13    3.87   423.76466   119.75745   222.95425
    40  O   6.0   -0.27    2.12    1.84   422.78433   122.20189   223.23722
    41  H   1.0    0.11    1.03    1.43   423.61312   119.22474   227.74692
    42  H   1.0    0.04    1.05    1.44   427.01059   117.48212   223.87571
    43  H   1.0    0.05    1.02    1.43   424.26205   119.57252   220.95827
    44  H   1.0    0.04    1.01    1.43   422.32471   118.32912   223.41107
    45  H   1.0    0.15    1.07    1.44   422.59101   122.65310   225.02484
    46  N   5.0   -0.14    3.47    2.06   427.67617   123.36793   225.72871
    47  C   4.0    0.04    4.26    4.12   429.23405   125.59872   225.50965
    48  C   4.0    0.08    3.23    3.04   431.84917   125.30285   226.68577
    49  O   6.0   -0.31    1.17    1.80   433.39381   127.03384   226.49969
    50  C   4.0   -0.07    4.11    3.82   427.86262   127.89899   226.55346
    51  H   1.0    0.11    1.11    1.44   426.12219   123.49284   226.84520
    52  H   1.0    0.05    1.06    1.44   429.63889   125.88906   223.49072
    53  H   1.0    0.05    1.00    1.43   429.03323   129.56216   226.28597
    54  H   1.0    0.05    1.00    1.43   426.07048   128.14743   225.58670
    55  H   1.0    0.05    1.00    1.43   427.50382   127.64215   228.55703
    56  N   5.0   -0.20    3.16    1.95   435.77898   122.81866   223.86998
    57  C   4.0    0.01    4.14    3.88   437.28230   123.33432   221.65307
    58  C   4.0    0.15    3.30    3.05   438.60423   125.91084   221.62934
    59  O   6.0   -0.29    1.23    1.80   440.35314   126.27715   220.15373
    60  H   1.0    0.10    1.03    1.43   434.05297   122.03046   223.61463
    61  H   1.0    0.05    1.02    1.43   438.78307   121.92318   221.42767
    62  H   1.0    0.05    1.03    1.43   436.05758   123.24716   219.99656
    63  N   5.0   -0.14    3.45    2.05   437.69079   127.70864   223.14777
    64  C   4.0    0.04    4.34    4.27   438.74485   130.22681   223.17587
    65  C   4.0    0.08    3.20    3.04   441.01382   130.57070   224.94221
    66  O   6.0   -0.29    1.12    1.80   442.22315   132.54091   224.90071
    67  C   4.0   -0.04    4.36    4.31   436.70199   132.15107   223.88462
    68  C   4.0   -0.02    4.19    3.98   434.52317   132.23815   221.97882
    69  C   4.0   -0.07    4.10    3.81   432.43100   133.99153   222.90966
    70  C   4.0   -0.06    4.12    3.85   435.44811   133.11912   219.40237
    71  H   1.0    0.11    1.10    1.44   436.23196   127.38052   224.35035
    72  H   1.0    0.06    1.07    1.44   439.47662   130.61413   221.27734
    73  H   1.0    0.05    1.03    1.43   435.97452   131.65996   225.75131
    74  H   1.0    0.05    1.03    1.43   437.59141   134.00622   224.02118
    75  H   1.0    0.05    1.06    1.44   433.73251   130.33428   221.80404
    76  H   1.0    0.04    1.00    1.43   430.87515   134.00377   221.56923
    77  H   1.0    0.04    1.00    1.43   431.72307   133.38342   224.74053
    78  H   1.0    0.04    1.00    1.43   433.11107   135.92251   223.09353
    79  H   1.0    0.07    1.02    1.43   433.86297   133.29211   218.11290
    80  H   1.0    0.05    1.00    1.43   436.33583   134.96074   219.58745
    81  H   1.0    0.06    1.00    1.43   436.80764   131.79394   218.61839
    82  N   5.0   -0.20    3.25    1.97   418.65380   137.34519   233.58518
    83  C   4.0    0.03    4.32    4.23   416.96054   138.94653   232.16029
    84  C   4.0    0.07    3.24    3.04   415.79376   140.89336   233.95041
    85  O   6.0   -0.29    1.13    1.80   415.10691   140.32508   236.08885
    86  C   4.0   -0.02    4.33    4.25   414.89121   137.35940   230.86603
    87  C   4.0   -0.05    4.19    3.99   416.12670   135.56095   228.95864
    88  C   4.0   -0.08    4.13    3.86   412.95068   139.10126   229.63338
    89  C   4.0   -0.08    4.01    3.64   414.27127   133.77708   227.66997
    90  H   1.0    0.09    1.03    1.43   417.80091   136.22535   234.87262
    91  H   1.0    0.03    1.05    1.44   418.08447   139.93581   230.73760
    92  H   1.0    0.04    1.05    1.44   413.93647   136.24105   232.32532
    93  H   1.0    0.04    1.03    1.43   417.10717   136.68110   227.52896
    94  H   1.0    0.04    1.03    1.43   417.55857   134.44151   229.93752
    95  H   1.0    0.03    1.00    1.43   411.63912   138.01656   228.49126
    96  H   1.0    0.04    1.00    1.43   411.84606   140.11456   231.04017
    97  H   1.0    0.03    1.00    1.43   413.89503   140.48723   228.44603
    98  H   1.0    0.04    1.01    1.43   415.31917   132.36216   226.61483
    99  H   1.0    0.03    1.00    1.43   413.08451   132.82715   229.05077
   100  H   1.0    0.03    1.00    1.43   413.05215   134.78947   226.36674
   101  N   5.0   -0.19    3.25    1.97   403.48446   140.79173   226.88455
   102  C   4.0    0.03    4.23    4.05   404.53988   140.37247   224.38963
   103  C   4.0    0.08    3.21    3.04   403.25174   142.23292   222.57431
   104  O   6.0   -0.28    1.13    1.80   401.08070   142.96024   222.93853
   105  C   4.0   -0.05    4.33    4.26   404.21140   137.64866   223.50094
   106  C   4.0   -0.03    4.18    3.95   406.19302   135.84038   224.59883
   107  C   4.0   -0.08    4.12    3.84   406.05813   135.71252   227.47660
   108  C   4.0   -0.08    4.10    3.81   405.82435   133.21355   223.46300
   109  H   1.0    0.08    1.02    1.43   401.86510   139.88204   227.33950
   110  H   1.0    0.04    1.05    1.44   406.55147   140.84436   224.49736
   111  H   1.0    0.04    1.03    1.43   402.31923   137.00337   224.00536
   112  H   1.0    0.04    1.03    1.43   404.36332   137.63285   221.44368
   113  H   1.0    0.04    1.05    1.44   408.06358   136.53598   224.05502
   114  H   1.0    0.03    1.00    1.43   407.34255   134.26842   228.17451
   115  H   1.0    0.03    1.01    1.43   406.57349   137.50230   228.34178
   116  H   1.0    0.04    1.00    1.43   404.14944   135.23600   228.07539
   117  H   1.0    0.03    1.00    1.43   407.23314   131.92027   224.20501
   118  H   1.0    0.04    1.00    1.43   403.96707   132.47962   223.94441
   119  H   1.0    0.04    1.00    1.43   405.98429   133.26710   221.41693
   120  N   5.0   -0.19    3.24    1.97   402.03722   134.45974   204.63740
   121  C   4.0    0.03    4.32    4.24   404.32483   134.16638   206.09972
   122  C   4.0    0.15    3.39    3.08   404.10052   135.54799   208.63247
   123  O   6.0   -0.29    1.23    1.80   402.44332   137.11247   209.05892
   124  C   4.0   -0.05    4.29    4.18   406.55346   135.18709   204.56943
   125  C   4.0   -0.05    4.19    3.97   407.17266   133.51175   202.29962
   126  C   4.0   -0.04    4.19    3.98   409.02373   134.88974   200.56412
   127  C   4.0   -0.04    4.11    3.82   410.04812   133.26864   198.41913
   128  N   5.0   -0.12    4.02    2.92   411.50936   131.09879   199.42707
   129  H   1.0    0.08    1.03    1.43   401.98503   135.94951   203.43177
   130  H   1.0    0.04    1.05    1.44   404.55024   132.14629   206.50461
   131  H   1.0    0.05    1.03    1.43   406.06465   137.08438   203.91963
   132  H   1.0    0.05    1.03    1.43   408.21380   135.35986   205.78198
   133  H   1.0    0.05    1.03    1.43   407.99837   131.76528   203.01755
   134  H   1.0    0.03    1.03    1.43   405.42935   133.07243   201.28991
   135  H   1.0    0.04    1.03    1.43   408.08905   136.55185   199.78478
   136  H   1.0    0.06    1.04    1.43   410.60348   135.57274   201.69161
   137  H   1.0    0.03    1.02    1.43   408.50536   132.58080   197.23640
   138  H   1.0    0.04    1.02    1.43   411.30804   134.43491   197.28324
   139  H   1.0    0.06    1.02    1.43   412.78959   130.45286   198.13343
   140  H   1.0    0.11    1.14    1.45   412.51216   131.61517   201.19706
   141  H   1.0    0.05    1.02    1.43   410.32068   129.65966   199.92621
   142  N   5.0   -0.14    3.49    2.07   405.85697   134.89089   210.33383
   143  C   4.0    0.04    4.43    4.43   406.08784   136.11089   212.75460
   144  C   4.0    0.14    3.44    3.09   408.72224   137.25504   213.00605
   145  O   6.0   -0.31    1.28    1.80   410.57988   136.25224   212.05292
   146  C   4.0   -0.03    4.34    4.28   405.82432   134.18577   214.92993
   147  C   4.0   -0.01    3.55    3.14   403.31798   132.86374   214.98187
   148  C   4.0   -0.04    3.49    3.11   402.82369   130.91155   213.29552
   149  C   4.0   -0.05    3.46    3.10   401.48981   133.48993   216.75544
   150  C   4.0   -0.04    3.43    3.09   400.57419   129.59768   213.37381
   151  C   4.0   -0.05    3.43    3.09   399.24434   132.15401   216.88534
   152  C   4.0    0.07    3.45    3.10   398.78788   130.19660   215.20094
   153  O   6.0   -0.25    2.11    1.84   396.61100   128.80207   215.31349
   154  H   1.0    0.09    1.07    1.44   407.26250   133.66374   209.92247
   155  H   1.0    0.06    1.06    1.44   404.63774   137.57904   212.86543
   156  H   1.0    0.06    1.04    1.43   407.31690   132.78681   214.65730
   157  H   1.0    0.04    1.03    1.43   406.14419   135.17768   216.70889
   158  H   1.0    0.06    1.03    1.43   404.24529   130.39808   211.93153
   159  H   1.0    0.05    1.03    1.43   401.82208   135.00753   218.08011
   160  H   1.0    0.06    1.03    1.43   400.22032   128.11318   212.03286
   161  H   1.0    0.05    1.03    1.43   397.85953   132.63224   218.31266
   162  H   1.0    0.11    1.04    1.43   395.60712   129.38611   216.71981
   163  N   5.0   -0.14    3.51    2.08   408.84131   139.28326   214.49885
   164  C   4.0    0.04    4.46    4.47   411.18304   140.55685   215.06306
   165  C   4.0    0.14    3.42    3.08   411.29613   141.03406   217.90320
   166  O   6.0   -0.31    1.24    1.80   409.40916   141.06499   219.23831
   167  C   4.0   -0.03    4.32    4.23   411.40160   143.05956   213.57384
   168  C   4.0   -0.01    3.59    3.16   411.54061   142.41821   210.81458
   169  C   4.0   -0.04    3.48    3.11   409.34437   142.13458   209.40552
   170  C   4.0   -0.04    3.47    3.10   413.84398   141.85262   209.69010
   171  C   4.0   -0.03    3.43    3.09   409.43169   141.25777   206.94949
   172  C   4.0   -0.04    3.44    3.09   413.94748   140.94622   207.24869
   173  C   4.0    0.07    3.45    3.09   411.73704   140.58660   205.87081
   174  O   6.0   -0.25    2.12    1.84   411.78106   139.61958   203.50141
   175  H   1.0    0.08    1.07    1.44   407.25083   140.25811   214.93768
   176  H   1.0    0.07    1.07    1.44   412.71296   139.28350   214.48962
   177  H   1.0    0.05    1.03    1.43   409.73268   144.20597   213.96220
   178  H   1.0    0.05    1.03    1.43   413.09046   144.06991   214.18181
   179  H   1.0    0.05    1.03    1.43   407.53326   142.57157   210.24903
   180  H   1.0    0.06    1.03    1.43   415.57094   142.11522   210.74634
   181  H   1.0    0.06    1.03    1.43   407.71645   141.04900   205.86178
   182  H   1.0    0.05    1.03    1.43   415.72817   140.46690   206.37908
   183  H   1.0    0.15    1.08    1.44   413.28942   138.54406   203.31487
   184  N   5.0   -0.14    3.48    2.06   413.62291   141.44911   218.78723
   185  C   4.0    0.04    4.25    4.10   414.11000   141.75334   221.45633
   186  C   4.0    0.07    3.22    3.04   416.29409   143.59972   221.81975
   187  O   6.0   -0.30    1.15    1.80   418.16736   143.51862   220.47378
   188  C   4.0   -0.07    4.11    3.82   414.87071   139.22846   222.65726
   189  H   1.0    0.11    1.09    1.44   415.13216   141.16020   217.64564
   190  H   1.0    0.05    1.06    1.44   412.35790   142.44730   222.30525
   191  H   1.0    0.03    1.00    1.43   415.36453   139.48622   224.63189
   192  H   1.0    0.04    1.00    1.43   413.31438   137.89982   222.49897
   193  H   1.0    0.05    1.00    1.43   416.50059   138.45613   221.67216
   194  N   5.0   -0.20    3.25    1.97   421.48086   142.46903   215.79906
   195  C   4.0    0.03    4.32    4.23   421.82850   140.10701   214.48685
   196  C   4.0    0.14    3.41    3.08   419.23342   138.99286   213.85192
   197  O   6.0   -0.31    1.28    1.80   417.32671   139.68290   214.95110
   198  C   4.0   -0.04    4.34    4.27   423.21471   138.20889   216.21431
   199  C   4.0   -0.02    3.54    3.13   425.94192   138.86974   216.68329
   200  C   4.0   -0.05    3.47    3.10   426.79553   139.51331   219.07984
   201  C   4.0   -0.04    3.48    3.10   427.70559   138.70821   214.74887
   202  C   4.0   -0.04    3.43    3.09   429.33753   139.84681   219.58347
   203  C   4.0   -0.03    3.46    3.10   430.25318   138.97020   215.23650
   204  C   4.0    0.07    3.45    3.10   431.09856   139.48553   217.66810
   205  O   6.0   -0.25    2.11    1.84   433.60680   139.68182   218.21273
   206  H   1.0    0.12    1.05    1.44   420.11558   142.46731   217.14990
   207  H   1.0    0.03    1.05    1.44   422.92169   140.46543   212.77003
   208  H   1.0    0.05    1.03    1.43   422.20727   138.13087   218.01200
   209  H   1.0    0.04    1.03    1.43   423.11004   136.34347   215.34126
   210  H   1.0    0.05    1.03    1.43   425.45028   139.72645   220.59233
   211  H   1.0    0.04    1.03    1.43   427.10222   138.35413   212.83300
   212  H   1.0    0.05    1.03    1.43   429.99855   140.32640   221.45397
   213  H   1.0    0.06    1.03    1.43   431.59708   138.71317   213.72811
   214  H   1.0    0.12    1.04    1.43   434.57054   138.86284   216.89410
   215  N   5.0   -0.15    3.45    2.05   419.23648   137.19938   212.05616
   216  C   4.0    0.03    4.41    4.40   417.00723   135.74413   211.41243
   217  C   4.0    0.15    3.42    3.09   416.83516   133.39017   213.08593
   218  O   6.0   -0.32    1.27    1.80   418.73009   132.15910   213.63341
   219  C   4.0   -0.04    4.27    4.15   417.11685   134.95345   208.63207
   220  C   4.0   -0.03    4.19    3.98   414.64064   133.79707   207.73076
   221  C   4.0    0.24    3.12    3.03   414.42898   133.78554   204.82607
   222  O   6.0   -0.33    1.37    1.80   413.52458   131.81413   203.85708
   223  O   6.0   -0.32    1.24    1.80   415.07828   135.69432   203.62774
   224  H   1.0    0.07    1.07    1.44   420.90137   136.53583   211.40610
   225  H   1.0    0.06    1.06    1.44   415.35665   136.94620   211.72906
   226  H   1.0    0.05    1.03    1.43   417.50414   136.62492   207.48536
   227  H   1.0    0.05    1.02    1.43   418.67042   133.61771   208.35851
   228  H   1.0    0.06    1.02    1.43   414.38743   131.87046   208.41901
   229  H   1.0    0.06    1.03    1.43   413.06203   134.93942   208.42390
   230  N   5.0   -0.14    3.49    2.07   414.52005   132.80668   213.88115
   231  C   4.0    0.04    4.50    4.53   413.99974   130.55587   215.34097
   232  C   4.0    0.14    3.41    3.08   411.77793   129.14514   214.14639
   233  O   6.0   -0.31    1.24    1.80   410.17287   130.19237   212.85183
   234  C   4.0   -0.02    4.24    4.09   413.55964   131.12729   218.17786
   235  C   4.0   -0.07    4.12    3.85   415.73836   132.70780   219.22000
   236  C   4.0   -0.07    4.12    3.83   411.05815   132.46536   218.66767
   237  H   1.0    0.11    1.10    1.44   413.00176   133.79575   213.24456
   238  H   1.0    0.06    1.07    1.44   415.66276   129.33216   215.22211
   239  H   1.0    0.05    1.06    1.44   413.54127   129.29055   219.12725
   240  H   1.0    0.03    1.00    1.43   415.56537   132.87653   221.25834
   241  H   1.0    0.05    1.00    1.43   417.54648   131.84252   218.77489
   242  H   1.0    0.05    1.00    1.43   415.71513   134.58967   218.39145
   243  H   1.0    0.03    1.00    1.43   410.88858   132.89987   220.66624
   244  H   1.0    0.05    1.00    1.43   410.95859   134.22264   217.60523
   245  H   1.0    0.05    1.00    1.43   409.47476   131.27282   218.12926
   246  N   5.0   -0.13    3.51    2.08   411.81986   126.65584   214.58157
   247  C   4.0    0.04    4.38    4.34   409.88904   124.94242   213.70711
   248  C   4.0    0.15    3.39    3.08   408.51151   123.80067   215.99890
   249  O   6.0   -0.31    1.28    1.80   409.41420   123.91236   218.12000
   250  C   4.0    0.03    4.13    3.86   411.07413   122.86810   212.04158
   251  O   6.0   -0.24    2.09    1.84   413.12170   121.75314   213.33819
   252  H   1.0    0.12    1.11    1.44   413.14731   125.90494   215.74660
   253  H   1.0    0.05    1.06    1.44   408.54328   126.04176   212.57921
   254  H   1.0    0.04    1.01    1.43   409.62341   121.46462   211.58982
   255  H   1.0    0.04    1.01    1.43   411.75244   123.74064   210.28343
   256  H   1.0    0.12    1.02    1.43   413.47076   120.11612   212.62533
   257  N   5.0   -0.14    3.47    2.06   406.26044   122.77217   215.47095
   258  C   4.0    0.04    4.40    4.38   404.57140   121.84884   217.41765
   259  C   4.0    0.08    3.23    3.04   403.57991   119.23600   216.68314
   260  O   6.0   -0.29    1.13    1.80   402.80948   118.78870   214.54989
   261  C   4.0   -0.02    4.26    4.12   402.35085   123.71883   217.76644
   262  C   4.0   -0.07    4.12    3.84   400.52035   122.75440   219.77386
   263  C   4.0   -0.07    4.13    3.85   403.36301   126.30871   218.53434
   264  H   1.0    0.08    1.06    1.44   405.60429   122.65928   213.68232
   265  H   1.0    0.07    1.07    1.44   405.63428   121.71791   219.17832
   266  H   1.0    0.05    1.05    1.44   401.37355   123.87806   215.95096
   267  H   1.0    0.04    1.00    1.43   399.02561   124.12465   220.09542
   268  H   1.0    0.05    1.00    1.43   399.68063   120.95613   219.24781
   269  H   1.0    0.05    1.00    1.43   401.50614   122.46737   221.55781
   270  H   1.0    0.04    1.00    1.43   401.81510   127.61776   218.85014
   271  H   1.0    0.04    1.00    1.43   404.42973   126.14032   220.28303
   272  H   1.0    0.05    1.00    1.43   404.59754   127.10212   217.09820
   273  N   5.0   -0.20    3.22    1.96   402.73730   117.44563   226.57454
   274  C   4.0    0.02    4.32    4.23   405.39549   117.91378   227.06072
   275  C   4.0    0.15    3.41    3.08   406.45302   119.78680   225.12508
   276  O   6.0   -0.30    1.24    1.80   405.60281   119.93934   222.97338
   277  C   4.0   -0.03    4.30    4.20   406.94278   115.48968   226.86799
   278  C   4.0   -0.04    4.17    3.94   406.44973   113.65251   229.01975
   279  C   4.0    0.24    3.10    3.02   407.94836   111.16255   228.57422
   280  O   6.0   -0.29    1.16    1.80   406.86505   109.13629   229.13760
   281  O   6.0   -0.30    1.19    1.80   410.13058   111.34612   227.72476
   282  H   1.0    0.08    1.02    1.43   402.16530   115.65507   226.21270
   283  H   1.0    0.03    1.05    1.44   405.62528   118.73720   228.95182
   284  H   1.0    0.06    1.03    1.43   406.51667   114.55065   225.07572
   285  H   1.0    0.06    1.03    1.43   408.95226   115.96074   226.87213
   286  H   1.0    0.04    1.02    1.43   407.07464   114.46405   230.81728
   287  H   1.0    0.05    1.02    1.43   404.44608   113.20094   229.17260
   288  N   5.0   -0.14    3.48    2.06   408.43038   121.11471   225.93887
   289  C   4.0    0.04    4.48    4.50   409.72256   123.03887   224.47446
   290  C   4.0    0.14    3.45    3.09   412.49950   122.33043   224.11735
   291  O   6.0   -0.32    1.32    1.80   413.83664   121.66031   225.90652
   292  C   4.0   -0.02    4.28    4.15   409.59850   125.59134   225.88467
   293  C   4.0   -0.08    4.12    3.85   411.16011   127.61790   224.55521
   294  C   4.0   -0.08    4.11    3.83   406.86544   126.45637   226.16874
   295  H   1.0    0.08    1.07    1.44   408.91691   120.96150   227.78052
   296  H   1.0    0.06    1.06    1.44   408.78690   123.16606   222.63707
   297  H   1.0    0.04    1.05    1.44   410.38696   125.24731   227.77033
   298  H   1.0    0.03    1.00    1.43   410.99619   129.37804   225.60110
   299  H   1.0    0.05    1.00    1.43   413.13991   127.07942   224.47526
   300  H   1.0    0.04    1.00    1.43   410.47431   127.88839   222.63804
   301  H   1.0    0.03    1.00    1.43   406.81429   128.18142   227.28169
   302  H   1.0    0.04    1.00    1.43   406.04267   126.82326   224.32198
   303  H   1.0    0.04    1.00    1.43   405.72544   125.02229   227.10588
   304  N   5.0   -0.13    3.47    2.06   413.42464   122.67981   221.80035
   305  C   4.0    0.04    4.46    4.48   416.04467   122.19512   221.20209
   306  C   4.0    0.15    3.42    3.08   417.11161   124.32107   219.56191
   307  O   6.0   -0.31    1.29    1.80   415.84237   125.34108   217.91343
   308  C   4.0    0.06    4.22    4.04   416.35489   119.64966   219.76024
   309  O   6.0   -0.24    2.13    1.84   414.49920   119.35177   217.89325
   310  C   4.0   -0.06    4.08    3.76   416.14348   117.42237   221.57816
   311  H   1.0    0.12    1.09    1.44   412.25229   123.13490   220.34603
   312  H   1.0    0.05    1.07    1.44   417.08625   122.06370   222.98206
   313  H   1.0    0.05    1.03    1.43   418.25814   119.64564   218.90017
   314  H   1.0    0.15    1.04    1.43   414.40282   120.83738   216.81863
   315  H   1.0    0.05    1.00    1.43   416.33911   115.66238   220.54160
   316  H   1.0    0.05    1.00    1.43   417.59878   117.52570   223.02168
   317  H   1.0    0.06    1.00    1.43   414.30098   117.42411   222.48797
   318  N   5.0   -0.14    3.47    2.06   419.49460   124.95932   220.07452
   319  C   4.0    0.03    4.42    4.41   420.87711   126.79205   218.55385
   320  C   4.0    0.16    3.48    3.11   421.23806   125.65405   215.91816
   321  O   6.0   -0.30    1.28    1.80   422.47141   123.71553   215.57293
   322  C   4.0   -0.04    4.35    4.29   423.39721   127.34988   219.84360
   323  C   4.0   -0.02    4.19    3.98   425.06385   129.21049   218.37850
   324  C   4.0   -0.08    4.11    3.82   423.87015   131.80949   218.02995
   325  C   4.0   -0.08    4.12    3.84   427.58733   129.53345   219.74530
   326  H   1.0    0.10    1.11    1.45   420.57161   123.87587   221.25175
   327  H   1.0    0.04    1.06    1.44   419.71083   128.48874   218.38764
   328  H   1.0    0.04    1.03    1.43   423.02206   128.07502   221.73491
   329  H   1.0    0.06    1.03    1.43   424.40230   125.55643   220.03853
   330  H   1.0    0.05    1.06    1.44   425.39558   128.41743   216.49931
   331  H   1.0    0.04    1.01    1.43   425.28535   133.06210   217.22585
   332  H   1.0    0.06    1.00    1.43   422.26081   131.75085   216.75534
   333  H   1.0    0.04    1.00    1.43   423.28671   132.58734   219.83648
   334  H   1.0    0.05    1.00    1.43   428.91693   130.56776   218.56826
   335  H   1.0    0.04    1.00    1.43   427.31135   130.57092   221.49334
   336  H   1.0    0.04    1.00    1.43   428.43639   127.71830   220.20173
   337  N   5.0   -0.13    3.47    2.06   419.96015   126.78987   214.05817
   338  C   4.0    0.04    4.36    4.31   420.02928   125.71112   211.53534
   339  C   4.0    0.16    3.50    3.12   422.77106   125.83511   210.62027
   340  O   6.0   -0.30    1.31    1.80   424.02831   127.76369   210.81952
   341  C   4.0   -0.06    4.10    3.80   418.26149   127.15551   209.78780
   342  H   1.0    0.10    1.09    1.44   419.40494   128.62931   214.19473
   343  H   1.0    0.05    1.05    1.44   419.44319   123.73097   211.69494
   344  H   1.0    0.04    1.00    1.43   418.28928   126.34292   207.90390
   345  H   1.0    0.05    1.00    1.43   416.34584   127.07990   210.52802
   346  H   1.0    0.06    1.00    1.43   418.85559   129.11883   209.67646
   347  N   5.0   -0.15    3.37    2.01   423.72207   123.68635   209.66976
   348  C   4.0    0.01    4.25    4.10   426.33793   123.57292   208.88846
   349  C   4.0    0.16    3.49    3.11   428.10506   124.76091   210.83425
   350  O   6.0   -0.29    1.39    1.80   429.97571   125.97197   210.19124
   351  H   1.0    0.08    1.06    1.44   422.67178   122.10102   209.61193
   352  H   1.0    0.04    1.03    1.43   426.88419   121.60580   208.61188
   353  H   1.0    0.05    1.02    1.43   426.62030   124.60913   207.11791
   354  N   5.0   -0.14    3.41    2.03   427.60991   124.31735   213.27261
   355  C   4.0    0.02    4.28    4.17   429.36929   125.32141   215.11038
   356  C   4.0    0.17    3.51    3.12   430.50703   127.83410   214.20322
   357  O   6.0   -0.28    1.27    1.80   432.76171   128.25896   214.45400
   358  H   1.0    0.11    1.07    1.44   425.97570   123.52003   213.87969
   359  H   1.0    0.04    1.03    1.43   428.41119   125.55938   216.90856
   360  H   1.0    0.06    1.02    1.43   430.96269   124.02083   215.35582
   361  N   5.0   -0.13    3.54    2.10   428.84988   129.55590   213.30045
   362  C   4.0    0.04    4.27    4.13   429.74793   131.45594   211.52133
   363  C   4.0    0.10    3.30    3.05   432.05365   132.72157   212.70993
   364  O   6.0   -0.30    1.17    1.80   431.92556   133.83589   214.72207
   365  C   4.0   -0.07    4.11    3.82   427.62136   133.31484   211.00710
   366  H   1.0    0.10    1.10    1.44   427.08203   128.95192   212.86847
   367  H   1.0    0.06    1.05    1.44   430.31879   130.50055   209.76573
   368  H   1.0    0.04    1.00    1.43   428.23875   134.74188   209.66716
   369  H   1.0    0.06    1.00    1.43   426.00793   132.30278   210.23784
   370  H   1.0    0.05    1.01    1.43   427.09409   134.21543   212.77345
   371  N   5.0   -0.19    3.24    1.96   428.28188   145.77122   208.73220
   372  C   4.0    0.03    4.22    4.04   427.39196   146.31504   206.20310
   373  C   4.0    0.07    3.21    3.04   427.99498   149.04986   205.49395
   374  O   6.0   -0.29    1.13    1.80   427.75924   150.77093   207.03398
   375  C   4.0   -0.05    4.36    4.31   424.51917   145.95984   206.07468
   376  C   4.0   -0.03    4.19    3.97   423.61054   143.35023   206.95445
   377  C   4.0   -0.08    4.10    3.81   420.72518   143.30637   206.90683
   378  C   4.0   -0.08    4.10    3.80   424.69696   141.22770   205.33029
   379  H   1.0    0.08    1.03    1.43   426.99234   145.62803   210.13315
   380  H   1.0    0.03    1.05    1.44   428.37133   145.04526   204.89418
   381  H   1.0    0.05    1.03    1.43   423.62517   147.39201   207.26447
   382  H   1.0    0.04    1.03    1.43   423.90162   146.28020   204.13292
   383  H   1.0    0.04    1.06    1.44   424.21704   143.06111   208.91152
   384  H   1.0    0.04    1.00    1.43   420.02124   141.54982   207.70988
   385  H   1.0    0.04    1.00    1.43   419.96416   144.87676   207.99204
   386  H   1.0    0.04    1.00    1.43   420.03417   143.45483   204.97663
   387  H   1.0    0.04    1.00    1.43   423.81016   139.43815   205.81611
   388  H   1.0    0.04    1.00    1.43   424.33610   141.58917   203.33952
   389  H   1.0    0.04    1.00    1.43   426.72294   141.03780   205.61762
   390  H   1.0    0.09    1.07    1.44   414.98359   119.10268   235.88292
   391  H   1.0    0.05    1.05    1.44   421.99928   124.11170   231.62070
   392  H   1.0    0.09    1.07    1.44   425.64495   117.22125   227.62425
   393  H   1.0    0.06    1.04    1.44   432.29942   123.71155   227.60016
   394  H   1.0    0.09    1.07    1.44   436.61483   121.73922   224.88424
   395  H   1.0    0.06    1.04    1.43   441.50608   129.18480   226.12881
   396  H   1.0    0.08    1.08    1.44   419.49301   136.31742   232.52123
   397  H   1.0    0.05    1.05    1.44   415.57428   142.68351   233.38625
   398  H   1.0    0.08    1.08    1.44   404.60878   140.30764   228.06528
   399  H   1.0    0.06    1.04    1.43   404.18384   142.87509   221.06107
   400  H   1.0    0.08    1.07    1.44   401.79395   133.07526   203.68001
   401  H   1.0    0.05    1.05    1.44   416.20866   144.90827   223.18043
   402  H   1.0    0.10    1.08    1.44   422.92841   142.90357   216.57902
   403  H   1.0    0.06    1.05    1.44   403.55062   117.84323   217.96001
   404  H   1.0    0.08    1.07    1.44   401.82047   117.92302   227.92513
   405  H   1.0    0.06    1.05    1.44   433.72703   132.64958   211.83490
   406  H   1.0    0.08    1.07    1.44   429.10074   144.28059   208.73764
   407  H   1.0    0.05    1.04    1.44   428.59321   149.46381   203.74986

  Z AO/shell   Hii/eV     exponent
  1     Wed Apr 25 08:07:45 CEST 2018   EN: 2.200 GM2: 0.406  GM3: 0.0800  RAES: 1.40
     1s    -10.707211    1.230000
  6     Wed Apr 25 08:07:45 CEST 2018   EN: 2.550 GM2: 0.538  GM3: 0.1500  RAES: 3.00
     2s    -13.970922    2.096432
     2p    -10.063292    1.800000
  7     Wed Apr 25 08:07:45 CEST 2018   EN: 3.040 GM2: 0.461  GM3:-0.0640  RAES: 1.90
     2s    -16.686243    2.339881
     2p    -12.523956    2.014332
  8     Wed Apr 25 08:07:45 CEST 2018   EN: 3.440 GM2: 0.452  GM3:-0.0517  RAES: 1.80
     2s    -20.229985    2.439742
     2p    -15.503117    2.137023
 no old-style atom pair restraining (fixing) potential

molecular fragmentation (1/2 indicates fragments):
111111111111111111111111111111111122222222222222222222222222222222222222
222222222222222222222222222222222222222222222222222222222222222222222222
222222222222222222222222222222222222222222222222222222222222222222222222
222222222222222222222222222222222222222222222222222222222222222222222222
222222222222222222222222222222222222222222222222222222222222222222222222
22222222222222222222222222222112222222222222222
# atoms in fragment 1/2:    36   371
 fragment masses (1/2) :      250.30     2484.97
CMA distance (Bohr)    :  14.448
constraining FC (au)   :  0.0500
           ------------------------------------------------- 
          |        Self-Consistent Charge Iterations        |
           ------------------------------------------------- 

 Ncao       : 986
 Nao        : 986
 Nshell     : 600
 Nel        : 1088
 T(el)      :   500.0
 intcut     :    35.0
 scfconv/Eh :  0.100E-06
   qconv/e  :  0.100E-04
 intneglect :  0.100E-08
 broydamp   :      0.400
 iter      E             dE          RMSdq      gap      omega  full diag
   1   -621.3873090 -0.621387E+03  0.459E+00    3.29       0.0  T
   2   -622.8387773 -0.145147E+01  0.216E+00    1.87       1.0  T
   3   -622.9253807 -0.866033E-01  0.122E+00    1.92       1.0  T
   4   -623.0235763 -0.981957E-01  0.245E-01    1.27       1.0  T
   5   -623.0290027 -0.542641E-02  0.117E-01    1.46       1.0  T
   6   -623.0300543 -0.105154E-02  0.507E-02    1.42       1.0  T
   7   -623.0303215 -0.267270E-03  0.210E-02    1.41       1.0  T
   8   -623.0303545 -0.329436E-04  0.967E-03    1.40       1.0  T
   9   -623.0303632 -0.869555E-05  0.416E-03    1.40       1.2  T
  10   -623.0303647 -0.153684E-05  0.190E-03    1.40       2.6  T
  11   -623.0303650 -0.267374E-06  0.875E-04    1.40       5.7  T
  12   -623.0303650 -0.619519E-07  0.438E-04    1.39      11.3  T
  13   -623.0303651 -0.249762E-07  0.219E-04    1.39      22.7  T
  14   -623.0303651 -0.411887E-08  0.104E-04    1.39      47.4  T
  15   -623.0303651 -0.109640E-08  0.433E-05    1.39     114.5  T
  16   -623.0303651 -0.199520E-09  0.186E-05    1.39     266.3  T
speedup 15.98
cpu  time for SCC   38.91 s
wall time for SCC    2.44 s

   *** convergence criteria satisfied after 16 iterations ***

          eigenvalues
 #    :         532        533        534        535        536        537        538        539
 occ. :        2.000      2.000      2.000      2.000      2.000      2.000      2.000      2.000
 eps  :       -10.261    -10.238    -10.172    -10.152    -10.107    -10.031     -9.965     -9.841
 #    :         540        541        542        543        544        545        546        547
 occ. :        2.000      2.000      2.000      2.000      2.000      0.000      0.000      0.000
 eps  :        -9.761     -9.756     -9.714     -9.687     -9.611     -8.217     -7.929     -7.916
 #    :         548        549        550        551        552        553        554        555
 occ. :        0.000      0.000      0.000      0.000      0.000      0.000      0.000      0.000
 eps  :        -7.731     -7.578     -7.552     -7.548     -7.429     -7.411     -6.721     -6.556


   #   Z            q   n(s)   n(p)   n(d)      C6AA      α(0)
   1   7 N     -0.386  1.303  4.083  0.000    29.984     8.132
   2   6 C      0.022  1.061  2.917  0.000    20.225     6.405
   3   6 C      0.269  1.046  2.684  0.000    22.452     7.760
   4   8 O     -0.512  1.751  4.761  0.000    24.044     6.574
   5   6 C      0.134  1.041  2.824  0.000    18.496     6.140
   6   8 O     -0.489  1.715  4.774  0.000    22.648     6.424
   7   6 C     -0.112  1.039  3.073  0.000    22.697     6.794
   8   1 H      0.172  0.828  0.000  0.000     1.260     1.759
   9   1 H      0.032  0.968  0.000  0.000     2.556     2.500
  10   1 H     -0.007  1.007  0.000  0.000     3.191     2.794
  11   1 H      0.329  0.671  0.000  0.000     0.640     1.257
  12   1 H      0.047  0.953  0.000  0.000     2.353     2.399
  13   1 H      0.037  0.963  0.000  0.000     2.483     2.464
  14   1 H      0.046  0.954  0.000  0.000     2.369     2.407
  15   7 N     -0.156  1.239  3.917  0.000    24.372     7.332
  16   6 C      0.033  1.056  2.911  0.000    20.020     6.370
  17   6 C      0.212  1.088  2.700  0.000    23.518     7.942
  18   8 O     -0.363  1.736  4.627  0.000    20.954     6.137
  19   6 C     -0.083  1.057  3.026  0.000    22.079     6.688
  20   6 C      0.007  1.077  2.916  0.000    27.870     8.659
  21   6 C     -0.041  1.079  2.962  0.000    29.019     8.834
  22   6 C     -0.044  1.081  2.962  0.000    29.084     8.844
  23   6 C     -0.036  1.080  2.956  0.000    28.905     8.817
  24   6 C     -0.034  1.082  2.952  0.000    28.837     8.806
  25   6 C     -0.035  1.081  2.954  0.000    28.874     8.812
  26   1 H      0.233  0.767  0.000  0.000     0.951     1.528
  27   1 H      0.078  0.922  0.000  0.000     1.997     2.210
  28   1 H      0.082  0.918  0.000  0.000     1.959     2.189
  29   1 H      0.077  0.923  0.000  0.000     2.015     2.220
  30   1 H      0.034  0.966  0.000  0.000     2.528     2.486
  31   1 H      0.042  0.958  0.000  0.000     2.418     2.432
  32   1 H      0.049  0.951  0.000  0.000     2.331     2.388
  33   1 H      0.050  0.950  0.000  0.000     2.317     2.381
  34   1 H      0.051  0.949  0.000  0.000     2.308     2.376
  35   7 N     -0.391  1.304  4.087  0.000    30.127     8.152
  36   6 C      0.018  1.062  2.920  0.000    20.290     6.416
  37   6 C      0.271  1.045  2.684  0.000    22.422     7.754
  38   8 O     -0.515  1.750  4.765  0.000    24.124     6.585
  39   6 C      0.078  1.038  2.885  0.000    19.499     6.326
  40   8 O     -0.474  1.702  4.772  0.000    22.342     6.381
  41   1 H      0.166  0.834  0.000  0.000     1.299     1.786
  42   1 H      0.039  0.961  0.000  0.000     2.467     2.456
  43   1 H      0.044  0.956  0.000  0.000     2.399     2.422
  44   1 H      0.020  0.980  0.000  0.000     2.735     2.586
  45   1 H      0.339  0.661  0.000  0.000     0.614     1.231
  46   7 N     -0.177  1.247  3.930  0.000    24.827     7.400
  47   6 C      0.030  1.053  2.917  0.000    20.071     6.380
  48   6 C      0.201  1.089  2.711  0.000    23.729     7.977
  49   8 O     -0.358  1.744  4.614  0.000    20.856     6.123
  50   6 C     -0.129  1.042  3.088  0.000    23.040     6.844
  51   1 H      0.245  0.755  0.000  0.000     0.904     1.489
  52   1 H      0.092  0.908  0.000  0.000     1.861     2.133
  53   1 H      0.086  0.914  0.000  0.000     1.916     2.165
  54   1 H      0.078  0.922  0.000  0.000     2.004     2.214
  55   1 H      0.070  0.930  0.000  0.000     2.083     2.257
  56   7 N     -0.384  1.303  4.081  0.000    29.933     8.126
  57   6 C     -0.007  1.045  2.963  0.000    20.798     6.509
  58   6 C      0.270  1.046  2.684  0.000    22.438     7.757
  59   8 O     -0.527  1.756  4.771  0.000    24.391     6.622
  60   1 H      0.161  0.839  0.000  0.000     1.328     1.805
  61   1 H      0.040  0.960  0.000  0.000     2.452     2.449
  62   1 H      0.051  0.949  0.000  0.000     2.307     2.375
  63   7 N     -0.172  1.243  3.929  0.000    24.724     7.385
  64   6 C      0.027  1.057  2.916  0.000    20.127     6.389
  65   6 C      0.202  1.086  2.711  0.000    23.695     7.972
  66   8 O     -0.372  1.753  4.619  0.000    21.138     6.164
  67   6 C     -0.074  1.061  3.014  0.000    21.912     6.663
  68   6 C     -0.009  1.055  2.953  0.000    20.696     6.471
  69   6 C     -0.117  1.042  3.075  0.000    22.799     6.808
  70   6 C     -0.117  1.039  3.078  0.000    22.782     6.805
  71   1 H      0.235  0.765  0.000  0.000     0.944     1.522
  72   1 H      0.095  0.905  0.000  0.000     1.830     2.115
  73   1 H      0.065  0.935  0.000  0.000     2.138     2.286
  74   1 H      0.068  0.932  0.000  0.000     2.110     2.272
  75   1 H      0.033  0.967  0.000  0.000     2.543     2.494
  76   1 H      0.049  0.951  0.000  0.000     2.326     2.385
  77   1 H      0.045  0.955  0.000  0.000     2.384     2.415
  78   1 H      0.047  0.953  0.000  0.000     2.357     2.401
  79   1 H      0.059  0.941  0.000  0.000     2.206     2.323
  80   1 H      0.044  0.956  0.000  0.000     2.400     2.423
  81   1 H      0.020  0.980  0.000  0.000     2.732     2.585
  82   7 N     -0.385  1.321  4.064  0.000    29.961     8.129
  83   6 C      0.033  1.060  2.907  0.000    20.036     6.375
  84   6 C      0.203  1.087  2.710  0.000    23.675     7.969
  85   8 O     -0.379  1.760  4.619  0.000    21.274     6.184
  86   6 C     -0.022  1.069  2.953  0.000    20.935     6.508
  87   6 C     -0.064  1.051  3.013  0.000    21.720     6.635
  88   6 C     -0.121  1.039  3.081  0.000    22.871     6.819
  89   6 C     -0.116  1.037  3.079  0.000    22.775     6.806
  90   1 H      0.162  0.838  0.000  0.000     1.323     1.802
  91   1 H      0.055  0.945  0.000  0.000     2.256     2.349
  92   1 H      0.040  0.960  0.000  0.000     2.450     2.448
  93   1 H      0.040  0.960  0.000  0.000     2.443     2.444
  94   1 H      0.038  0.962  0.000  0.000     2.480     2.463
  95   1 H      0.062  0.938  0.000  0.000     2.177     2.307
  96   1 H      0.030  0.970  0.000  0.000     2.590     2.517
  97   1 H      0.043  0.957  0.000  0.000     2.415     2.430
  98   1 H      0.047  0.953  0.000  0.000     2.364     2.404
  99   1 H      0.039  0.961  0.000  0.000     2.457     2.451
 100   1 H      0.045  0.955  0.000  0.000     2.382     2.414
 101   7 N     -0.386  1.317  4.069  0.000    29.991     8.134
 102   6 C      0.040  1.057  2.903  0.000    19.922     6.358
 103   6 C      0.200  1.090  2.710  0.000    23.744     7.980
 104   8 O     -0.376  1.759  4.617  0.000    21.207     6.174
 105   6 C     -0.064  1.058  3.007  0.000    21.728     6.635
 106   6 C     -0.010  1.058  2.952  0.000    20.725     6.475
 107   6 C     -0.113  1.040  3.073  0.000    22.717     6.796
 108   6 C     -0.121  1.042  3.079  0.000    22.866     6.818
 109   1 H      0.156  0.844  0.000  0.000     1.359     1.826
 110   1 H      0.063  0.937  0.000  0.000     2.166     2.302
 111   1 H      0.045  0.955  0.000  0.000     2.378     2.412
 112   1 H      0.032  0.968  0.000  0.000     2.554     2.499
 113   1 H      0.035  0.965  0.000  0.000     2.513     2.479
 114   1 H      0.045  0.955  0.000  0.000     2.383     2.414
 115   1 H      0.039  0.961  0.000  0.000     2.462     2.454
 116   1 H      0.039  0.961  0.000  0.000     2.468     2.457
 117   1 H      0.053  0.947  0.000  0.000     2.288     2.365
 118   1 H      0.041  0.959  0.000  0.000     2.429     2.437
 119   1 H      0.036  0.964  0.000  0.000     2.502     2.474
 120   7 N     -0.388  1.320  4.068  0.000    30.046     8.141
 121   6 C      0.031  1.058  2.911  0.000    20.059     6.379
 122   6 C      0.270  1.048  2.682  0.000    22.431     7.756
 123   8 O     -0.489  1.752  4.737  0.000    23.546     6.506
 124   6 C     -0.061  1.054  3.006  0.000    21.657     6.624
 125   6 C     -0.071  1.051  3.020  0.000    21.862     6.657
 126   6 C     -0.082  1.050  3.032  0.000    22.054     6.685
 127   6 C     -0.032  1.052  2.980  0.000    21.234     6.578
 128   7 N     -0.191  1.255  3.936  0.000    25.127     7.445
 129   1 H      0.162  0.838  0.000  0.000     1.325     1.803
 130   1 H      0.040  0.960  0.000  0.000     2.448     2.447
 131   1 H      0.039  0.961  0.000  0.000     2.467     2.456
 132   1 H      0.020  0.980  0.000  0.000     2.740     2.589
 133   1 H      0.049  0.951  0.000  0.000     2.332     2.388
 134   1 H      0.054  0.946  0.000  0.000     2.273     2.358
 135   1 H      0.067  0.933  0.000  0.000     2.123     2.279
 136   1 H      0.065  0.935  0.000  0.000     2.136     2.285
 137   1 H      0.101  0.899  0.000  0.000     1.778     2.085
 138   1 H      0.100  0.900  0.000  0.000     1.786     2.090
 139   1 H      0.272  0.728  0.000  0.000     0.803     1.403
 140   1 H      0.304  0.696  0.000  0.000     0.700     1.310
 141   1 H      0.265  0.735  0.000  0.000     0.826     1.424
 142   7 N     -0.172  1.236  3.935  0.000    24.715     7.384
 143   6 C      0.026  1.058  2.915  0.000    20.135     6.389
 144   6 C      0.272  1.044  2.684  0.000    22.410     7.753
 145   8 O     -0.485  1.737  4.748  0.000    23.464     6.495
 146   6 C     -0.075  1.056  3.019  0.000    21.926     6.664
 147   6 C      0.003  1.076  2.921  0.000    27.958     8.673
 148   6 C     -0.040  1.082  2.958  0.000    29.005     8.832
 149   6 C     -0.041  1.083  2.958  0.000    29.010     8.833
 150   6 C     -0.058  1.072  2.986  0.000    29.444     8.898
 151   6 C     -0.075  1.078  2.996  0.000    29.862     8.961
 152   6 C      0.144  1.047  2.809  0.000    24.861     8.172
 153   8 O     -0.439  1.724  4.715  0.000    21.626     6.278
 154   1 H      0.201  0.799  0.000  0.000     1.100     1.643
 155   1 H      0.065  0.935  0.000  0.000     2.136     2.286
 156   1 H      0.075  0.925  0.000  0.000     2.032     2.229
 157   1 H      0.053  0.947  0.000  0.000     2.284     2.363
 158   1 H      0.038  0.962  0.000  0.000     2.476     2.461
 159   1 H      0.044  0.956  0.000  0.000     2.400     2.423
 160   1 H      0.050  0.950  0.000  0.000     2.320     2.382
 161   1 H      0.045  0.955  0.000  0.000     2.377     2.411
 162   1 H      0.346  0.654  0.000  0.000     0.598     1.215
 163   7 N     -0.164  1.242  3.922  0.000    24.553     7.359
 164   6 C      0.019  1.063  2.917  0.000    20.247     6.406
 165   6 C      0.267  1.041  2.693  0.000    22.499     7.768
 166   8 O     -0.478  1.740  4.738  0.000    23.305     6.472
 167   6 C     -0.076  1.057  3.019  0.000    21.940     6.667
 168   6 C      0.001  1.075  2.925  0.000    28.010     8.681
 169   6 C     -0.045  1.082  2.963  0.000    29.110     8.848
 170   6 C     -0.040  1.081  2.959  0.000    28.994     8.830
 171   6 C     -0.063  1.075  2.988  0.000    29.557     8.915
 172   6 C     -0.069  1.078  2.991  0.000    29.717     8.939
 173   6 C      0.146  1.046  2.808  0.000    24.818     8.165
 174   8 O     -0.438  1.712  4.726  0.000    21.594     6.273
 175   1 H      0.206  0.794  0.000  0.000     1.077     1.626
 176   1 H      0.083  0.917  0.000  0.000     1.953     2.185
 177   1 H      0.056  0.944  0.000  0.000     2.250     2.345
 178   1 H      0.067  0.933  0.000  0.000     2.120     2.277
 179   1 H      0.029  0.971  0.000  0.000     2.597     2.520
 180   1 H      0.042  0.958  0.000  0.000     2.426     2.436
 181   1 H      0.035  0.965  0.000  0.000     2.521     2.483
 182   1 H      0.040  0.960  0.000  0.000     2.445     2.445
 183   1 H      0.342  0.658  0.000  0.000     0.606     1.223
 184   7 N     -0.171  1.243  3.928  0.000    24.699     7.381
 185   6 C      0.027  1.054  2.919  0.000    20.134     6.390
 186   6 C      0.198  1.086  2.716  0.000    23.775     7.986
 187   8 O     -0.349  1.751  4.598  0.000    20.686     6.098
 188   6 C     -0.122  1.042  3.080  0.000    22.893     6.821
 189   1 H      0.224  0.776  0.000  0.000     0.992     1.560
 190   1 H      0.091  0.909  0.000  0.000     1.873     2.140
 191   1 H      0.076  0.924  0.000  0.000     2.019     2.222
 192   1 H      0.074  0.926  0.000  0.000     2.044     2.236
 193   1 H      0.066  0.934  0.000  0.000     2.126     2.280
 194   7 N     -0.392  1.316  4.076  0.000    30.161     8.156
 195   6 C      0.035  1.058  2.907  0.000    19.998     6.370
 196   6 C      0.272  1.048  2.680  0.000    22.402     7.751
 197   8 O     -0.475  1.731  4.744  0.000    23.234     6.463
 198   6 C     -0.075  1.058  3.017  0.000    21.926     6.665
 199   6 C     -0.002  1.076  2.925  0.000    28.063     8.689
 200   6 C     -0.044  1.082  2.962  0.000    29.091     8.845
 201   6 C     -0.045  1.079  2.966  0.000    29.116     8.849
 202   6 C     -0.059  1.076  2.983  0.000    29.461     8.901
 203   6 C     -0.064  1.077  2.987  0.000    29.600     8.922
 204   6 C      0.147  1.045  2.808  0.000    24.790     8.160
 205   8 O     -0.429  1.714  4.714  0.000    21.412     6.247
 206   1 H      0.174  0.826  0.000  0.000     1.248     1.750
 207   1 H      0.042  0.958  0.000  0.000     2.422     2.434
 208   1 H      0.049  0.951  0.000  0.000     2.327     2.386
 209   1 H      0.043  0.957  0.000  0.000     2.413     2.429
 210   1 H      0.048  0.952  0.000  0.000     2.346     2.395
 211   1 H      0.036  0.964  0.000  0.000     2.501     2.473
 212   1 H      0.052  0.948  0.000  0.000     2.300     2.371
 213   1 H      0.032  0.968  0.000  0.000     2.563     2.504
 214   1 H      0.332  0.668  0.000  0.000     0.631     1.248
 215   7 N     -0.179  1.245  3.934  0.000    24.873     7.407
 216   6 C      0.024  1.060  2.916  0.000    20.177     6.396
 217   6 C      0.269  1.045  2.685  0.000    22.450     7.759
 218   8 O     -0.492  1.735  4.758  0.000    23.616     6.516
 219   6 C     -0.054  1.050  3.004  0.000    21.540     6.607
 220   6 C     -0.094  1.058  3.036  0.000    22.296     6.723
 221   6 C      0.369  1.024  2.607  0.000    20.743     7.453
 222   8 O     -0.572  1.745  4.827  0.000    25.430     6.761
 223   8 O     -0.593  1.759  4.834  0.000    25.948     6.830
 224   1 H      0.195  0.805  0.000  0.000     1.129     1.665
 225   1 H      0.072  0.928  0.000  0.000     2.066     2.248
 226   1 H      0.059  0.941  0.000  0.000     2.215     2.327
 227   1 H      0.035  0.965  0.000  0.000     2.513     2.479
 228   1 H      0.027  0.973  0.000  0.000     2.628     2.535
 229   1 H      0.046  0.954  0.000  0.000     2.366     2.405
 230   7 N     -0.164  1.244  3.920  0.000    24.554     7.359
 231   6 C      0.013  1.063  2.924  0.000    20.364     6.425
 232   6 C      0.268  1.043  2.689  0.000    22.475     7.763
 233   8 O     -0.484  1.741  4.743  0.000    23.439     6.491
 234   6 C     -0.020  1.063  2.957  0.000    20.902     6.503
 235   6 C     -0.115  1.039  3.076  0.000    22.754     6.801
 236   6 C     -0.115  1.038  3.077  0.000    22.756     6.802
 237   1 H      0.222  0.778  0.000  0.000     1.001     1.568
 238   1 H      0.073  0.927  0.000  0.000     2.050     2.239
 239   1 H      0.053  0.947  0.000  0.000     2.280     2.361
 240   1 H      0.066  0.934  0.000  0.000     2.125     2.279
 241   1 H      0.040  0.960  0.000  0.000     2.449     2.447
 242   1 H      0.042  0.958  0.000  0.000     2.421     2.433
 243   1 H      0.067  0.933  0.000  0.000     2.119     2.277
 244   1 H      0.037  0.963  0.000  0.000     2.486     2.465
 245   1 H      0.034  0.966  0.000  0.000     2.535     2.490
 246   7 N     -0.174  1.240  3.934  0.000    24.770     7.392
 247   6 C      0.012  1.061  2.927  0.000    20.382     6.429
 248   6 C      0.272  1.042  2.686  0.000    22.410     7.752
 249   8 O     -0.464  1.731  4.733  0.000    23.005     6.431
 250   6 C      0.068  1.041  2.891  0.000    19.665     6.354
 251   8 O     -0.476  1.716  4.760  0.000    22.392     6.388
 252   1 H      0.238  0.762  0.000  0.000     0.933     1.513
 253   1 H      0.081  0.919  0.000  0.000     1.973     2.197
 254   1 H      0.047  0.953  0.000  0.000     2.362     2.403
 255   1 H      0.057  0.943  0.000  0.000     2.232     2.336
 256   1 H      0.347  0.653  0.000  0.000     0.594     1.211
 257   7 N     -0.162  1.237  3.925  0.000    24.505     7.352
 258   6 C      0.015  1.064  2.921  0.000    20.331     6.421
 259   6 C      0.207  1.086  2.707  0.000    23.610     7.958
 260   8 O     -0.364  1.748  4.616  0.000    20.977     6.141
 261   6 C     -0.009  1.063  2.946  0.000    20.696     6.470
 262   6 C     -0.121  1.039  3.081  0.000    22.868     6.818
 263   6 C     -0.112  1.039  3.073  0.000    22.695     6.792
 264   1 H      0.209  0.791  0.000  0.000     1.062     1.614
 265   1 H      0.106  0.894  0.000  0.000     1.732     2.058
 266   1 H      0.052  0.948  0.000  0.000     2.294     2.369
 267   1 H      0.062  0.938  0.000  0.000     2.172     2.305
 268   1 H      0.034  0.966  0.000  0.000     2.532     2.488
 269   1 H      0.058  0.942  0.000  0.000     2.227     2.334
 270   1 H      0.057  0.943  0.000  0.000     2.231     2.336
 271   1 H      0.050  0.950  0.000  0.000     2.322     2.383
 272   1 H      0.035  0.965  0.000  0.000     2.513     2.479
 273   7 N     -0.379  1.305  4.074  0.000    29.799     8.107
 274   6 C      0.038  1.059  2.904  0.000    19.952     6.362
 275   6 C      0.266  1.048  2.686  0.000    22.509     7.769
 276   8 O     -0.479  1.738  4.741  0.000    23.331     6.476
 277   6 C     -0.038  1.047  2.991  0.000    21.236     6.560
 278   6 C     -0.085  1.065  3.020  0.000    22.132     6.698
 279   6 C      0.371  1.026  2.603  0.000    20.714     7.448
 280   8 O     -0.661  1.778  4.883  0.000    27.668     7.052
 281   8 O     -0.641  1.770  4.871  0.000    27.144     6.985
 282   1 H      0.150  0.850  0.000  0.000     1.399     1.853
 283   1 H      0.021  0.979  0.000  0.000     2.711     2.575
 284   1 H      0.017  0.983  0.000  0.000     2.786     2.610
 285   1 H      0.031  0.969  0.000  0.000     2.578     2.511
 286   1 H      0.020  0.980  0.000  0.000     2.733     2.585
 287   1 H      0.015  0.985  0.000  0.000     2.805     2.619
 288   7 N     -0.175  1.241  3.934  0.000    24.786     7.394
 289   6 C      0.012  1.066  2.922  0.000    20.380     6.428
 290   6 C      0.272  1.047  2.681  0.000    22.410     7.752
 291   8 O     -0.498  1.741  4.757  0.000    23.739     6.533
 292   6 C     -0.019  1.064  2.956  0.000    20.883     6.499
 293   6 C     -0.122  1.040  3.082  0.000    22.897     6.823
 294   6 C     -0.119  1.041  3.079  0.000    22.843     6.815
 295   1 H      0.200  0.800  0.000  0.000     1.107     1.648
 296   1 H      0.087  0.913  0.000  0.000     1.907     2.160
 297   1 H      0.049  0.951  0.000  0.000     2.332     2.388
 298   1 H      0.072  0.928  0.000  0.000     2.067     2.248
 299   1 H      0.035  0.965  0.000  0.000     2.513     2.479
 300   1 H      0.056  0.944  0.000  0.000     2.250     2.346
 301   1 H      0.067  0.933  0.000  0.000     2.114     2.274
 302   1 H      0.051  0.949  0.000  0.000     2.312     2.378
 303   1 H      0.035  0.965  0.000  0.000     2.520     2.483
 304   7 N     -0.159  1.241  3.918  0.000    24.433     7.341
 305   6 C      0.004  1.066  2.930  0.000    20.514     6.449
 306   6 C      0.263  1.041  2.696  0.000    22.569     7.779
 307   8 O     -0.477  1.729  4.748  0.000    23.286     6.470
 308   6 C      0.125  1.045  2.831  0.000    18.649     6.166
 309   8 O     -0.468  1.713  4.755  0.000    22.215     6.363
 310   6 C     -0.113  1.039  3.074  0.000    22.719     6.797
 311   1 H      0.236  0.764  0.000  0.000     0.938     1.517
 312   1 H      0.073  0.927  0.000  0.000     2.049     2.239
 313   1 H      0.018  0.982  0.000  0.000     2.761     2.599
 314   1 H      0.329  0.671  0.000  0.000     0.640     1.257
 315   1 H      0.061  0.939  0.000  0.000     2.184     2.311
 316   1 H      0.043  0.957  0.000  0.000     2.405     2.425
 317   1 H      0.044  0.956  0.000  0.000     2.400     2.423
 318   7 N     -0.180  1.259  3.921  0.000    24.901     7.411
 319   6 C      0.022  1.063  2.915  0.000    20.217     6.403
 320   6 C      0.275  1.046  2.679  0.000    22.356     7.743
 321   8 O     -0.506  1.745  4.762  0.000    23.924     6.558
 322   6 C     -0.082  1.059  3.024  0.000    22.060     6.686
 323   6 C     -0.013  1.054  2.959  0.000    20.768     6.482
 324   6 C     -0.122  1.041  3.081  0.000    22.890     6.821
 325   6 C     -0.118  1.043  3.076  0.000    22.814     6.810
 326   1 H      0.233  0.767  0.000  0.000     0.953     1.529
 327   1 H      0.072  0.928  0.000  0.000     2.068     2.249
 328   1 H      0.075  0.925  0.000  0.000     2.032     2.229
 329   1 H      0.056  0.944  0.000  0.000     2.245     2.343
 330   1 H      0.018  0.982  0.000  0.000     2.768     2.602
 331   1 H      0.049  0.951  0.000  0.000     2.335     2.390
 332   1 H      0.041  0.959  0.000  0.000     2.432     2.439
 333   1 H      0.057  0.943  0.000  0.000     2.232     2.336
 334   1 H      0.042  0.958  0.000  0.000     2.423     2.434
 335   1 H      0.069  0.931  0.000  0.000     2.097     2.265
 336   1 H      0.024  0.976  0.000  0.000     2.669     2.555
 337   7 N     -0.179  1.262  3.917  0.000    24.883     7.409
 338   6 C      0.028  1.058  2.915  0.000    20.112     6.385
 339   6 C      0.273  1.045  2.682  0.000    22.383     7.748
 340   8 O     -0.477  1.741  4.736  0.000    23.275     6.468
 341   6 C     -0.120  1.038  3.082  0.000    22.854     6.816
 342   1 H      0.231  0.769  0.000  0.000     0.961     1.536
 343   1 H      0.064  0.936  0.000  0.000     2.150     2.293
 344   1 H      0.074  0.926  0.000  0.000     2.047     2.237
 345   1 H      0.061  0.939  0.000  0.000     2.188     2.313
 346   1 H      0.061  0.939  0.000  0.000     2.184     2.311
 347   7 N     -0.176  1.243  3.933  0.000    24.803     7.397
 348   6 C     -0.035  1.052  2.983  0.000    21.262     6.577
 349   6 C      0.285  1.036  2.679  0.000    22.170     7.711
 350   8 O     -0.483  1.754  4.729  0.000    23.419     6.488
 351   1 H      0.225  0.775  0.000  0.000     0.988     1.557
 352   1 H      0.103  0.897  0.000  0.000     1.755     2.072
 353   1 H      0.100  0.900  0.000  0.000     1.784     2.089
 354   7 N     -0.178  1.242  3.936  0.000    24.862     7.405
 355   6 C     -0.025  1.051  2.974  0.000    21.071     6.545
 356   6 C      0.305  1.037  2.658  0.000    21.820     7.649
 357   8 O     -0.481  1.752  4.729  0.000    23.371     6.482
 358   1 H      0.222  0.778  0.000  0.000     1.002     1.568
 359   1 H      0.089  0.911  0.000  0.000     1.889     2.150
 360   1 H      0.074  0.926  0.000  0.000     2.043     2.235
 361   7 N     -0.186  1.271  3.915  0.000    25.030     7.431
 362   6 C      0.042  1.054  2.904  0.000    19.871     6.348
 363   6 C      0.211  1.078  2.711  0.000    23.524     7.943
 364   8 O     -0.357  1.740  4.618  0.000    20.850     6.122
 365   6 C     -0.124  1.040  3.084  0.000    22.929     6.827
 366   1 H      0.211  0.789  0.000  0.000     1.051     1.606
 367   1 H      0.051  0.949  0.000  0.000     2.313     2.378
 368   1 H      0.065  0.935  0.000  0.000     2.145     2.290
 369   1 H      0.073  0.927  0.000  0.000     2.056     2.242
 370   1 H      0.076  0.924  0.000  0.000     2.024     2.225
 371   7 N     -0.382  1.308  4.073  0.000    29.864     8.116
 372   6 C      0.042  1.054  2.904  0.000    19.886     6.352
 373   6 C      0.197  1.090  2.714  0.000    23.804     7.990
 374   8 O     -0.371  1.761  4.610  0.000    21.109     6.160
 375   6 C     -0.067  1.060  3.007  0.000    21.767     6.641
 376   6 C     -0.007  1.056  2.950  0.000    20.667     6.466
 377   6 C     -0.110  1.041  3.069  0.000    22.656     6.786
 378   6 C     -0.114  1.039  3.075  0.000    22.733     6.798
 379   1 H      0.165  0.835  0.000  0.000     1.305     1.790
 380   1 H      0.047  0.953  0.000  0.000     2.355     2.400
 381   1 H      0.047  0.953  0.000  0.000     2.359     2.402
 382   1 H      0.041  0.959  0.000  0.000     2.432     2.439
 383   1 H      0.033  0.967  0.000  0.000     2.545     2.495
 384   1 H      0.034  0.966  0.000  0.000     2.533     2.489
 385   1 H      0.040  0.960  0.000  0.000     2.451     2.448
 386   1 H      0.041  0.959  0.000  0.000     2.435     2.440
 387   1 H      0.040  0.960  0.000  0.000     2.455     2.450
 388   1 H      0.043  0.957  0.000  0.000     2.408     2.427
 389   1 H      0.038  0.962  0.000  0.000     2.481     2.463
 390   1 H      0.188  0.812  0.000  0.000     1.171     1.695
 391   1 H      0.089  0.911  0.000  0.000     1.891     2.150
 392   1 H      0.179  0.821  0.000  0.000     1.219     1.730
 393   1 H      0.075  0.925  0.000  0.000     2.033     2.230
 394   1 H      0.183  0.817  0.000  0.000     1.198     1.714
 395   1 H      0.071  0.929  0.000  0.000     2.070     2.250
 396   1 H      0.183  0.817  0.000  0.000     1.195     1.712
 397   1 H      0.065  0.935  0.000  0.000     2.138     2.286
 398   1 H      0.183  0.817  0.000  0.000     1.197     1.714
 399   1 H      0.062  0.938  0.000  0.000     2.171     2.304
 400   1 H      0.187  0.813  0.000  0.000     1.177     1.699
 401   1 H      0.086  0.914  0.000  0.000     1.921     2.167
 402   1 H      0.180  0.820  0.000  0.000     1.212     1.725
 403   1 H      0.071  0.929  0.000  0.000     2.079     2.255
 404   1 H      0.186  0.814  0.000  0.000     1.182     1.703
 405   1 H      0.059  0.941  0.000  0.000     2.211     2.325
 406   1 H      0.178  0.822  0.000  0.000     1.227     1.735
 407   1 H      0.066  0.934  0.000  0.000     2.130     2.282

 Mol. C6AA /au·bohr⁶  :    1515666.305385
 Mol. C8AA /au·bohr⁸  :   33633595.440953
 Mol. α(0) /au        :       1850.114741

 
molecular dipole:
                 x           y           z       tot (Debye)
 q only:     -418.729    -115.800    -228.660
   full:     -419.386    -120.079    -228.804    1252.091
molecular quadrupole (traceless):
                xx          xy          yy          xz          yz          zz
 q only:  -142818.720  -72954.658  100172.932 -143433.171  -39599.605   42645.787
  q+dip:  -142828.058  -75775.266   99380.973 -143774.144  -41064.441   43447.085
   full:  -142830.254  -75779.749   99387.236 -143772.610  -41066.793   43443.019
speedup 15.97
cpu  time for grad   43.38 s
wall time for grad    2.72 s

SCC energy    :    -623.0451509
rep           :       7.7647686
ES            :       1.6556449
AES           :      -0.0296550
AXC           :       0.2069838
disp          :      -0.5297987
XB            :       0.0000000
fix           :       0.0000000
Gborn         :       0.0000000
Gsasa         :       0.0000000
Ghb           :       0.0000000
Gshift        :       0.0000000
Gsolv         :      -0.3124229     -196.05
Etot ala COSMO:    -623.0451509
grad norm     :       0.6659810
total E       :    -615.2265013
atomizationE  :     114.0071418    71540.56
(atE without considering molecular charge,
 total energy contains solvation terms)
H-L gap (eV)  :          1.3944

------------------------------------------------------------------------
 * finished run on 2019/02/13 at 00:18:33.509     
------------------------------------------------------------------------
 total:
 * wall-time:     0 d,  0 h,  0 min,  3.075 sec
 *  cpu-time:     0 d,  0 h,  0 min, 48.916 sec
 * ratio c/w:    15.907 speedup
 SCF:
 * wall-time:     0 d,  0 h,  0 min,  2.892 sec
 *  cpu-time:     0 d,  0 h,  0 min, 46.192 sec
 * ratio c/w:    15.975 speedup

