      -----------------------------------------------------------      
     |                   =====================                   |     
     |                           x T B                           |     
     |                   =====================                   |     
     |                         S. Grimme                         |     
     |          Mulliken Center for Theoretical Chemistry        |     
     |                    University of Bonn                     |     
     |                 Version 6.0.1 (SAW181210)                 |     
      -----------------------------------------------------------      

   This program is distributed in the hope that it will be useful,
   but WITHOUT ANY WARRANTY; without even the implied warranty of
   MERCHANTABILITY or FITNESS FOR A PARTICULAR PURPOSE.
   
   FOR NON-COMMERCIAL, ACADEMIA USE ONLY.
   
   Cite this work as:
   S. Grimme, C. Bannwarth, P. Shushkov, J. Comput. Theory Chem., 2017,
   13, 1989-2009.
   C. Bannwarth, S. Ehlert and S. Grimme., ChemRxiv, 2018, preprint.
   http://doi.org/10.26434/chemrxiv.7246238.v1
   
   for sTDA-xTB:
   S. Grimme and C. Bannwarth, J. Chem. Phys., 2016, 145, 054103.
   
   in the mass-spec context:
   V. Asgeirsson, C. Bauer and S. Grimme, Chem. Sci., 2017, 8, 4879.
   
   if GBSA is used:
   P. Shushkov, F. März and S. Grimme, unpublished.
   
   for ANC optimizer:
   S. Grimme, unpublished.
   Rational Function algorithm used in ANCopt:
   F. Eckert, P. Pulay, H.-J. Werner, J. Comput. Chem., 1997, 18, 1473.
   
   with help from (in alphabetical order)
   C. Bannwarth, F. Bohle, G. Brandenburg, E. Caldeweyher, M. Checinski,
   S. Dohm, S. Ehlert, S. Ehrlich, F. März, H. Neugebauer, J. Pisarek,
   P. Pracht, P. Shushkov, and S. Spicher.
   
 * started run on 2019/02/13 at 00:18:39.268     
========================================================================
 # omp threads = 16
========================================================================
number of atoms            : 211
number of electrons        : 574
charge                     : 0
spin                       : .0
first test random number   : .3406

########################################################################
# WARNING! Please study the warnings concerning your input carefully
#  - Process number higher than OMP_NUM_THREADS, I hope you know what you are doing.
########################################################################

           ------------------------------------------------- 
          |                 G F N 2 - x T B                 |
          | Geometry, Frequencies, Noncovalent interactions |
          |            JCTC 2018 parametrisation            |
           ------------------------------------------------- 
 
      method parameters     
 k(s)        :  1.8500
 k(p)        :  2.2300
 k(d)        :  2.2300
 k(f)        :  2.0000
 kEN (H0ij)  : -2.0000
 D4 a1       :  0.5200
 D4 a2       :  5.0000
 D4 s6       :  1.0000
 D4 s8       :  2.7000
 D4 s9       :  5.0000
 alphaj      :  2.0000

 Solvent             : h2o
 Using internal parameter file: .param_gbsa2_h2o
 Gsolv ref. state (COSMO-RS): gsolv [1 M gas/solution]
 temperature (mdtemp)       :    298.150000000000     
 dielectric constant        :    80.2000000000000     
 rho                        :    1.00000000000000     
 mass                       :    18.0000000000000     
 surface tension            :    15.5689454083859     
 probe radius               :   0.975313790000000     
 vdW radii scaling          :    1.00000000000000     
 Gshift (Eh)                :   1.857443126794793E-003
 c1                         :    1.55243817000000     
 soset                      :   0.130326360000000     
 HB correction              :  T

            Z     q(EN)     CN     RAES       Cart. coordinates
     1  N   5.0   -0.20    3.22    1.96   213.66152   119.47221   297.46867
     2  C   4.0    0.03    4.30    4.20   213.48667   116.74343   297.58263
     3  C   4.0    0.14    3.39    3.08   215.84880   115.62023   298.85028
     4  O   6.0   -0.30    1.23    1.80   217.97900   116.41381   298.50926
     5  C   4.0   -0.05    4.34    4.27   213.16349   115.61752   294.92429
     6  C   4.0   -0.02    4.18    3.97   215.51671   115.66026   293.22560
     7  C   4.0   -0.08    4.10    3.81   214.97632   114.18450   290.80090
     8  C   4.0   -0.07    4.11    3.82   216.37062   118.34444   292.59698
     9  H   1.0    0.08    1.02    1.43   212.97218   120.34407   295.90142
    10  H   1.0    0.04    1.05    1.44   211.82005   116.23272   298.71364
    11  H   1.0    0.04    1.03    1.43   212.58087   113.65276   295.15896
    12  H   1.0    0.04    1.03    1.43   211.64923   116.66022   293.98636
    13  H   1.0    0.05    1.06    1.44   217.08055   114.72939   294.20711
    14  H   1.0    0.04    1.00    1.43   216.62085   114.27176   289.57039
    15  H   1.0    0.03    1.00    1.43   214.57904   112.21957   291.23688
    16  H   1.0    0.04    1.00    1.43   213.38027   114.99965   289.79383
    17  H   1.0    0.04    1.00    1.43   217.83447   118.32030   291.14881
    18  H   1.0    0.04    1.00    1.43   214.81141   119.49039   291.89266
    19  H   1.0    0.06    1.00    1.43   217.16593   119.26266   294.25343
    20  N   5.0   -0.14    3.48    2.07   215.34324   113.58362   300.29155
    21  C   4.0    0.03    4.39    4.37   217.24687   112.04334   301.51562
    22  C   4.0    0.14    3.43    3.09   216.12386   109.40643   301.89118
    23  O   6.0   -0.31    1.29    1.80   213.88315   108.97260   301.49454
    24  C   4.0   -0.04    4.26    4.11   218.06319   113.19735   304.07337
    25  C   4.0   -0.04    4.18    3.96   220.51444   114.69802   303.81505
    26  C   4.0   -0.01    4.21    4.01   221.12197   116.13598   306.25400
    27  N   5.0   -0.14    3.40    2.02   223.39947   117.62903   305.98863
    28  C   4.0    0.09    3.35    3.06   225.74835   116.76756   306.13486
    29  N   5.0   -0.19    3.25    1.97   226.26266   114.42048   306.89193
    30  N   5.0   -0.18    3.24    1.97   227.64121   118.33106   305.57104
    31  H   1.0    0.09    1.09    1.44   213.56535   112.89485   300.46012
    32  H   1.0    0.05    1.06    1.44   218.88856   111.92243   300.25821
    33  H   1.0    0.05    1.03    1.43   216.56851   114.47667   304.68182
    34  H   1.0    0.04    1.03    1.43   218.27832   111.71457   305.48974
    35  H   1.0    0.04    1.02    1.43   222.07104   113.43454   303.33581
    36  H   1.0    0.06    1.03    1.43   220.30207   116.05131   302.27454
    37  H   1.0    0.04    1.03    1.43   219.58968   117.45194   306.66358
    38  H   1.0    0.04    1.02    1.43   221.30263   114.84061   307.85129
    39  H   1.0    0.08    1.07    1.44   223.15768   119.37027   305.18611
    40  H   1.0    0.08    1.03    1.43   224.87655   113.23385   307.42699
    41  H   1.0    0.09    1.03    1.43   228.06443   113.86569   307.14300
    42  H   1.0    0.09    1.03    1.43   227.26811   120.07806   304.91378
    43  H   1.0    0.09    1.03    1.43   229.45252   117.76175   305.66900
    44  N   5.0   -0.15    3.49    2.07   217.73893   107.66481   302.76173
    45  C   4.0    0.03    4.51    4.55   217.03516   105.02769   303.08048
    46  C   4.0    0.15    3.40    3.08   215.94464   104.67431   305.76064
    47  O   6.0   -0.29    1.23    1.80   216.90228   103.34966   307.37930
    48  C   4.0   -0.02    4.33    4.25   219.24866   103.21557   302.60863
    49  C   4.0   -0.05    4.18    3.96   220.90062   103.97423   300.34356
    50  C   4.0   -0.06    4.12    3.85   218.18382   100.54814   302.28249
    51  C   4.0   -0.07    4.02    3.66   219.43303   104.57032   297.93416
    52  H   1.0    0.07    1.07    1.44   219.57296   108.10237   303.04317
    53  H   1.0    0.06    1.06    1.44   215.51529   104.61640   301.73066
    54  H   1.0    0.05    1.06    1.44   220.43031   103.20171   304.30917
    55  H   1.0    0.04    1.02    1.43   222.07575   105.59625   300.83442
    56  H   1.0    0.04    1.03    1.43   222.17629   102.39801   299.97438
    57  H   1.0    0.05    1.00    1.43   219.70165    99.20067   301.96764
    58  H   1.0    0.07    1.00    1.43   217.16832    99.96737   303.97314
    59  H   1.0    0.06    1.00    1.43   216.87287   100.44642   300.69964
    60  H   1.0    0.04    1.00    1.43   220.72950   104.70768   296.34606
    61  H   1.0    0.05    1.00    1.43   218.06629   103.09422   297.52153
    62  H   1.0    0.05    1.00    1.43   218.41672   106.34762   298.09259
    63  N   5.0   -0.13    3.49    2.07   213.89193   106.12305   306.15386
    64  C   4.0    0.05    4.28    4.16   212.49014   106.11987   308.50523
    65  C   4.0    0.09    3.18    3.03   209.92387   104.79857   308.12509
    66  O   6.0   -0.27    1.11    1.80   209.37534   102.85109   309.24091
    67  C   4.0   -0.03    4.26    4.12   212.26132   108.80898   309.61566
    68  C   4.0    0.15    3.22    3.04   211.69363   110.90039   307.72761
    69  O   6.0   -0.29    1.21    1.80   210.32337   110.63037   305.86973
    70  N   5.0   -0.19    3.19    1.95   212.72065   113.12934   308.27323
    71  H   1.0    0.11    1.10    1.44   213.16152   107.09315   304.66717
    72  H   1.0    0.07    1.07    1.44   213.55717   104.93623   309.82716
    73  H   1.0    0.05    1.03    1.43   210.74394   108.79253   311.01910
    74  H   1.0    0.04    1.03    1.43   214.02107   109.24573   310.59337
    75  H   1.0    0.09    1.03    1.43   212.41355   114.60089   307.09860
    76  H   1.0    0.08    1.03    1.43   213.82336   113.39792   309.80138
    77  N   5.0   -0.20    3.24    1.96   205.52672   107.95452   302.34152
    78  C   4.0    0.03    4.25    4.10   204.86229   108.78034   299.80445
    79  C   4.0    0.14    3.41    3.08   205.99194   107.07670   297.76521
    80  O   6.0   -0.31    1.22    1.80   204.94169   106.67832   295.75178
    81  C   4.0   -0.07    4.13    3.86   205.87704   111.45369   299.39749
    82  H   1.0    0.10    1.03    1.43   206.40802   109.24271   303.44851
    83  H   1.0    0.05    1.05    1.44   202.80558   108.71832   299.57456
    84  H   1.0    0.05    1.00    1.43   205.36996   112.12251   297.52431
    85  H   1.0    0.05    1.00    1.43   205.07672   112.72589   300.79250
    86  H   1.0    0.05    1.00    1.43   207.92541   111.46083   299.57292
    87  N   5.0   -0.14    3.49    2.07   208.34671   106.29922   298.29221
    88  C   4.0    0.03    4.41    4.40   209.91651   104.97143   296.49034
    89  C   4.0    0.15    3.43    3.09   210.87257   102.45458   297.58171
    90  O   6.0   -0.30    1.26    1.80   213.09988   101.90135   297.75313
    91  C   4.0   -0.04    4.25    4.10   212.09540   106.60792   295.47978
    92  C   4.0   -0.05    4.16    3.92   211.73321   107.32306   292.70361
    93  C   4.0   -0.05    4.17    3.94   209.58820   109.23833   292.33824
    94  C   4.0   -0.04    4.11    3.83   208.56240   109.34294   289.64889
    95  N   5.0   -0.12    4.02    2.92   206.81824   107.17653   289.19848
    96  H   1.0    0.10    1.08    1.44   209.06724   106.73962   300.00588
    97  H   1.0    0.05    1.07    1.44   208.64982   104.45075   294.93097
    98  H   1.0    0.05    1.03    1.43   212.27356   108.29351   296.65149
    99  H   1.0    0.06    1.04    1.43   213.83401   105.51656   295.67504
   100  H   1.0    0.03    1.03    1.43   213.50428   108.11481   292.01287
   101  H   1.0    0.05    1.03    1.43   211.41118   105.58403   291.64024
   102  H   1.0    0.06    1.04    1.43   208.03135   108.79268   293.60865
   103  H   1.0    0.04    1.03    1.43   210.27433   111.10959   292.84629
   104  H   1.0    0.05    1.02    1.43   207.50460   111.09080   289.36800
   105  H   1.0    0.04    1.02    1.43   210.09075   109.25244   288.27008
   106  H   1.0    0.06    1.02    1.43   205.94181   107.33410   287.47119
   107  H   1.0    0.06    1.02    1.43   207.80486   105.50230   289.23979
   108  H   1.0    0.07    1.02    1.43   205.47160   107.11804   290.61223
   109  N   5.0   -0.14    3.48    2.07   208.98666   100.88264   298.25381
   110  C   4.0    0.04    4.42    4.41   209.42967    98.21557   298.74597
   111  C   4.0    0.18    3.58    3.15   211.25693    97.18646   296.74953
   112  O   6.0   -0.28    1.25    1.80   213.16633    96.01416   297.30171
   113  C   4.0   -0.03    4.26    4.13   206.96993    96.72123   298.64470
   114  C   4.0    0.26    3.16    3.03   207.62415    93.86912   298.09255
   115  O   6.0   -0.27    1.19    1.80   207.73937    93.27840   295.81664
   116  O   6.0   -0.26    1.16    1.80   207.98341    92.49664   299.95880
   117  H   1.0    0.08    1.07    1.44   207.17216   101.44887   298.09209
   118  H   1.0    0.07    1.05    1.44   210.35193    97.94252   300.58378
   119  H   1.0    0.06    1.02    1.43   205.96066    96.84743   300.43354
   120  H   1.0    0.05    1.02    1.43   205.77813    97.38759   297.09885
   121  N   5.0   -0.13    3.50    2.08   210.63789    97.81608   294.36012
   122  C   4.0    0.05    4.48    4.50   212.05964    96.78276   292.25187
   123  C   4.0    0.17    3.52    3.13   214.44009    98.40297   291.87370
   124  O   6.0   -0.29    1.25    1.80   214.53829   100.22246   290.44810
   125  C   4.0   -0.02    4.28    4.15   210.54632    96.71523   289.82361
   126  C   4.0    0.26    3.19    3.03   212.36776    96.14553   287.58731
   127  O   6.0   -0.31    1.34    1.80   214.43972    95.12266   288.13814
   128  O   6.0   -0.29    1.17    1.80   211.67907    96.78496   285.44674
   129  H   1.0    0.08    1.07    1.44   208.81980    98.26278   294.00358
   130  H   1.0    0.07    1.06    1.44   212.66091    94.85616   292.73943
   131  H   1.0    0.06    1.02    1.43   209.09653    95.25138   289.90987
   132  H   1.0    0.06    1.03    1.43   209.66188    98.53497   289.43671
   133  N   5.0   -0.14    3.51    2.08   216.38496    97.64573   293.29370
   134  C   4.0    0.04    4.35    4.29   218.79508    98.92657   293.23922
   135  C   4.0    0.16    3.44    3.09   220.20442    98.42015   290.76925
   136  O   6.0   -0.32    1.28    1.80   221.73565    99.95548   289.96339
   137  C   4.0   -0.07    4.12    3.84   220.44218    98.05434   295.43526
   138  H   1.0    0.10    1.09    1.44   216.04687    96.36775   294.67677
   139  H   1.0    0.06    1.05    1.44   218.47617   100.97377   293.34304
   140  H   1.0    0.05    1.00    1.43   222.21346    99.09008   295.41683
   141  H   1.0    0.05    1.00    1.43   219.45778    98.39516   297.20400
   142  H   1.0    0.05    1.00    1.43   220.83316    96.04531   295.26439
   143  N   5.0   -0.14    3.49    2.07   219.82090    96.15245   289.72177
   144  C   4.0    0.04    4.35    4.29   221.13195    95.40113   287.43336
   145  C   4.0    0.16    3.45    3.10   220.33574    97.03648   285.18292
   146  O   6.0   -0.28    1.25    1.80   221.91237    98.03242   283.80408
   147  C   4.0   -0.07    4.11    3.82   220.63461    92.62126   286.88381
   148  H   1.0    0.10    1.09    1.44   218.22009    95.19777   290.14729
   149  H   1.0    0.06    1.06    1.44   223.15200    95.74402   287.74251
   150  H   1.0    0.05    1.00    1.43   221.55053    92.07247   285.13121
   151  H   1.0    0.05    1.00    1.43   221.35645    91.45781   288.41348
   152  H   1.0    0.06    1.00    1.43   218.61138    92.30176   286.69838
   153  N   5.0   -0.13    3.42    2.03   217.85737    97.29183   284.88233
   154  C   4.0    0.03    4.26    4.12   216.84242    98.77565   282.82620
   155  C   4.0    0.17    3.40    3.08   218.02303   101.39501   282.75519
   156  O   6.0   -0.26    1.24    1.80   218.94671   102.28764   280.83017
   157  H   1.0    0.12    1.13    1.45   216.60156    96.35956   286.04467
   158  H   1.0    0.07    1.02    1.43   217.22049    97.86346   281.00500
   159  H   1.0    0.07    1.03    1.43   214.80008    98.90662   283.09117
   160  N   5.0   -0.13    3.48    2.06   218.00493   102.66547   284.94898
   161  C   4.0    0.05    4.47    4.49   219.03715   105.19841   285.00371
   162  C   4.0    0.16    3.46    3.10   221.92427   105.19363   285.00437
   163  O   6.0   -0.27    1.27    1.80   223.07158   106.94151   283.99045
   164  C   4.0   -0.05    4.25    4.10   217.93573   106.83416   287.10816
   165  C   4.0   -0.04    4.22    4.04   215.26213   107.72996   286.42956
   166  C   4.0    0.15    3.25    3.04   215.26350   109.13810   283.92169
   167  O   6.0   -0.29    1.20    1.80   214.62165   108.14305   281.93926
   168  N   5.0   -0.19    3.19    1.95   216.00838   111.55471   284.06441
   169  H   1.0    0.10    1.06    1.44   217.17202   101.93126   286.50236
   170  H   1.0    0.08    1.09    1.44   218.54413   106.06280   283.18087
   171  H   1.0    0.05    1.02    1.43   217.88817   105.75581   288.86502
   172  H   1.0    0.05    1.03    1.43   219.17969   108.45995   287.35877
   173  H   1.0    0.05    1.03    1.43   214.03213   106.08807   286.24428
   174  H   1.0    0.03    1.03    1.43   214.57414   108.98084   287.90951
   175  H   1.0    0.08    1.03    1.43   216.64358   112.32834   285.67924
   176  H   1.0    0.10    1.03    1.43   216.19395   112.57553   282.46891
   177  N   5.0   -0.13    3.48    2.06   223.12016   103.22468   286.00303
   178  C   4.0    0.05    4.28    4.15   225.83102   103.00758   285.64931
   179  C   4.0    0.11    3.28    3.05   226.40911   103.24017   282.82583
   180  O   6.0   -0.26    1.11    1.80   228.16075   104.55214   282.06451
   181  C   4.0   -0.06    4.10    3.81   226.80054   100.49904   286.66712
   182  H   1.0    0.12    1.10    1.44   222.25800   101.89698   287.08513
   183  H   1.0    0.06    1.05    1.44   226.77407   104.59615   286.59383
   184  H   1.0    0.05    1.00    1.43   228.83798   100.41653   286.45012
   185  H   1.0    0.06    1.00    1.43   226.30844   100.34442   288.65391
   186  H   1.0    0.07    1.01    1.43   225.90751    98.96518   285.63536
   187  N   5.0   -0.21    3.23    1.96   206.97519   117.58320   280.05433
   188  C   4.0    0.03    4.31    4.21   207.14104   115.51278   281.82972
   189  C   4.0    0.08    3.22    3.04   208.01091   116.49439   284.41627
   190  O   6.0   -0.30    1.11    1.80   206.93107   115.94964   286.38572
   191  C   4.0   -0.03    4.33    4.26   208.95363   113.46109   280.84050
   192  C   4.0   -0.05    4.19    3.98   208.14955   112.56873   278.20325
   193  C   4.0   -0.07    4.13    3.87   209.02562   111.28351   282.72926
   194  C   4.0   -0.07    4.01    3.64   210.14564   110.92700   276.92709
   195  H   1.0    0.08    1.03    1.43   208.61140   118.16541   279.26077
   196  H   1.0    0.05    1.05    1.44   205.22672   114.76094   282.07159
   197  H   1.0    0.04    1.05    1.44   210.83291   114.31907   280.70708
   198  H   1.0    0.04    1.03    1.43   206.37801   111.52497   278.35706
   199  H   1.0    0.04    1.03    1.43   207.80940   114.22040   277.01620
   200  H   1.0    0.06    1.00    1.43   210.41024   109.88774   282.14955
   201  H   1.0    0.05    1.01    1.43   209.52781   112.00649   284.58290
   202  H   1.0    0.04    1.00    1.43   207.16969   110.41152   282.82217
   203  H   1.0    0.05    1.00    1.43   209.47180   110.31687   275.08572
   204  H   1.0    0.05    1.00    1.43   211.87856   111.99850   276.65551
   205  H   1.0    0.06    1.00    1.43   210.58974   109.26434   278.04319
   206  H   1.0    0.09    1.07    1.44   212.80437   120.15092   298.77144
   207  H   1.0    0.07    1.05    1.44   208.65013   105.53222   306.93748
   208  H   1.0    0.10    1.07    1.44   204.11680   107.50480   303.17965
   209  H   1.0    0.08    1.05    1.44   225.35008   102.31287   281.56502
   210  H   1.0    0.09    1.08    1.44   205.96601   117.14072   278.75883
   211  H   1.0    0.05    1.05    1.44   209.51788   117.62803   284.53865

  Z AO/shell   Hii/eV     exponent
  1     Wed Apr 25 08:07:45 CEST 2018   EN: 2.200 GM2: 0.406  GM3: 0.0800  RAES: 1.40
     1s    -10.707211    1.230000
  6     Wed Apr 25 08:07:45 CEST 2018   EN: 2.550 GM2: 0.538  GM3: 0.1500  RAES: 3.00
     2s    -13.970922    2.096432
     2p    -10.063292    1.800000
  7     Wed Apr 25 08:07:45 CEST 2018   EN: 3.040 GM2: 0.461  GM3:-0.0640  RAES: 1.90
     2s    -16.686243    2.339881
     2p    -12.523956    2.014332
  8     Wed Apr 25 08:07:45 CEST 2018   EN: 3.440 GM2: 0.452  GM3:-0.0517  RAES: 1.80
     2s    -20.229985    2.439742
     2p    -15.503117    2.137023
 no old-style atom pair restraining (fixing) potential

molecular fragmentation (1/2 indicates fragments):
111111111111111111111111111111111111111111111111111111111111111111111111
111122222222222222222222222222222222222222222222222222222222222222222222
2222222222222222222222222222222222222222222222222222222222222112222
# atoms in fragment 1/2:    78   133
 fragment masses (1/2) :      499.63      944.03
CMA distance (Bohr)    :  15.526
constraining FC (au)   :  0.0500
           ------------------------------------------------- 
          |        Self-Consistent Charge Iterations        |
           ------------------------------------------------- 

 Ncao       : 514
 Nao        : 514
 Nshell     : 312
 Nel        : 574
 T(el)      :   500.0
 intcut     :    35.0
 scfconv/Eh :  0.100E-06
   qconv/e  :  0.100E-04
 intneglect :  0.100E-08
 broydamp   :      0.400
 iter      E             dE          RMSdq      gap      omega  full diag
   1   -329.6912524 -0.329691E+03  0.467E+00    3.33       0.0  T
   2   -330.5540063 -0.862754E+00  0.213E+00    1.70       1.0  T
   3   -330.6113040 -0.572976E-01  0.124E+00    1.84       1.0  T
   4   -330.6613974 -0.500934E-01  0.253E-01    1.37       1.0  T
   5   -330.6643732 -0.297576E-02  0.122E-01    1.54       1.0  T
   6   -330.6647721 -0.398898E-03  0.476E-02    1.50       1.0  T
   7   -330.6648751 -0.103075E-03  0.195E-02    1.49       1.0  T
   8   -330.6648833 -0.813979E-05  0.814E-03    1.48       1.0  T
   9   -330.6648868 -0.348764E-05  0.319E-03    1.47       2.2  T
  10   -330.6648870 -0.233883E-06  0.119E-03    1.47       5.8  T
  11   -330.6648871 -0.589205E-07  0.484E-04    1.47      14.2  T
  12   -330.6648871 -0.838503E-08  0.179E-04    1.47      38.5  T
  13   -330.6648871 -0.809337E-09  0.895E-05    1.47      77.0  T
  14   -330.6648871 -0.255454E-09  0.304E-05    1.47     226.5  T
speedup 11.43
cpu  time for SCC   14.34 s
wall time for SCC    1.25 s

   *** convergence criteria satisfied after 14 iterations ***

          eigenvalues
 #    :         275        276        277        278        279        280        281        282
 occ. :        2.000      2.000      2.000      2.000      2.000      2.000      2.000      2.000
 eps  :       -10.932    -10.880    -10.856    -10.814    -10.752    -10.713    -10.661    -10.638
 #    :         283        284        285        286        287        288        289        290
 occ. :        2.000      2.000      2.000      2.000      2.000      0.000      0.000      0.000
 eps  :       -10.428    -10.124    -10.086     -9.989     -9.658     -8.186     -7.660     -7.523
 #    :         291        292        293        294        295        296        297        298
 occ. :        0.000      0.000      0.000      0.000      0.000      0.000      0.000      0.000
 eps  :        -6.698     -6.494     -6.388     -6.332     -6.264     -6.223     -6.165     -6.114


   #   Z            q   n(s)   n(p)   n(d)      C6AA      α(0)
   1   7 N     -0.382  1.310  4.072  0.000    29.868     8.117
   2   6 C      0.034  1.059  2.907  0.000    20.026     6.374
   3   6 C      0.272  1.047  2.680  0.000    22.398     7.750
   4   8 O     -0.456  1.739  4.717  0.000    22.829     6.406
   5   6 C     -0.073  1.062  3.011  0.000    21.895     6.661
   6   6 C     -0.010  1.055  2.954  0.000    20.716     6.474
   7   6 C     -0.124  1.046  3.079  0.000    22.936     6.828
   8   6 C     -0.116  1.041  3.075  0.000    22.772     6.805
   9   1 H      0.160  0.840  0.000  0.000     1.336     1.810
  10   1 H      0.011  0.989  0.000  0.000     2.868     2.649
  11   1 H      0.038  0.962  0.000  0.000     2.470     2.458
  12   1 H      0.053  0.947  0.000  0.000     2.289     2.366
  13   1 H      0.034  0.966  0.000  0.000     2.531     2.488
  14   1 H      0.035  0.965  0.000  0.000     2.514     2.480
  15   1 H      0.041  0.959  0.000  0.000     2.433     2.439
  16   1 H      0.048  0.952  0.000  0.000     2.342     2.393
  17   1 H      0.031  0.969  0.000  0.000     2.567     2.505
  18   1 H      0.032  0.968  0.000  0.000     2.565     2.505
  19   1 H      0.059  0.941  0.000  0.000     2.206     2.323
  20   7 N     -0.178  1.236  3.942  0.000    24.856     7.405
  21   6 C      0.010  1.064  2.926  0.000    20.418     6.435
  22   6 C      0.263  1.045  2.693  0.000    22.567     7.779
  23   8 O     -0.478  1.748  4.730  0.000    23.294     6.471
  24   6 C     -0.085  1.060  3.024  0.000    22.118     6.695
  25   6 C     -0.091  1.057  3.035  0.000    22.238     6.714
  26   6 C     -0.031  1.055  2.977  0.000    21.212     6.572
  27   7 N     -0.137  1.214  3.923  0.000    23.972     7.272
  28   6 C      0.233  1.018  2.749  0.000    23.108     7.870
  29   7 N     -0.246  1.225  4.021  0.000    26.406     7.632
  30   7 N     -0.259  1.234  4.025  0.000    26.733     7.679
  31   1 H      0.195  0.805  0.000  0.000     1.132     1.667
  32   1 H      0.089  0.911  0.000  0.000     1.892     2.151
  33   1 H      0.072  0.928  0.000  0.000     2.060     2.245
  34   1 H      0.059  0.941  0.000  0.000     2.206     2.322
  35   1 H      0.065  0.935  0.000  0.000     2.139     2.287
  36   1 H      0.085  0.915  0.000  0.000     1.929     2.172
  37   1 H      0.093  0.907  0.000  0.000     1.846     2.124
  38   1 H      0.087  0.913  0.000  0.000     1.910     2.161
  39   1 H      0.235  0.765  0.000  0.000     0.945     1.523
  40   1 H      0.246  0.754  0.000  0.000     0.899     1.485
  41   1 H      0.249  0.751  0.000  0.000     0.885     1.474
  42   1 H      0.247  0.753  0.000  0.000     0.893     1.480
  43   1 H      0.252  0.748  0.000  0.000     0.875     1.465
  44   7 N     -0.172  1.242  3.929  0.000    24.714     7.383
  45   6 C      0.012  1.067  2.920  0.000    20.369     6.426
  46   6 C      0.273  1.045  2.682  0.000    22.386     7.748
  47   8 O     -0.469  1.750  4.719  0.000    23.105     6.445
  48   6 C     -0.022  1.062  2.960  0.000    20.929     6.507
  49   6 C     -0.072  1.054  3.017  0.000    21.868     6.658
  50   6 C     -0.107  1.036  3.070  0.000    22.592     6.777
  51   6 C     -0.114  1.034  3.079  0.000    22.735     6.800
  52   1 H      0.224  0.776  0.000  0.000     0.991     1.559
  53   1 H      0.072  0.928  0.000  0.000     2.062     2.246
  54   1 H      0.063  0.937  0.000  0.000     2.168     2.303
  55   1 H      0.057  0.943  0.000  0.000     2.237     2.339
  56   1 H      0.050  0.950  0.000  0.000     2.317     2.380
  57   1 H      0.044  0.956  0.000  0.000     2.400     2.423
  58   1 H      0.027  0.973  0.000  0.000     2.625     2.533
  59   1 H      0.033  0.967  0.000  0.000     2.544     2.494
  60   1 H      0.044  0.956  0.000  0.000     2.393     2.419
  61   1 H      0.033  0.967  0.000  0.000     2.539     2.492
  62   1 H      0.041  0.959  0.000  0.000     2.432     2.439
  63   7 N     -0.184  1.246  3.938  0.000    24.984     7.424
  64   6 C      0.029  1.057  2.913  0.000    20.097     6.385
  65   6 C      0.201  1.087  2.711  0.000    23.712     7.975
  66   8 O     -0.367  1.767  4.600  0.000    21.034     6.149
  67   6 C     -0.114  1.065  3.049  0.000    22.679     6.780
  68   6 C      0.285  1.034  2.680  0.000    22.162     7.708
  69   8 O     -0.497  1.753  4.744  0.000    23.724     6.530
  70   7 N     -0.274  1.260  4.014  0.000    27.082     7.729
  71   1 H      0.220  0.780  0.000  0.000     1.009     1.573
  72   1 H      0.097  0.903  0.000  0.000     1.810     2.104
  73   1 H      0.093  0.907  0.000  0.000     1.855     2.130
  74   1 H      0.098  0.902  0.000  0.000     1.803     2.100
  75   1 H      0.237  0.763  0.000  0.000     0.938     1.517
  76   1 H      0.239  0.761  0.000  0.000     0.927     1.508
  77   7 N     -0.401  1.316  4.085  0.000    30.401     8.189
  78   6 C      0.031  1.056  2.913  0.000    20.068     6.381
  79   6 C      0.264  1.051  2.685  0.000    22.552     7.777
  80   8 O     -0.489  1.734  4.755  0.000    23.551     6.507
  81   6 C     -0.123  1.044  3.079  0.000    22.916     6.825
  82   1 H      0.173  0.827  0.000  0.000     1.252     1.753
  83   1 H      0.036  0.964  0.000  0.000     2.500     2.472
  84   1 H      0.062  0.938  0.000  0.000     2.179     2.308
  85   1 H      0.062  0.938  0.000  0.000     2.174     2.306
  86   1 H      0.059  0.941  0.000  0.000     2.210     2.325
  87   7 N     -0.167  1.238  3.929  0.000    24.618     7.369
  88   6 C      0.007  1.067  2.927  0.000    20.469     6.443
  89   6 C      0.271  1.046  2.684  0.000    22.430     7.755
  90   8 O     -0.468  1.749  4.719  0.000    23.081     6.441
  91   6 C     -0.076  1.051  3.025  0.000    21.949     6.670
  92   6 C     -0.080  1.055  3.025  0.000    22.024     6.682
  93   6 C     -0.100  1.053  3.046  0.000    22.397     6.738
  94   6 C     -0.050  1.059  2.991  0.000    21.573     6.630
  95   7 N     -0.137  1.225  3.911  0.000    23.947     7.268
  96   1 H      0.210  0.790  0.000  0.000     1.055     1.609
  97   1 H      0.084  0.916  0.000  0.000     1.934     2.175
  98   1 H      0.075  0.925  0.000  0.000     2.035     2.231
  99   1 H      0.062  0.938  0.000  0.000     2.171     2.304
 100   1 H      0.064  0.936  0.000  0.000     2.149     2.292
 101   1 H      0.043  0.957  0.000  0.000     2.415     2.430
 102   1 H      0.083  0.917  0.000  0.000     1.946     2.182
 103   1 H      0.094  0.906  0.000  0.000     1.843     2.123
 104   1 H      0.131  0.869  0.000  0.000     1.529     1.933
 105   1 H      0.111  0.889  0.000  0.000     1.692     2.034
 106   1 H      0.295  0.705  0.000  0.000     0.728     1.337
 107   1 H      0.272  0.728  0.000  0.000     0.804     1.404
 108   1 H      0.297  0.703  0.000  0.000     0.723     1.332
 109   7 N     -0.203  1.257  3.946  0.000    25.405     7.486
 110   6 C      0.041  1.057  2.903  0.000    19.896     6.351
 111   6 C      0.300  1.042  2.658  0.000    21.903     7.664
 112   8 O     -0.493  1.744  4.749  0.000    23.636     6.518
 113   6 C     -0.108  1.074  3.034  0.000    22.563     6.763
 114   6 C      0.375  1.021  2.604  0.000    20.651     7.437
 115   8 O     -0.645  1.773  4.871  0.000    27.239     6.997
 116   8 O     -0.632  1.772  4.860  0.000    26.916     6.956
 117   1 H      0.211  0.789  0.000  0.000     1.051     1.606
 118   1 H      0.055  0.945  0.000  0.000     2.262     2.352
 119   1 H      0.046  0.954  0.000  0.000     2.370     2.407
 120   1 H      0.036  0.964  0.000  0.000     2.503     2.474
 121   7 N     -0.198  1.263  3.935  0.000    25.297     7.470
 122   6 C      0.053  1.051  2.896  0.000    19.690     6.317
 123   6 C      0.285  1.043  2.672  0.000    22.174     7.711
 124   8 O     -0.489  1.730  4.758  0.000    23.532     6.504
 125   6 C     -0.096  1.062  3.033  0.000    22.323     6.726
 126   6 C      0.376  1.022  2.602  0.000    20.632     7.433
 127   8 O     -0.623  1.764  4.860  0.000    26.703     6.928
 128   8 O     -0.598  1.760  4.838  0.000    26.079     6.847
 129   1 H      0.204  0.796  0.000  0.000     1.084     1.631
 130   1 H      0.029  0.971  0.000  0.000     2.602     2.523
 131   1 H      0.031  0.969  0.000  0.000     2.572     2.508
 132   1 H      0.055  0.945  0.000  0.000     2.263     2.352
 133   7 N     -0.190  1.253  3.937  0.000    25.115     7.443
 134   6 C      0.031  1.056  2.913  0.000    20.064     6.378
 135   6 C      0.271  1.045  2.684  0.000    22.426     7.755
 136   8 O     -0.473  1.728  4.745  0.000    23.195     6.457
 137   6 C     -0.130  1.043  3.087  0.000    23.040     6.843
 138   1 H      0.210  0.790  0.000  0.000     1.057     1.610
 139   1 H      0.082  0.918  0.000  0.000     1.960     2.189
 140   1 H      0.090  0.910  0.000  0.000     1.880     2.144
 141   1 H      0.077  0.923  0.000  0.000     2.010     2.217
 142   1 H      0.059  0.941  0.000  0.000     2.214     2.327
 143   7 N     -0.178  1.251  3.927  0.000    24.865     7.406
 144   6 C      0.022  1.061  2.917  0.000    20.208     6.401
 145   6 C      0.274  1.040  2.686  0.000    22.369     7.745
 146   8 O     -0.499  1.749  4.750  0.000    23.765     6.536
 147   6 C     -0.130  1.042  3.088  0.000    23.054     6.846
 148   1 H      0.202  0.798  0.000  0.000     1.098     1.641
 149   1 H      0.086  0.914  0.000  0.000     1.917     2.165
 150   1 H      0.069  0.931  0.000  0.000     2.097     2.265
 151   1 H      0.079  0.921  0.000  0.000     1.992     2.207
 152   1 H      0.054  0.946  0.000  0.000     2.276     2.359
 153   7 N     -0.199  1.261  3.938  0.000    25.318     7.473
 154   6 C     -0.017  1.047  2.971  0.000    20.943     6.527
 155   6 C      0.289  1.037  2.674  0.000    22.098     7.698
 156   8 O     -0.495  1.750  4.745  0.000    23.669     6.523
 157   1 H      0.226  0.774  0.000  0.000     0.983     1.553
 158   1 H      0.066  0.934  0.000  0.000     2.128     2.281
 159   1 H      0.083  0.917  0.000  0.000     1.946     2.182
 160   7 N     -0.178  1.239  3.939  0.000    24.849     7.404
 161   6 C      0.024  1.057  2.919  0.000    20.163     6.393
 162   6 C      0.272  1.043  2.685  0.000    22.396     7.750
 163   8 O     -0.508  1.750  4.758  0.000    23.960     6.563
 164   6 C     -0.074  1.055  3.019  0.000    21.907     6.663
 165   6 C     -0.112  1.062  3.050  0.000    22.626     6.771
 166   6 C      0.291  1.036  2.674  0.000    22.074     7.693
 167   8 O     -0.505  1.762  4.742  0.000    23.885     6.552
 168   7 N     -0.271  1.257  4.014  0.000    27.014     7.719
 169   1 H      0.195  0.805  0.000  0.000     1.133     1.668
 170   1 H      0.085  0.915  0.000  0.000     1.931     2.173
 171   1 H      0.071  0.929  0.000  0.000     2.073     2.251
 172   1 H      0.078  0.922  0.000  0.000     2.004     2.214
 173   1 H      0.071  0.929  0.000  0.000     2.076     2.253
 174   1 H      0.095  0.905  0.000  0.000     1.829     2.115
 175   1 H      0.226  0.774  0.000  0.000     0.984     1.554
 176   1 H      0.221  0.779  0.000  0.000     1.006     1.571
 177   7 N     -0.174  1.248  3.926  0.000    24.772     7.392
 178   6 C      0.038  1.057  2.905  0.000    19.938     6.358
 179   6 C      0.219  1.084  2.698  0.000    23.381     7.919
 180   8 O     -0.371  1.749  4.622  0.000    21.104     6.159
 181   6 C     -0.132  1.043  3.089  0.000    23.081     6.850
 182   1 H      0.224  0.776  0.000  0.000     0.993     1.561
 183   1 H      0.087  0.913  0.000  0.000     1.909     2.161
 184   1 H      0.074  0.926  0.000  0.000     2.038     2.233
 185   1 H      0.088  0.912  0.000  0.000     1.895     2.153
 186   1 H      0.067  0.933  0.000  0.000     2.118     2.276
 187   7 N     -0.390  1.318  4.073  0.000    30.107     8.149
 188   6 C      0.029  1.063  2.908  0.000    20.102     6.386
 189   6 C      0.201  1.092  2.707  0.000    23.726     7.977
 190   8 O     -0.366  1.748  4.618  0.000    21.012     6.146
 191   6 C     -0.025  1.069  2.956  0.000    20.981     6.515
 192   6 C     -0.058  1.049  3.008  0.000    21.613     6.619
 193   6 C     -0.128  1.042  3.087  0.000    23.017     6.840
 194   6 C     -0.106  1.035  3.071  0.000    22.589     6.778
 195   1 H      0.161  0.839  0.000  0.000     1.329     1.806
 196   1 H      0.064  0.936  0.000  0.000     2.157     2.297
 197   1 H      0.036  0.964  0.000  0.000     2.502     2.473
 198   1 H      0.037  0.963  0.000  0.000     2.488     2.467
 199   1 H      0.036  0.964  0.000  0.000     2.503     2.474
 200   1 H      0.052  0.948  0.000  0.000     2.297     2.370
 201   1 H      0.046  0.954  0.000  0.000     2.368     2.406
 202   1 H      0.049  0.951  0.000  0.000     2.327     2.386
 203   1 H      0.031  0.969  0.000  0.000     2.572     2.508
 204   1 H      0.033  0.967  0.000  0.000     2.550     2.497
 205   1 H      0.041  0.959  0.000  0.000     2.438     2.442
 206   1 H      0.174  0.826  0.000  0.000     1.248     1.750
 207   1 H      0.086  0.914  0.000  0.000     1.920     2.167
 208   1 H      0.171  0.829  0.000  0.000     1.266     1.763
 209   1 H      0.057  0.943  0.000  0.000     2.230     2.335
 210   1 H      0.182  0.818  0.000  0.000     1.201     1.717
 211   1 H      0.073  0.927  0.000  0.000     2.048     2.238

 Mol. C6AA /au·bohr⁶  :     399141.530049
 Mol. C8AA /au·bohr⁸  :    8761415.788894
 Mol. α(0) /au        :        940.123653

 
molecular dipole:
                 x           y           z       tot (Debye)
 q only:        8.154      34.457      17.888
   full:        5.852      33.072      18.478      97.436
molecular quadrupole (traceless):
                xx          xy          yy          xz          yz          zz
 q only:    -5299.512   12395.931     151.986    9729.394   18269.522    5147.525
  q+dip:    -6320.125   11592.558     187.888    8904.677   17757.557    6132.237
   full:    -6322.022   11592.099     189.465    8903.861   17759.950    6132.557
speedup 11.67
cpu  time for grad   15.49 s
wall time for grad    1.33 s

SCC energy    :    -330.6726450
rep           :       3.8661827
ES            :       1.2521224
AES           :      -0.0576088
AXC           :       0.1035326
disp          :      -0.2484014
XB            :       0.0000000
fix           :       0.0000000
Gborn         :       0.0000000
Gsasa         :       0.0000000
Ghb           :       0.0000000
Gshift        :       0.0000000
Gsolv         :      -0.3895420     -244.44
Etot ala COSMO:    -330.6726450
grad norm     :       0.3865602
total E       :    -326.7894557
atomizationE  :      58.5813199    36760.33
(atE without considering molecular charge,
 total energy contains solvation terms)
H-L gap (eV)  :          1.4719

------------------------------------------------------------------------
 * finished run on 2019/02/13 at 00:18:40.724     
------------------------------------------------------------------------
 total:
 * wall-time:     0 d,  0 h,  0 min,  1.455 sec
 *  cpu-time:     0 d,  0 h,  0 min, 17.324 sec
 * ratio c/w:    11.904 speedup
 SCF:
 * wall-time:     0 d,  0 h,  0 min,  1.378 sec
 *  cpu-time:     0 d,  0 h,  0 min, 16.291 sec
 * ratio c/w:    11.823 speedup

