      -----------------------------------------------------------      
     |                   =====================                   |     
     |                           x T B                           |     
     |                   =====================                   |     
     |                         S. Grimme                         |     
     |          Mulliken Center for Theoretical Chemistry        |     
     |                    University of Bonn                     |     
     |                 Version 6.0.1 (SAW181210)                 |     
      -----------------------------------------------------------      

   This program is distributed in the hope that it will be useful,
   but WITHOUT ANY WARRANTY; without even the implied warranty of
   MERCHANTABILITY or FITNESS FOR A PARTICULAR PURPOSE.
   
   FOR NON-COMMERCIAL, ACADEMIA USE ONLY.
   
   Cite this work as:
   S. Grimme, C. Bannwarth, P. Shushkov, J. Comput. Theory Chem., 2017,
   13, 1989-2009.
   C. Bannwarth, S. Ehlert and S. Grimme., ChemRxiv, 2018, preprint.
   http://doi.org/10.26434/chemrxiv.7246238.v1
   
   for sTDA-xTB:
   S. Grimme and C. Bannwarth, J. Chem. Phys., 2016, 145, 054103.
   
   in the mass-spec context:
   V. Asgeirsson, C. Bauer and S. Grimme, Chem. Sci., 2017, 8, 4879.
   
   if GBSA is used:
   P. Shushkov, F. März and S. Grimme, unpublished.
   
   for ANC optimizer:
   S. Grimme, unpublished.
   Rational Function algorithm used in ANCopt:
   F. Eckert, P. Pulay, H.-J. Werner, J. Comput. Chem., 1997, 18, 1473.
   
   with help from (in alphabetical order)
   C. Bannwarth, F. Bohle, G. Brandenburg, E. Caldeweyher, M. Checinski,
   S. Dohm, S. Ehlert, S. Ehrlich, F. März, H. Neugebauer, J. Pisarek,
   P. Pracht, P. Shushkov, and S. Spicher.
   
 * started run on 2019/03/14 at 15:07:36.581     
========================================================================
 # omp threads = 1
========================================================================
number of atoms            : 154
number of electrons        : 394
charge                     : 0
spin                       : .0
first test random number   : .7589
           ------------------------------------------------- 
          |                 G F N 2 - x T B                 |
          | Geometry, Frequencies, Noncovalent interactions |
          |            JCTC 2018 parametrisation            |
           ------------------------------------------------- 
 
      method parameters     
 k(s)        :  1.8500
 k(p)        :  2.2300
 k(d)        :  2.2300
 k(f)        :  2.0000
 kEN (H0ij)  : -2.0000
 D4 a1       :  0.5200
 D4 a2       :  5.0000
 D4 s6       :  1.0000
 D4 s8       :  2.7000
 D4 s9       :  5.0000
 alphaj      :  2.0000

 Solvent             : h2o
 Using internal parameter file: .param_gbsa2_h2o
 Gsolv ref. state (COSMO-RS): gsolv [1 M gas/solution]
 temperature (mdtemp)       :    298.150000000000     
 dielectric constant        :    80.2000000000000     
 rho                        :    1.00000000000000     
 mass                       :    18.0000000000000     
 surface tension            :    15.5689454083859     
 probe radius               :   0.975313790000000     
 vdW radii scaling          :    1.00000000000000     
 Gshift (Eh)                :   1.857443126794793E-003
 c1                         :    1.55243817000000     
 soset                      :   0.130326360000000     
 HB correction              :  T

            Z     q(EN)     CN     RAES       Cart. coordinates
     1  N   5.0   -0.21    3.20    1.96    98.51779    99.75179    86.44088
     2  C   4.0    0.03    4.32    4.24    99.43630   101.97815    87.73682
     3  C   4.0    0.07    3.22    3.04    97.59021   103.10078    89.63607
     4  O   6.0   -0.29    1.13    1.80    98.43357   104.08665    91.56748
     5  C   4.0   -0.03    4.28    4.16   100.26031   103.95352    85.76368
     6  C   4.0   -0.07    4.15    3.91   100.97724   106.42545    87.05076
     7  C   4.0   -0.08    4.12    3.85   102.52960   102.96233    84.27422
     8  H   1.0    0.08    1.03    1.43    98.06358   100.02409    84.59276
     9  H   1.0    0.05    1.06    1.44   101.11119   101.46493    88.85526
    10  H   1.0    0.04    1.05    1.44    98.64215   104.24329    84.50534
    11  H   1.0    0.03    1.01    1.43   101.69311   107.74049    85.65583
    12  H   1.0    0.05    1.00    1.43    99.36572   107.27687    87.99353
    13  H   1.0    0.05    1.00    1.43   102.42783   106.09811    88.46729
    14  H   1.0    0.04    1.00    1.43   103.09249   104.37650    82.89904
    15  H   1.0    0.04    1.00    1.43   104.10361   102.64950    85.55687
    16  H   1.0    0.04    1.00    1.43   102.01438   101.24862    83.27807
    17  N   5.0   -0.22    3.24    1.97   106.95975   122.88237    94.11706
    18  C   4.0    0.03    4.32    4.23   105.94952   122.03526    91.73492
    19  C   4.0    0.07    3.21    3.04   108.06150   122.22517    89.78034
    20  O   6.0   -0.33    1.30    1.80   108.17809   120.63768    88.09737
    21  C   4.0   -0.03    4.28    4.16   103.44528   123.34852    91.01570
    22  C   4.0   -0.05    4.20    4.00   101.66962   123.56125    93.31362
    23  C   4.0   -0.08    4.13    3.86   102.09848   121.88371    88.92571
    24  C   4.0   -0.08    4.03    3.67   101.14637   121.05659    94.64418
    25  H   1.0    0.08    1.03    1.43   106.29945   124.52143    94.82655
    26  H   1.0    0.04    1.06    1.44   105.60037   119.99200    91.90732
    27  H   1.0    0.04    1.05    1.44   103.85107   125.26248    90.33516
    28  H   1.0    0.04    1.03    1.43   102.42390   124.90050    94.68709
    29  H   1.0    0.04    1.03    1.43    99.87519   124.33057    92.64706
    30  H   1.0    0.04    1.00    1.43   100.36402   122.83912    88.38243
    31  H   1.0    0.05    1.02    1.43   103.24408   121.69174    87.24195
    32  H   1.0    0.03    1.00    1.43   101.61462   119.99848    89.57518
    33  H   1.0    0.04    1.00    1.43    99.96138   121.36897    96.29224
    34  H   1.0    0.04    1.00    1.43   100.15072   119.75493    93.40753
    35  H   1.0    0.04    1.00    1.43   102.87175   120.15601    95.29945
    36  N   5.0   -0.19    3.24    1.96   113.12849   120.06530    86.64579
    37  C   4.0    0.03    4.37    4.33   113.24786   118.18180    84.65622
    38  C   4.0    0.15    3.44    3.09   110.63118   117.62575    83.59228
    39  O   6.0   -0.34    1.46    1.80   110.31834   117.78627    81.29979
    40  C   4.0   -0.04    4.32    4.23   114.58160   115.74936    85.41931
    41  C   4.0   -0.02    3.55    3.14   117.34789   116.17758    85.94951
    42  C   4.0   -0.05    3.47    3.10   118.79875   114.23325    86.95604
    43  C   4.0   -0.05    3.53    3.13   118.53464   118.44803    85.43366
    44  C   4.0   -0.04    3.45    3.09   121.34572   114.54964    87.40346
    45  C   4.0   -0.05    3.43    3.09   121.07613   118.79344    85.88908
    46  C   4.0    0.07    3.42    3.09   122.54289   116.82496    86.81884
    47  O   6.0   -0.24    2.10    1.84   125.07963   116.93698    87.26718
    48  H   1.0    0.08    1.02    1.43   113.92781   119.69885    88.33396
    49  H   1.0    0.04    1.07    1.44   114.31614   118.94932    83.04476
    50  H   1.0    0.04    1.02    1.43   113.67318   114.85100    87.03959
    51  H   1.0    0.04    1.03    1.43   114.42034   114.46209    83.80616
    52  H   1.0    0.05    1.03    1.43   117.92426   112.42841    87.32949
    53  H   1.0    0.04    1.05    1.44   117.55364   120.01127    84.57998
    54  H   1.0    0.06    1.03    1.43   122.47504   113.05073    88.20069
    55  H   1.0    0.05    1.03    1.43   121.81136   120.63890    85.47108
    56  H   1.0    0.12    1.01    1.43   125.90815   118.41227    86.51601
    57  N   5.0   -0.14    3.50    2.08   108.82343   116.85886    85.14927
    58  C   4.0    0.03    4.40    4.37   106.20009   116.51573    84.37193
    59  C   4.0    0.16    3.50    3.12   105.30814   118.73883    82.74105
    60  O   6.0   -0.33    1.39    1.80   104.30879   118.36960    80.69201
    61  C   4.0   -0.05    4.33    4.26   104.57653   116.15672    86.75078
    62  C   4.0   -0.03    4.16    3.92   101.80339   115.33697    86.41313
    63  C   4.0   -0.07    4.15    3.90   100.49013   116.55638    84.16654
    64  C   4.0   -0.08    4.12    3.84   101.60329   112.46790    86.22790
    65  H   1.0    0.09    1.09    1.44   109.17328   116.96104    87.02137
    66  H   1.0    0.04    1.06    1.44   106.06575   114.87306    83.12316
    67  H   1.0    0.04    1.04    1.43   105.45369   114.70165    87.91944
    68  H   1.0    0.05    1.04    1.43   104.65361   117.93794    87.76291
    69  H   1.0    0.03    1.06    1.44   100.79062   115.91696    88.12415
    70  H   1.0    0.04    1.00    1.43    98.48844   116.10247    84.17541
    71  H   1.0    0.05    1.00    1.43   100.66487   118.60285    84.21305
    72  H   1.0    0.05    1.01    1.43   101.30531   115.84704    82.42097
    73  H   1.0    0.04    1.00    1.43    99.63149   111.91328    86.06938
    74  H   1.0    0.03    1.00    1.43   102.59131   111.76555    84.57002
    75  H   1.0    0.04    1.00    1.43   102.41077   111.57848    87.89489
    76  N   5.0   -0.15    3.56    2.12   105.60328   121.05520    83.70317
    77  C   4.0    0.03    4.42    4.42   104.74467   123.34012    82.46212
    78  C   4.0    0.15    3.45    3.09   106.01036   123.70191    79.89098
    79  O   6.0   -0.30    1.23    1.80   105.04023   124.98791    78.22500
    80  C   4.0   -0.05    4.35    4.29   105.11386   125.59213    84.25312
    81  C   4.0   -0.03    4.07    3.75   105.05798   128.16502    82.97962
    82  S   6.0   -0.05    2.48    3.10   105.12466   130.65976    85.34127
    83  C   4.0   -0.07    3.88    3.43   108.24706   130.15603    86.73272
    84  H   1.0    0.11    1.14    1.45   106.72940   121.26624    85.23875
    85  H   1.0    0.05    1.13    1.45   102.73032   123.11893    82.02431
    86  H   1.0    0.04    1.04    1.43   103.60955   125.55097    85.66278
    87  H   1.0    0.04    1.04    1.43   106.93824   125.37703    85.19044
    88  H   1.0    0.05    1.06    1.44   106.64971   128.43263    81.69934
    89  H   1.0    0.05    1.07    1.44   103.30490   128.44951    81.93855
    90  H   1.0    0.04    1.05    1.44   108.63017   131.83643    87.83919
    91  H   1.0    0.04    1.04    1.43   108.18662   128.50507    87.94618
    92  H   1.0    0.04    1.04    1.43   109.61658   129.94176    85.21931
    93  N   5.0   -0.13    3.61    2.16   108.16231   122.43980    79.61346
    94  C   4.0    0.04    4.46    4.48   109.56956   122.37646    77.29422
    95  C   4.0    0.15    3.43    3.09   108.69626   120.14423    75.67471
    96  O   6.0   -0.28    1.25    1.80   107.89668   120.59104    73.52969
    97  C   4.0   -0.04    4.32    4.23   112.36427   122.50617    77.98010
    98  C   4.0   -0.01    3.57    3.15   112.92447   124.89904    79.44105
    99  C   4.0   -0.04    3.47    3.10   114.76326   124.84314    81.30643
   100  C   4.0   -0.04    3.49    3.11   111.75434   127.20080    78.91951
   101  C   4.0   -0.04    3.38    3.07   115.46082   127.03229    82.55332
   102  C   4.0   -0.04    3.37    3.07   112.41201   129.38194    80.21273
   103  C   4.0   -0.04    3.37    3.07   114.30479   129.31370    82.01454
   104  H   1.0    0.10    1.11    1.44   109.00719   121.60859    81.11453
   105  H   1.0    0.06    1.07    1.44   109.04887   124.04131    76.17664
   106  H   1.0    0.05    1.03    1.43   112.87495   120.85528    79.11160
   107  H   1.0    0.05    1.02    1.43   113.51751   122.45846    76.26853
   108  H   1.0    0.04    1.03    1.43   115.74627   123.09470    81.70833
   109  H   1.0    0.06    1.03    1.43   110.35468   127.34898    77.44099
   110  H   1.0    0.05    1.03    1.43   116.97273   126.93654    83.90974
   111  H   1.0    0.05    1.03    1.43   111.47585   131.14710    79.78495
   112  H   1.0    0.05    1.03    1.43   114.91030   131.02879    82.93199
   113  N   5.0   -0.14    3.53    2.10   108.70799   117.85783    76.68804
   114  C   4.0    0.04    4.49    4.52   107.88154   115.65699    75.29557
   115  C   4.0    0.16    3.54    3.13   105.18415   116.06960    74.40349
   116  O   6.0   -0.28    1.25    1.80   104.47836   115.16486    72.38819
   117  C   4.0   -0.02    4.29    4.18   108.13965   113.08496    76.69355
   118  C   4.0   -0.04    4.19    3.98   105.87160   112.59834    78.45112
   119  C   4.0   -0.07    4.11    3.83   110.72308   112.85272    77.95759
   120  C   4.0   -0.08    4.01    3.64   106.13811   110.25558    80.11269
   121  H   1.0    0.12    1.19    1.46   109.38604   117.62833    78.46183
   122  H   1.0    0.06    1.06    1.44   109.02896   115.53454    73.57103
   123  H   1.0    0.04    1.06    1.44   108.08643   111.64111    75.20850
   124  H   1.0    0.06    1.03    1.43   105.49452   114.25048    79.61465
   125  H   1.0    0.05    1.03    1.43   104.22380   112.32401    77.23863
   126  H   1.0    0.04    1.00    1.43   110.95811   110.98441    78.77462
   127  H   1.0    0.04    1.00    1.43   112.20691   113.10957    76.55812
   128  H   1.0    0.06    1.02    1.43   110.94753   114.25591    79.42895
   129  H   1.0    0.03    1.00    1.43   104.32701   109.74943    80.94561
   130  H   1.0    0.04    1.00    1.43   106.73149   108.68289    78.93566
   131  H   1.0    0.04    1.00    1.43   107.46140   110.54016    81.65961
   132  N   5.0   -0.14    3.52    2.09   103.65947   117.44849    75.85421
   133  C   4.0    0.04    4.35    4.29   101.04985   117.78339    75.10473
   134  C   4.0    0.10    3.27    3.05   100.95022   119.35803    72.68632
   135  O   6.0   -0.27    1.12    1.80    99.40233   118.88458    71.03241
   136  C   4.0   -0.04    4.31    4.22    99.39802   118.95976    77.17433
   137  C   4.0   -0.03    4.09    3.79    99.92969   121.75910    77.52711
   138  S   6.0   -0.05    2.57    3.10    98.53096   123.03186    80.39902
   139  C   4.0   -0.07    3.89    3.44    95.34346   123.56300    79.28628
   140  H   1.0    0.12    1.16    1.45   104.19116   117.99599    77.61707
   141  H   1.0    0.06    1.06    1.44   100.25355   115.92641    74.62322
   142  H   1.0    0.04    1.03    1.43    97.42303   118.66783    76.65348
   143  H   1.0    0.05    1.04    1.43    99.75693   117.98749    78.95557
   144  H   1.0    0.07    1.09    1.44   101.95022   122.06929    77.70989
   145  H   1.0    0.05    1.07    1.44    99.21210   122.89402    75.96647
   146  H   1.0    0.04    1.05    1.44    94.34393   124.53070    80.79086
   147  H   1.0    0.04    1.04    1.43    95.43076   124.74236    77.60744
   148  H   1.0    0.04    1.04    1.43    94.46795   121.75353    78.88078
   149  H   1.0    0.09    1.07    1.44    99.71093    98.54036    86.47829
   150  H   1.0    0.05    1.04    1.43    95.73146   103.02887    89.30301
   151  H   1.0    0.09    1.08    1.44   106.64131   121.71793    95.31507
   152  H   1.0    0.05    1.04    1.44   109.32245   123.62877    89.88510
   153  H   1.0    0.09    1.07    1.44   113.89208   121.49231    86.12318
   154  H   1.0    0.07    1.05    1.44   102.15676   120.79177    72.44197

  Z AO/shell   Hii/eV     exponent
  1     Wed Apr 25 08:07:45 CEST 2018   EN: 2.200 GM2: 0.406  GM3: 0.0800  RAES: 1.40
     1s    -10.707211    1.230000
  6     Wed Apr 25 08:07:45 CEST 2018   EN: 2.550 GM2: 0.538  GM3: 0.1500  RAES: 3.00
     2s    -13.970922    2.096432
     2p    -10.063292    1.800000
  7     Wed Apr 25 08:07:45 CEST 2018   EN: 3.040 GM2: 0.461  GM3:-0.0640  RAES: 1.90
     2s    -16.686243    2.339881
     2p    -12.523956    2.014332
  8     Wed Apr 25 08:07:45 CEST 2018   EN: 3.440 GM2: 0.452  GM3:-0.0517  RAES: 1.80
     2s    -20.229985    2.439742
     2p    -15.503117    2.137023
 16     Tue Apr 24 11:44:34 CEST 2018   EN: 2.580 GM2: 0.340  GM3:-0.0502  RAES: 3.10
     3s    -20.029654    1.981333
     3p    -11.377694    2.025643
     3d     -0.420282    1.702555
 no old-style atom pair restraining (fixing) potential

molecular fragmentation (1/2 indicates fragments):
111111111111111122222222222222222222222222222222222222222222222222222222
222222222222222222222222222222222222222222222222222222222222222222222222
2222112222
# atoms in fragment 1/2:    18   136
 fragment masses (1/2) :      101.15      916.24
CMA distance (Bohr)    :  19.605
constraining FC (au)   :  0.0500
           ------------------------------------------------- 
          |        Self-Consistent Charge Iterations        |
           ------------------------------------------------- 

 Ncao       : 376
 Nao        : 374
 Nshell     : 226
 Nel        : 394
 T(el)      :   500.0
 intcut     :    35.0
 scfconv/Eh :  0.100E-06
   qconv/e  :  0.100E-04
 intneglect :  0.100E-08
 broydamp   :      0.400
 iter      E             dE          RMSdq      gap      omega  full diag
   1   -220.9959196 -0.220996E+03  0.429E+00    3.00       0.0  T
   2   -221.3878044 -0.391885E+00  0.211E+00    1.78       1.0  T
   3   -221.4036487 -0.158443E-01  0.112E+00    2.14       1.0  T
   4   -221.4390903 -0.354416E-01  0.238E-01    1.67       1.0  T
   5   -221.4405625 -0.147224E-02  0.115E-01    1.75       1.0  T
   6   -221.4408433 -0.280823E-03  0.501E-02    1.75       1.0  T
   7   -221.4409358 -0.924931E-04  0.211E-02    1.74       1.0  T
   8   -221.4409444 -0.853169E-05  0.966E-03    1.75       1.0  T
   9   -221.4409468 -0.246310E-05  0.406E-03    1.75       2.0  T
  10   -221.4409472 -0.398431E-06  0.162E-03    1.75       5.0  T
  11   -221.4409473 -0.527499E-07  0.809E-04    1.75      10.0  T
  12   -221.4409473 -0.871435E-08  0.360E-04    1.75      22.4  T
  13   -221.4409473 -0.428895E-08  0.190E-04    1.75      42.4  T
  14   -221.4409473 -0.729386E-09  0.872E-05    1.75      92.4  T
  15   -221.4409473 -0.162714E-09  0.363E-05    1.75     221.7  T
speedup  1.00
cpu  time for SCC    0.57 s
wall time for SCC    0.57 s

   *** convergence criteria satisfied after 15 iterations ***

          eigenvalues
 #    :         185        186        187        188        189        190        191        192
 occ. :        2.000      2.000      2.000      2.000      2.000      2.000      2.000      2.000
 eps  :       -11.112    -11.106    -10.994    -10.965    -10.917    -10.747    -10.690    -10.381
 #    :         193        194        195        196        197        198        199        200
 occ. :        2.000      2.000      2.000      2.000      2.000      0.000      0.000      0.000
 eps  :       -10.149    -10.024     -9.967     -9.842     -9.752     -8.005     -7.883     -7.649
 #    :         201        202        203        204        205        206        207        208
 occ. :        0.000      0.000      0.000      0.000      0.000      0.000      0.000      0.000
 eps  :        -6.593     -6.355     -6.340     -6.326     -6.247     -6.148     -5.994     -5.891


   #   Z            q   n(s)   n(p)   n(d)      C6AA      α(0)
   1   7 N     -0.394  1.322  4.072  0.000    30.207     8.163
   2   6 C      0.034  1.059  2.907  0.000    20.011     6.371
   3   6 C      0.201  1.089  2.710  0.000    23.725     7.977
   4   8 O     -0.384  1.761  4.623  0.000    21.367     6.197
   5   6 C     -0.014  1.066  2.948  0.000    20.797     6.486
   6   6 C     -0.119  1.040  3.079  0.000    22.830     6.812
   7   6 C     -0.116  1.041  3.075  0.000    22.781     6.805
   8   1 H      0.163  0.837  0.000  0.000     1.318     1.798
   9   1 H      0.055  0.945  0.000  0.000     2.260     2.351
  10   1 H      0.037  0.963  0.000  0.000     2.494     2.470
  11   1 H      0.059  0.941  0.000  0.000     2.216     2.328
  12   1 H      0.031  0.969  0.000  0.000     2.570     2.507
  13   1 H      0.048  0.952  0.000  0.000     2.351     2.398
  14   1 H      0.051  0.949  0.000  0.000     2.311     2.377
  15   1 H      0.049  0.951  0.000  0.000     2.326     2.385
  16   1 H      0.043  0.957  0.000  0.000     2.403     2.424
  17   7 N     -0.387  1.309  4.077  0.000    30.001     8.135
  18   6 C      0.031  1.060  2.908  0.000    20.067     6.381
  19   6 C      0.194  1.097  2.708  0.000    23.848     7.998
  20   8 O     -0.371  1.742  4.629  0.000    21.115     6.161
  21   6 C     -0.021  1.068  2.952  0.000    20.906     6.504
  22   6 C     -0.058  1.050  3.008  0.000    21.614     6.619
  23   6 C     -0.126  1.040  3.086  0.000    22.970     6.833
  24   6 C     -0.110  1.034  3.075  0.000    22.658     6.788
  25   1 H      0.165  0.835  0.000  0.000     1.305     1.790
  26   1 H      0.069  0.931  0.000  0.000     2.096     2.264
  27   1 H      0.037  0.963  0.000  0.000     2.487     2.466
  28   1 H      0.036  0.964  0.000  0.000     2.498     2.472
  29   1 H      0.046  0.954  0.000  0.000     2.376     2.411
  30   1 H      0.047  0.953  0.000  0.000     2.356     2.400
  31   1 H      0.042  0.958  0.000  0.000     2.427     2.436
  32   1 H      0.056  0.944  0.000  0.000     2.250     2.346
  33   1 H      0.036  0.964  0.000  0.000     2.503     2.474
  34   1 H      0.043  0.957  0.000  0.000     2.404     2.425
  35   1 H      0.039  0.961  0.000  0.000     2.464     2.455
  36   7 N     -0.375  1.299  4.076  0.000    29.697     8.093
  37   6 C      0.033  1.055  2.912  0.000    20.039     6.376
  38   6 C      0.263  1.050  2.687  0.000    22.560     7.778
  39   8 O     -0.505  1.732  4.773  0.000    23.894     6.554
  40   6 C     -0.076  1.054  3.022  0.000    21.944     6.668
  41   6 C      0.002  1.077  2.922  0.000    27.987     8.678
  42   6 C     -0.044  1.083  2.961  0.000    29.088     8.845
  43   6 C     -0.045  1.077  2.968  0.000    29.109     8.848
  44   6 C     -0.057  1.076  2.981  0.000    29.426     8.896
  45   6 C     -0.077  1.076  3.001  0.000    29.926     8.971
  46   6 C      0.145  1.045  2.810  0.000    24.846     8.169
  47   8 O     -0.444  1.723  4.721  0.000    21.715     6.291
  48   1 H      0.168  0.832  0.000  0.000     1.288     1.778
  49   1 H      0.040  0.960  0.000  0.000     2.451     2.448
  50   1 H      0.064  0.936  0.000  0.000     2.157     2.297
  51   1 H      0.055  0.945  0.000  0.000     2.257     2.349
  52   1 H      0.044  0.956  0.000  0.000     2.391     2.418
  53   1 H      0.039  0.961  0.000  0.000     2.457     2.451
  54   1 H      0.045  0.955  0.000  0.000     2.382     2.413
  55   1 H      0.041  0.959  0.000  0.000     2.436     2.441
  56   1 H      0.347  0.653  0.000  0.000     0.596     1.213
  57   7 N     -0.155  1.249  3.907  0.000    24.364     7.331
  58   6 C      0.014  1.066  2.920  0.000    20.346     6.424
  59   6 C      0.286  1.042  2.672  0.000    22.162     7.709
  60   8 O     -0.482  1.735  4.747  0.000    23.385     6.484
  61   6 C     -0.096  1.063  3.033  0.000    22.319     6.725
  62   6 C     -0.012  1.057  2.955  0.000    20.763     6.481
  63   6 C     -0.114  1.038  3.076  0.000    22.737     6.799
  64   6 C     -0.119  1.044  3.075  0.000    22.836     6.813
  65   1 H      0.237  0.763  0.000  0.000     0.935     1.515
  66   1 H      0.087  0.913  0.000  0.000     1.905     2.159
  67   1 H      0.076  0.924  0.000  0.000     2.022     2.224
  68   1 H      0.076  0.924  0.000  0.000     2.023     2.224
  69   1 H      0.044  0.956  0.000  0.000     2.394     2.420
  70   1 H      0.041  0.959  0.000  0.000     2.430     2.438
  71   1 H      0.035  0.965  0.000  0.000     2.513     2.479
  72   1 H      0.039  0.961  0.000  0.000     2.460     2.453
  73   1 H      0.042  0.958  0.000  0.000     2.422     2.433
  74   1 H      0.039  0.961  0.000  0.000     2.458     2.452
  75   1 H      0.048  0.952  0.000  0.000     2.351     2.398
  76   7 N     -0.197  1.253  3.944  0.000    25.273     7.466
  77   6 C      0.015  1.063  2.922  0.000    20.325     6.420
  78   6 C      0.279  1.037  2.684  0.000    22.278     7.729
  79   8 O     -0.505  1.757  4.747  0.000    23.885     6.552
  80   6 C     -0.071  1.055  3.016  0.000    21.823     6.645
  81   6 C      0.001  1.058  2.940  0.000    20.563     6.457
  82  16 S     -0.228  1.920  4.258  0.050   150.810    20.669
  83   6 C     -0.064  1.056  3.008  0.000    21.806     6.662
  84   1 H      0.230  0.770  0.000  0.000     0.965     1.539
  85   1 H      0.092  0.908  0.000  0.000     1.858     2.132
  86   1 H      0.084  0.916  0.000  0.000     1.940     2.178
  87   1 H      0.056  0.944  0.000  0.000     2.245     2.343
  88   1 H      0.035  0.965  0.000  0.000     2.519     2.482
  89   1 H      0.057  0.943  0.000  0.000     2.239     2.340
  90   1 H      0.080  0.920  0.000  0.000     1.981     2.201
  91   1 H      0.064  0.936  0.000  0.000     2.156     2.296
  92   1 H      0.057  0.943  0.000  0.000     2.238     2.339
  93   7 N     -0.175  1.240  3.935  0.000    24.794     7.395
  94   6 C      0.030  1.058  2.913  0.000    20.079     6.380
  95   6 C      0.270  1.043  2.687  0.000    22.437     7.757
  96   8 O     -0.540  1.767  4.773  0.000    24.688     6.662
  97   6 C     -0.079  1.055  3.024  0.000    22.006     6.677
  98   6 C      0.011  1.083  2.906  0.000    27.778     8.645
  99   6 C     -0.041  1.079  2.962  0.000    29.022     8.835
 100   6 C     -0.037  1.078  2.959  0.000    28.925     8.820
 101   6 C     -0.034  1.080  2.954  0.000    28.853     8.809
 102   6 C     -0.030  1.080  2.950  0.000    28.755     8.793
 103   6 C     -0.036  1.080  2.956  0.000    28.886     8.813
 104   1 H      0.207  0.793  0.000  0.000     1.071     1.621
 105   1 H      0.069  0.931  0.000  0.000     2.093     2.263
 106   1 H      0.069  0.931  0.000  0.000     2.092     2.262
 107   1 H      0.061  0.939  0.000  0.000     2.185     2.311
 108   1 H      0.036  0.964  0.000  0.000     2.502     2.473
 109   1 H      0.020  0.980  0.000  0.000     2.734     2.586
 110   1 H      0.049  0.951  0.000  0.000     2.329     2.387
 111   1 H      0.034  0.966  0.000  0.000     2.536     2.490
 112   1 H      0.046  0.954  0.000  0.000     2.368     2.406
 113   7 N     -0.202  1.256  3.946  0.000    25.388     7.483
 114   6 C      0.027  1.062  2.911  0.000    20.120     6.387
 115   6 C      0.288  1.040  2.672  0.000    22.124     7.703
 116   8 O     -0.532  1.757  4.775  0.000    24.495     6.636
 117   6 C     -0.020  1.068  2.952  0.000    20.890     6.501
 118   6 C     -0.063  1.049  3.015  0.000    21.719     6.635
 119   6 C     -0.125  1.039  3.086  0.000    22.952     6.832
 120   6 C     -0.109  1.036  3.072  0.000    22.642     6.786
 121   1 H      0.265  0.735  0.000  0.000     0.828     1.425
 122   1 H      0.052  0.948  0.000  0.000     2.296     2.370
 123   1 H      0.042  0.958  0.000  0.000     2.429     2.437
 124   1 H      0.050  0.950  0.000  0.000     2.324     2.384
 125   1 H      0.020  0.980  0.000  0.000     2.737     2.587
 126   1 H      0.065  0.935  0.000  0.000     2.140     2.288
 127   1 H      0.040  0.960  0.000  0.000     2.447     2.446
 128   1 H      0.061  0.939  0.000  0.000     2.185     2.312
 129   1 H      0.042  0.958  0.000  0.000     2.416     2.431
 130   1 H      0.043  0.957  0.000  0.000     2.407     2.426
 131   1 H      0.053  0.947  0.000  0.000     2.283     2.363
 132   7 N     -0.203  1.258  3.945  0.000    25.411     7.487
 133   6 C      0.038  1.056  2.906  0.000    19.942     6.358
 134   6 C      0.216  1.082  2.702  0.000    23.435     7.928
 135   8 O     -0.372  1.752  4.621  0.000    21.139     6.164
 136   6 C     -0.067  1.054  3.013  0.000    21.758     6.637
 137   6 C     -0.003  1.059  2.944  0.000    20.643     6.469
 138  16 S     -0.215  1.906  4.255  0.054   150.215    20.628
 139   6 C     -0.060  1.055  3.005  0.000    21.734     6.650
 140   1 H      0.248  0.752  0.000  0.000     0.891     1.478
 141   1 H      0.080  0.920  0.000  0.000     1.979     2.200
 142   1 H      0.063  0.937  0.000  0.000     2.163     2.300
 143   1 H      0.091  0.909  0.000  0.000     1.870     2.138
 144   1 H      0.053  0.947  0.000  0.000     2.281     2.362
 145   1 H      0.029  0.971  0.000  0.000     2.607     2.525
 146   1 H      0.080  0.920  0.000  0.000     1.980     2.201
 147   1 H      0.050  0.950  0.000  0.000     2.326     2.385
 148   1 H      0.060  0.940  0.000  0.000     2.202     2.320
 149   1 H      0.185  0.815  0.000  0.000     1.184     1.704
 150   1 H      0.070  0.930  0.000  0.000     2.089     2.260
 151   1 H      0.182  0.818  0.000  0.000     1.202     1.718
 152   1 H      0.077  0.923  0.000  0.000     2.005     2.214
 153   1 H      0.171  0.829  0.000  0.000     1.265     1.761
 154   1 H      0.057  0.943  0.000  0.000     2.229     2.335

 Mol. C6AA /au·bohr⁶  :     225731.467480
 Mol. C8AA /au·bohr⁸  :    5282043.946505
 Mol. α(0) /au        :        722.630600

 
molecular dipole:
                 x           y           z       tot (Debye)
 q only:        2.897      -0.678       9.839
   full:        3.732      -0.592       9.163      25.192
molecular quadrupole (traceless):
                xx          xy          yy          xz          yz          zz
 q only:      -61.692     425.482   -1242.846    1914.325    1714.348    1304.537
  q+dip:      169.928     591.198   -1261.157    1913.377    1600.033    1091.230
   full:      169.657     590.387   -1262.394    1911.563    1601.521    1092.737
speedup  1.00
cpu  time for grad    0.83 s
wall time for grad    0.83 s

SCC energy    :    -221.4502010
rep           :       2.9439283
ES            :       0.4186511
AES           :       0.0007277
AXC           :       0.1002545
disp          :      -0.1944025
XB            :       0.0000000
fix           :       0.0000000
Gborn         :       0.0000000
Gsasa         :       0.0000000
Ghb           :       0.0000000
Gshift        :       0.0000000
Gsolv         :      -0.0849627      -53.31
Etot ala COSMO:    -221.4502010
grad norm     :       0.3887546
total E       :    -218.4922961
atomizationE  :      42.2460592    26509.80
(atE without considering molecular charge,
 total energy contains solvation terms)
H-L gap (eV)  :          1.7472

------------------------------------------------------------------------
 * finished run on 2019/03/14 at 15:07:37.703     
------------------------------------------------------------------------
 total:
 * wall-time:     0 d,  0 h,  0 min,  1.120 sec
 *  cpu-time:     0 d,  0 h,  0 min,  1.009 sec
 * ratio c/w:     0.901 speedup
 SCF:
 * wall-time:     0 d,  0 h,  0 min,  0.964 sec
 *  cpu-time:     0 d,  0 h,  0 min,  0.963 sec
 * ratio c/w:     1.000 speedup

