      -----------------------------------------------------------      
     |                   =====================                   |     
     |                           x T B                           |     
     |                   =====================                   |     
     |                         S. Grimme                         |     
     |          Mulliken Center for Theoretical Chemistry        |     
     |                    University of Bonn                     |     
     |                 Version 6.0.1 (SAW181210)                 |     
      -----------------------------------------------------------      

   This program is distributed in the hope that it will be useful,
   but WITHOUT ANY WARRANTY; without even the implied warranty of
   MERCHANTABILITY or FITNESS FOR A PARTICULAR PURPOSE.
   
   FOR NON-COMMERCIAL, ACADEMIA USE ONLY.
   
   Cite this work as:
   S. Grimme, C. Bannwarth, P. Shushkov, J. Comput. Theory Chem., 2017,
   13, 1989-2009.
   C. Bannwarth, S. Ehlert and S. Grimme., ChemRxiv, 2018, preprint.
   http://doi.org/10.26434/chemrxiv.7246238.v1
   
   for sTDA-xTB:
   S. Grimme and C. Bannwarth, J. Chem. Phys., 2016, 145, 054103.
   
   in the mass-spec context:
   V. Asgeirsson, C. Bauer and S. Grimme, Chem. Sci., 2017, 8, 4879.
   
   if GBSA is used:
   P. Shushkov, F. März and S. Grimme, unpublished.
   
   for ANC optimizer:
   S. Grimme, unpublished.
   Rational Function algorithm used in ANCopt:
   F. Eckert, P. Pulay, H.-J. Werner, J. Comput. Chem., 1997, 18, 1473.
   
   with help from (in alphabetical order)
   C. Bannwarth, F. Bohle, G. Brandenburg, E. Caldeweyher, M. Checinski,
   S. Dohm, S. Ehlert, S. Ehrlich, F. März, H. Neugebauer, J. Pisarek,
   P. Pracht, P. Shushkov, and S. Spicher.
   
 * started run on 2019/03/07 at 11:37:45.123     
========================================================================
 # omp threads = 1
========================================================================
number of atoms            : 380
number of electrons        : 1030
charge                     : 1
spin                       : .0
first test random number   : .2377
           ------------------------------------------------- 
          |                 G F N 2 - x T B                 |
          | Geometry, Frequencies, Noncovalent interactions |
          |            JCTC 2018 parametrisation            |
           ------------------------------------------------- 
 
      method parameters     
 k(s)        :  1.8500
 k(p)        :  2.2300
 k(d)        :  2.2300
 k(f)        :  2.0000
 kEN (H0ij)  : -2.0000
 D4 a1       :  0.5200
 D4 a2       :  5.0000
 D4 s6       :  1.0000
 D4 s8       :  2.7000
 D4 s9       :  5.0000
 alphaj      :  2.0000

 Solvent             : h2o
 Using internal parameter file: .param_gbsa2_h2o
 Gsolv ref. state (COSMO-RS): gsolv [1 M gas/solution]
 temperature (mdtemp)       :    298.150000000000     
 dielectric constant        :    80.2000000000000     
 rho                        :    1.00000000000000     
 mass                       :    18.0000000000000     
 surface tension            :    15.5689454083859     
 probe radius               :   0.975313790000000     
 vdW radii scaling          :    1.00000000000000     
 Gshift (Eh)                :   1.857443126794793E-003
 c1                         :    1.55243817000000     
 soset                      :   0.130326360000000     
 HB correction              :  T

            Z     q(EN)     CN     RAES       Cart. coordinates
     1  N   5.0   -0.21    3.14    1.94   217.13896   124.37231   300.05447
     2  C   4.0    0.02    4.24    4.08   215.18309   123.76004   298.17797
     3  C   4.0    0.17    3.37    3.07   214.28547   121.04640   298.38773
     4  O   6.0   -0.25    1.24    1.80   212.96078   120.33775   300.13950
     5  H   1.0    0.12    1.08    1.44   217.30337   123.26493   301.23176
     6  H   1.0    0.07    1.09    1.44   213.75635   124.89010   298.39718
     7  H   1.0    0.05    1.09    1.44   215.84450   124.05295   296.49422
     8  N   5.0   -0.15    3.47    2.06   215.02058   119.50060   296.57548
     9  C   4.0    0.04    4.36    4.31   214.20422   116.85309   296.51501
    10  C   4.0    0.08    3.20    3.04   216.20544   115.08620   297.70743
    11  O   6.0   -0.27    1.13    1.80   218.41264   115.07486   296.94587
    12  C   4.0   -0.04    4.45    4.47   213.63163   115.97059   293.80325
    13  C   4.0   -0.02    4.33    4.26   215.72922   115.28651   291.97589
    14  C   4.0   -0.09    4.27    4.14   214.66342   113.99394   289.74034
    15  C   4.0   -0.07    4.20    4.01   217.27691   117.65056   291.14819
    16  H   1.0    0.10    1.13    1.45   215.99568   119.93335   295.35094
    17  H   1.0    0.07    1.13    1.45   212.66409   116.75861   297.50523
    18  H   1.0    0.05    1.10    1.44   212.54504   114.50038   293.93931
    19  H   1.0    0.06    1.10    1.44   212.64519   117.29529   293.00957
    20  H   1.0    0.06    1.14    1.45   216.88007   114.15457   292.84327
    21  H   1.0    0.04    1.06    1.44   216.01646   113.56308   288.58005
    22  H   1.0    0.04    1.06    1.44   213.80359   112.46515   290.26946
    23  H   1.0    0.04    1.07    1.44   213.47100   115.10510   288.90130
    24  H   1.0    0.06    1.05    1.44   218.59783   117.14033   289.98412
    25  H   1.0    0.05    1.05    1.44   216.16575   118.85053   290.32238
    26  H   1.0    0.06    1.05    1.44   218.03280   118.43290   292.62217
    27  N   5.0   -0.21    3.21    1.96   206.46201   108.47972   302.87394
    28  C   4.0    0.03    4.32    4.24   205.71368   109.17514   300.28690
    29  C   4.0    0.16    3.44    3.09   206.73035   107.40446   298.27623
    30  O   6.0   -0.28    1.24    1.80   205.26014   106.07410   297.06681
    31  C   4.0   -0.07    4.22    4.03   206.49980   111.90957   299.71054
    32  H   1.0    0.11    1.08    1.44   207.57884   109.46427   303.52778
    33  H   1.0    0.06    1.13    1.45   203.88820   109.02396   300.22643
    34  H   1.0    0.06    1.05    1.44   205.99714   112.34421   298.00222
    35  H   1.0    0.06    1.05    1.44   205.68155   113.04341   300.89539
    36  H   1.0    0.05    1.05    1.44   208.31961   112.07020   299.86927
    37  N   5.0   -0.16    3.48    2.06   209.21912   107.30620   297.96821
    38  C   4.0    0.04    4.42    4.41   210.35484   105.68481   296.05392
    39  C   4.0    0.09    3.22    3.04   211.26569   103.11101   296.90051
    40  O   6.0   -0.26    1.14    1.80   213.49935   102.84078   297.66018
    41  C   4.0   -0.05    4.42    4.41   212.54693   107.07565   294.78024
    42  C   4.0   -0.06    4.32    4.23   212.42031   107.19093   291.93431
    43  C   4.0   -0.06    4.29    4.18   210.12430   108.69704   291.01780
    44  C   4.0   -0.04    4.30    4.20   209.37975   107.77296   288.37596
    45  N   5.0   -0.16    4.15    3.29   208.56905   105.13301   288.31927
    46  H   1.0    0.10    1.13    1.45   210.28303   108.16413   298.84882
    47  H   1.0    0.06    1.16    1.45   208.96967   105.33143   294.90496
    48  H   1.0    0.05    1.10    1.44   212.61118   108.78774   295.43220
    49  H   1.0    0.07    1.11    1.45   214.11540   106.25929   295.26212
    50  H   1.0    0.04    1.09    1.44   213.95288   107.95815   291.28614
    51  H   1.0    0.05    1.10    1.44   212.34473   105.49017   291.25590
    52  H   1.0    0.05    1.09    1.44   208.72401   108.48539   292.17998
    53  H   1.0    0.04    1.08    1.44   210.51736   110.48661   290.97433
    54  H   1.0    0.05    1.09    1.44   208.02481   108.82743   287.73345
    55  H   1.0    0.04    1.09    1.44   210.80649   107.98461   287.24401
    56  H   1.0    0.08    1.09    1.44   207.48813   104.90436   287.05126
    57  H   1.0    0.07    1.09    1.44   209.90887   104.13902   288.10006
    58  H   1.0    0.08    1.10    1.44   207.81694   104.74562   289.77247
    59  N   5.0   -0.23    3.25    1.97   218.44476   103.26218   284.27714
    60  C   4.0    0.04    4.37    4.33   219.37073   105.83599   284.30171
    61  C   4.0    0.08    3.26    3.05   222.15807   105.91914   284.31872
    62  O   6.0   -0.29    1.14    1.80   223.30136   107.78430   283.48157
    63  C   4.0   -0.05    4.41    4.40   218.24823   107.35344   286.49946
    64  C   4.0   -0.05    4.35    4.29   215.56671   108.16602   286.03270
    65  C   4.0    0.15    3.36    3.07   215.32104   109.46616   283.50425
    66  O   6.0   -0.31    1.22    1.80   214.84861   108.25484   281.57862
    67  N   5.0   -0.25    3.25    1.97   215.54403   111.94170   283.48724
    68  H   1.0    0.11    1.08    1.44   217.76257   102.77841   285.66987
    69  H   1.0    0.06    1.16    1.46   218.81326   106.65235   282.75780
    70  H   1.0    0.05    1.09    1.44   218.31437   106.34055   288.02447
    71  H   1.0    0.06    1.10    1.44   219.28380   108.83877   286.79426
    72  H   1.0    0.05    1.09    1.44   214.45933   106.70527   286.08750
    73  H   1.0    0.03    1.10    1.44   215.02247   109.29986   287.36685
    74  H   1.0    0.10    1.10    1.44   215.87473   112.73727   284.86485
    75  H   1.0    0.11    1.09    1.44   215.35884   112.76373   282.09640
    76  N   5.0   -0.22    3.24    1.96   223.61127   106.36700   278.04483
    77  C   4.0    0.03    4.24    4.09   223.14451   108.93325   277.13776
    78  C   4.0    0.09    3.23    3.04   225.46887   110.52440   277.66499
    79  O   6.0   -0.31    1.21    1.80   226.44775   111.67713   275.88865
    80  C   4.0   -0.08    4.21    4.02   220.82015   110.10677   278.39443
    81  H   1.0    0.11    1.08    1.44   222.52090   105.80954   279.11441
    82  H   1.0    0.05    1.13    1.45   222.81003   108.87278   275.33685
    83  H   1.0    0.05    1.05    1.44   220.56692   111.80375   277.75003
    84  H   1.0    0.05    1.05    1.44   219.34238   109.08632   278.02215
    85  H   1.0    0.07    1.06    1.44   221.07337   110.17480   280.20856
    86  N   5.0   -0.22    3.33    1.99   230.08547   109.12222   273.41122
    87  C   4.0    0.03    4.43    4.44   229.56958   110.07843   270.89788
    88  C   4.0    0.16    3.48    3.10   230.51066   112.78640   270.82796
    89  O   6.0   -0.31    1.26    1.80   231.61804   113.63300   268.98170
    90  C   4.0   -0.04    4.42    4.41   226.68775   110.01607   270.37254
    91  C   4.0   -0.02    3.59    3.16   225.69942   107.47060   269.63933
    92  C   4.0   -0.05    3.52    3.12   223.11805   106.90558   269.70925
    93  C   4.0   -0.04    3.55    3.14   227.33592   105.63001   268.77383
    94  C   4.0   -0.04    3.44    3.09   222.18831   104.61523   268.87210
    95  C   4.0   -0.04    3.45    3.09   226.38917   103.29242   267.93857
    96  C   4.0   -0.04    3.44    3.09   223.86261   102.79542   267.98771
    97  H   1.0    0.12    1.10    1.44   228.76077   108.80286   274.29750
    98  H   1.0    0.05    1.13    1.45   230.40295   109.05608   269.62421
    99  H   1.0    0.06    1.11    1.44   225.79957   110.58676   271.87109
   100  H   1.0    0.05    1.10    1.44   226.30413   111.20848   269.03461
   101  H   1.0    0.05    1.10    1.44   221.99745   108.10555   270.33664
   102  H   1.0    0.06    1.11    1.44   229.06691   105.93804   268.74360
   103  H   1.0    0.06    1.09    1.44   220.46110   104.29398   268.90044
   104  H   1.0    0.06    1.10    1.44   227.50222   102.06788   267.34520
   105  H   1.0    0.06    1.10    1.44   223.25978   101.24207   267.43024
   106  N   5.0   -0.16    3.52    2.09   230.04201   114.17913   272.86887
   107  C   4.0    0.04    4.42    4.41   230.91506   116.81530   273.04461
   108  C   4.0    0.09    3.31    3.06   233.79123   116.73215   272.90855
   109  O   6.0   -0.29    1.17    1.80   234.98175   118.10409   271.45535
   110  C   4.0    0.05    4.29    4.17   230.05713   118.10787   275.51071
   111  O   6.0   -0.28    2.13    1.84   227.47198   118.86187   275.28583
   112  C   4.0   -0.07    4.18    3.96   231.71820   120.48704   276.08518
   113  H   1.0    0.12    1.15    1.45   229.22754   113.64623   274.17089
   114  H   1.0    0.06    1.12    1.45   230.19130   117.80174   271.68023
   115  H   1.0    0.05    1.10    1.44   230.24610   116.91168   276.88643
   116  H   1.0    0.14    1.08    1.44   227.00522   119.56296   276.63131
   117  H   1.0    0.05    1.05    1.44   231.14750   121.26938   277.64043
   118  H   1.0    0.06    1.06    1.44   233.47186   119.98059   276.26282
   119  H   1.0    0.06    1.05    1.44   231.56702   121.68701   274.70757
   120  N   5.0   -0.21    3.24    1.97   236.03433   116.14823   266.84820
   121  C   4.0    0.04    4.32    4.24   236.04945   118.66156   265.59720
   122  C   4.0    0.10    3.24    3.04   238.52310   119.95602   266.35498
   123  O   6.0   -0.27    1.13    1.80   239.57946   121.37899   264.92824
   124  C   4.0   -0.02    4.40    4.39   233.78934   120.39444   266.41167
   125  C   4.0   -0.05    4.30    4.19   231.25332   119.14533   265.76539
   126  C   4.0   -0.08    4.24    4.07   233.98587   123.00604   265.15123
   127  C   4.0   -0.09    4.15    3.90   228.98565   120.79506   266.42301
   128  H   1.0    0.14    1.10    1.44   234.85136   115.98004   267.94991
   129  H   1.0    0.05    1.11    1.45   235.89071   118.40834   263.78873
   130  H   1.0    0.07    1.13    1.45   233.87437   120.62310   268.22770
   131  H   1.0    0.04    1.09    1.44   231.21364   118.75416   263.97582
   132  H   1.0    0.06    1.09    1.44   231.12104   117.55418   266.66490
   133  H   1.0    0.04    1.06    1.44   232.57235   124.04728   265.67846
   134  H   1.0    0.07    1.06    1.44   235.55623   123.80918   265.65012
   135  H   1.0    0.05    1.05    1.44   233.95374   122.80951   263.32953
   136  H   1.0    0.04    1.05    1.44   227.43986   119.91634   265.97704
   137  H   1.0    0.05    1.05    1.44   228.98754   121.15033   268.22203
   138  H   1.0    0.04    1.06    1.44   229.08392   122.36920   265.48949
   139  N   5.0   -0.23    3.25    1.97   222.04091   120.36798   252.11590
   140  C   4.0    0.02    4.38    4.34   221.57226   118.72959   254.29097
   141  C   4.0    0.15    3.41    3.08   221.94831   120.17712   256.78352
   142  O   6.0   -0.32    1.31    1.80   220.28535   120.18468   258.39735
   143  C   4.0    0.04    4.26    4.12   223.21254   116.24082   254.25696
   144  O   6.0   -0.27    2.13    1.84   225.48021   116.63200   252.77163
   145  C   4.0   -0.07    4.16    3.91   221.75178   113.98071   253.21383
   146  H   1.0    0.12    1.09    1.44   223.21443   119.82374   251.13324
   147  H   1.0    0.05    1.13    1.45   219.82048   118.20236   254.17003
   148  H   1.0    0.04    1.11    1.45   223.65663   115.86099   255.99362
   149  H   1.0    0.14    1.07    1.44   226.35137   117.78473   253.42926
   150  H   1.0    0.06    1.05    1.44   222.82893   112.49728   253.22706
   151  H   1.0    0.04    1.05    1.44   220.27591   113.67269   254.25507
   152  H   1.0    0.06    1.05    1.44   221.22266   114.33409   251.49418
   153  N   5.0   -0.17    3.47    2.06   223.99867   121.61142   256.95549
   154  C   4.0    0.03    4.50    4.54   224.65440   123.10620   259.20804
   155  C   4.0    0.16    3.48    3.11   222.43019   124.61420   260.30408
   156  O   6.0   -0.31    1.24    1.80   221.93886   124.48003   262.58687
   157  C   4.0   -0.03    4.35    4.29   226.91640   124.96758   258.66380
   158  C   4.0   -0.08    4.23    4.05   227.37183   126.69479   260.96359
   159  C   4.0   -0.08    4.22    4.04   229.30313   123.53894   258.01562
   160  H   1.0    0.09    1.14    1.45   225.07770   121.75504   255.74984
   161  H   1.0    0.05    1.13    1.45   225.15140   121.86654   260.46282
   162  H   1.0    0.05    1.12    1.45   226.46476   125.99937   257.21816
   163  H   1.0    0.05    1.05    1.44   228.76644   127.83051   260.60833
   164  H   1.0    0.06    1.06    1.44   225.85816   127.67177   261.30375
   165  H   1.0    0.04    1.05    1.44   227.77812   125.66867   262.42813
   166  H   1.0    0.05    1.06    1.44   230.65995   124.72947   257.69059
   167  H   1.0    0.04    1.06    1.44   229.76611   122.45424   259.41780
   168  H   1.0    0.05    1.06    1.44   229.01778   122.51660   256.52085
   169  N   5.0   -0.15    3.48    2.07   221.17164   126.09007   258.69403
   170  C   4.0    0.04    4.46    4.48   218.94365   127.59997   259.43670
   171  C   4.0    0.16    3.45    3.09   216.89330   125.87654   260.60644
   172  O   6.0   -0.29    1.30    1.80   215.92954   126.37731   262.67191
   173  C   4.0   -0.04    4.38    4.34   217.88729   129.07584   257.18603
   174  C   4.0    0.16    3.30    3.05   219.79214   130.89376   256.03519
   175  O   6.0   -0.27    1.22    1.80   221.71777   131.50603   257.23706
   176  N   5.0   -0.23    3.22    1.96   219.33293   131.75547   253.73728
   177  H   1.0    0.10    1.13    1.45   221.57982   126.25259   257.12934
   178  H   1.0    0.08    1.12    1.45   219.47088   128.81695   260.70092
   179  H   1.0    0.05    1.09    1.44   217.33171   127.89476   255.89913
   180  H   1.0    0.06    1.09    1.44   216.40953   130.01692   257.72460
   181  H   1.0    0.13    1.09    1.44   220.38173   132.77403   253.02675
   182  H   1.0    0.11    1.09    1.44   217.98556   131.29816   252.95305
   183  N   5.0   -0.15    3.51    2.09   216.24701   123.79973   259.31386
   184  C   4.0    0.04    4.52    4.56   214.32705   122.06685   260.26818
   185  C   4.0    0.17    3.49    3.11   215.13585   120.88955   262.73616
   186  O   6.0   -0.31    1.34    1.80   213.64297   120.60798   264.45770
   187  C   4.0   -0.04    4.38    4.34   213.69021   120.03728   258.27074
   188  C   4.0    0.16    3.28    3.05   211.98946   121.03506   256.17314
   189  O   6.0   -0.27    1.19    1.80   209.79360   121.70780   256.57376
   190  N   5.0   -0.23    3.23    1.96   213.01180   121.06907   253.86578
   191  H   1.0    0.10    1.13    1.45   216.89897   123.37076   257.88901
   192  H   1.0    0.07    1.14    1.45   212.80204   123.02683   260.59888
   193  H   1.0    0.05    1.10    1.44   215.24545   119.40422   257.53752
   194  H   1.0    0.06    1.09    1.44   212.86818   118.61999   259.09088
   195  H   1.0    0.13    1.09    1.44   212.13308   121.57363   252.59400
   196  H   1.0    0.11    1.09    1.44   214.54815   120.58719   253.65036
   197  N   5.0   -0.16    3.55    2.11   217.52257   120.10342   262.79474
   198  C   4.0    0.03    4.50    4.53   218.59405   118.90534   265.03028
   199  C   4.0    0.16    3.50    3.11   218.35783   120.48704   267.41512
   200  O   6.0   -0.31    1.27    1.80   217.32037   119.61020   269.31051
   201  C   4.0   -0.05    4.46    4.48   221.36061   118.18913   264.53329
   202  C   4.0   -0.03    4.33    4.25   221.80091   115.93469   262.74939
   203  C   4.0   -0.09    4.23    4.06   224.44086   115.98382   261.66468
   204  C   4.0   -0.09    4.24    4.09   221.26423   113.50450   264.10621
   205  H   1.0    0.13    1.17    1.46   218.55625   120.24893   261.54941
   206  H   1.0    0.05    1.14    1.45   217.60761   117.39356   265.34209
   207  H   1.0    0.06    1.10    1.44   222.21854   119.65178   263.83598
   208  H   1.0    0.04    1.10    1.44   222.15807   117.81685   266.14144
   209  H   1.0    0.05    1.14    1.45   220.64062   116.06319   261.33587
   210  H   1.0    0.05    1.06    1.44   224.67141   114.54763   260.54974
   211  H   1.0    0.05    1.06    1.44   224.68464   117.53528   260.71982
   212  H   1.0    0.04    1.06    1.44   225.66351   115.90067   263.02718
   213  H   1.0    0.05    1.06    1.44   221.54580   112.09476   262.97048
   214  H   1.0    0.04    1.06    1.44   222.37728   113.35332   265.55374
   215  H   1.0    0.04    1.06    1.44   219.52190   113.49316   264.67313
   216  N   5.0   -0.17    3.59    2.15   219.29892   122.81707   267.23748
   217  C   4.0    0.03    4.52    4.57   219.24600   124.57640   269.34453
   218  C   4.0    0.17    3.53    3.13   216.51157   124.65199   270.27994
   219  O   6.0   -0.30    1.25    1.80   215.91253   124.35909   272.52494
   220  C   4.0    0.05    4.34    4.28   219.98111   127.29572   268.45258
   221  O   6.0   -0.25    2.20    1.86   218.81515   127.81539   266.04129
   222  C   4.0   -0.07    4.19    3.98   222.76278   127.69823   268.28439
   223  H   1.0    0.12    1.16    1.45   219.98300   123.41233   265.89011
   224  H   1.0    0.04    1.12    1.45   220.42519   124.04350   270.64277
   225  H   1.0    0.05    1.12    1.45   219.36317   128.45979   269.72625
   226  H   1.0    0.17    1.14    1.45   218.30492   126.45857   265.39500
   227  H   1.0    0.06    1.06    1.44   223.10105   129.41032   267.72503
   228  H   1.0    0.04    1.06    1.44   223.52056   127.43556   269.93223
   229  H   1.0    0.06    1.06    1.44   223.48088   126.51148   267.08631
   230  N   5.0   -0.15    3.55    2.12   214.80704   124.95813   268.47715
   231  C   4.0    0.04    4.46    4.48   212.09339   125.01293   269.00627
   232  C   4.0    0.18    3.47    3.10   211.17121   122.58841   270.23837
   233  O   6.0   -0.30    1.31    1.80   210.25280   122.62621   272.37565
   234  C   4.0    0.03    4.24    4.09   210.62319   125.46269   266.53073
   235  O   6.0   -0.27    2.06    1.83   207.92466   125.62520   266.96158
   236  H   1.0    0.12    1.15    1.45   215.18120   125.14143   266.90678
   237  H   1.0    0.06    1.13    1.45   211.79293   126.38298   270.18735
   238  H   1.0    0.06    1.07    1.44   211.21089   127.01037   265.74460
   239  H   1.0    0.07    1.07    1.44   210.97278   124.10019   265.35721
   240  H   1.0    0.15    1.07    1.44   207.18199   125.87276   265.58020
   241  N   5.0   -0.15    3.53    2.10   211.60206   120.47381   268.95336
   242  C   4.0    0.04    4.43    4.42   210.90097   117.91890   269.78861
   243  C   4.0    0.17    3.50    3.12   211.39230   117.52395   272.59297
   244  O   6.0   -0.31    1.24    1.80   209.64431   117.06096   274.03483
   245  C   4.0   -0.08    4.24    4.07   212.31638   115.94792   268.23526
   246  H   1.0    0.13    1.20    1.46   212.34284   120.47948   267.50772
   247  H   1.0    0.06    1.13    1.45   209.09818   117.72615   269.52027
   248  H   1.0    0.05    1.06    1.44   211.84206   114.26984   268.79840
   249  H   1.0    0.06    1.06    1.44   211.88741   116.14067   266.46459
   250  H   1.0    0.06    1.06    1.44   214.12107   116.17846   268.45447
   251  N   5.0   -0.16    3.57    2.13   213.77336   117.82252   273.28650
   252  C   4.0    0.03    4.51    4.55   214.55948   117.52017   275.88865
   253  C   4.0    0.17    3.47    3.10   213.40864   119.52706   277.62531
   254  O   6.0   -0.31    1.30    1.80   212.64141   118.92234   279.75314
   255  C   4.0   -0.05    4.40    4.38   217.41108   117.59576   276.04928
   256  C   4.0   -0.04    4.34    4.26   218.58460   120.06563   275.18000
   257  C   4.0   -0.01    4.32    4.24   221.48533   120.02405   275.21591
   258  N   5.0   -0.15    3.46    2.05   222.43208   122.60353   274.91733
   259  C   4.0    0.12    3.48    3.11   223.47521   123.94524   276.76359
   260  N   5.0   -0.22    3.34    2.00   223.67174   122.91722   279.01615
   261  N   5.0   -0.24    3.28    1.97   224.33882   126.28661   276.33652
   262  H   1.0    0.12    1.16    1.46   214.97522   118.20614   272.26227
   263  H   1.0    0.05    1.13    1.45   213.94721   115.89122   276.46691
   264  H   1.0    0.05    1.10    1.44   217.91375   117.28206   277.78405
   265  H   1.0    0.04    1.10    1.44   218.09516   116.22948   275.03827
   266  H   1.0    0.07    1.10    1.44   218.01012   120.43790   273.47925
   267  H   1.0    0.07    1.10    1.44   217.98934   121.42434   276.25715
   268  H   1.0    0.05    1.10    1.44   222.08815   119.30785   276.79194
   269  H   1.0    0.05    1.08    1.44   222.11839   118.95825   273.86664
   270  H   1.0    0.09    1.14    1.45   222.30547   123.29517   273.45279
   271  H   1.0    0.12    1.11    1.45   223.13128   121.40544   279.26937
   272  H   1.0    0.12    1.09    1.44   224.34260   123.75626   280.23691
   273  H   1.0    0.11    1.09    1.44   224.22165   126.93856   274.85308
   274  H   1.0    0.12    1.09    1.44   225.01156   127.13887   277.54594
   275  N   5.0   -0.15    3.56    2.12   212.90219   121.78906   276.61997
   276  C   4.0    0.05    4.43    4.43   211.79293   123.86020   278.02215
   277  C   4.0    0.17    3.46    3.10   209.06794   123.20068   278.74403
   278  O   6.0   -0.24    1.23    1.80   208.12497   124.00382   280.72257
   279  C   4.0    0.04    4.24    4.08   211.78159   126.32818   276.44990
   280  O   6.0   -0.25    2.08    1.84   210.88586   128.41066   277.91822
   281  H   1.0    0.13    1.16    1.46   213.20833   122.15189   275.06473
   282  H   1.0    0.07    1.12    1.45   212.80771   124.12665   279.52637
   283  H   1.0    0.06    1.07    1.44   213.47478   126.68345   275.84519
   284  H   1.0    0.06    1.08    1.44   210.71956   126.11275   274.97213
   285  H   1.0    0.15    1.08    1.44   210.89720   129.72780   277.03193
   286  N   5.0   -0.15    3.55    2.11   207.73001   121.77394   277.15666
   287  C   4.0    0.04    4.48    4.51   205.11274   120.98970   277.60830
   288  C   4.0    0.17    3.42    3.09   205.01259   118.90534   279.63598
   289  O   6.0   -0.27    1.20    1.80   203.02649   118.49905   280.77359
   290  C   4.0   -0.04    4.40    4.38   203.85986   120.02405   275.18000
   291  C   4.0   -0.05    4.27    4.15   201.00259   120.45491   275.02882
   292  C   4.0   -0.01    4.33    4.26   200.41678   122.94557   273.62665
   293  N   5.0   -0.16    3.51    2.09   202.01737   124.93167   274.70946
   294  C   4.0    0.12    3.49    3.11   203.35719   126.48314   273.32240
   295  N   5.0   -0.22    3.34    2.00   203.31373   126.27338   270.80907
   296  N   5.0   -0.23    3.29    1.98   204.91810   128.13098   274.40144
   297  H   1.0    0.13    1.15    1.45   208.33284   121.22025   275.75259
   298  H   1.0    0.07    1.13    1.45   204.19245   122.46369   278.19223
   299  H   1.0    0.06    1.10    1.44   204.65354   120.84231   273.74570
   300  H   1.0    0.06    1.10    1.44   204.19056   118.22881   275.02316
   301  H   1.0    0.05    1.08    1.44   200.20702   119.05085   274.15955
   302  H   1.0    0.06    1.09    1.44   200.29205   120.51160   276.71824
   303  H   1.0    0.05    1.10    1.44   200.74559   122.76416   271.83330
   304  H   1.0    0.05    1.08    1.44   198.64610   123.38021   273.80617
   305  H   1.0    0.10    1.14    1.45   202.07973   125.08474   276.32707
   306  H   1.0    0.11    1.10    1.44   202.40855   125.12253   270.10609
   307  H   1.0    0.12    1.09    1.44   204.19245   127.29005   269.89444
   308  H   1.0    0.12    1.09    1.44   205.05227   128.18200   276.02093
   309  H   1.0    0.12    1.09    1.44   205.79305   129.14387   273.48114
   310  N   5.0   -0.15    3.53    2.10   207.14420   117.56741   279.86463
   311  C   4.0    0.04    4.53    4.58   207.40498   115.48493   281.67121
   312  C   4.0    0.16    3.45    3.09   208.28748   116.51483   284.24691
   313  O   6.0   -0.28    1.22    1.80   207.00814   116.11988   286.14986
   314  C   4.0   -0.03    4.42    4.42   209.20589   113.39490   280.66210
   315  C   4.0   -0.05    4.34    4.26   208.32339   112.48216   278.02782
   316  C   4.0   -0.08    4.26    4.11   209.27770   111.16124   282.44978
   317  C   4.0   -0.08    4.17    3.93   210.07327   110.64534   276.81273
   318  H   1.0    0.12    1.15    1.45   208.47646   117.84331   278.97646
   319  H   1.0    0.07    1.13    1.45   205.76470   114.69881   281.89231
   320  H   1.0    0.05    1.12    1.45   210.88586   114.11488   280.53549
   321  H   1.0    0.05    1.10    1.44   206.66988   111.70926   278.19034
   322  H   1.0    0.07    1.10    1.44   208.13064   113.93536   276.92800
   323  H   1.0    0.06    1.06    1.44   210.40965   109.88189   281.78460
   324  H   1.0    0.05    1.06    1.44   209.87485   111.71115   284.09195
   325  H   1.0    0.05    1.06    1.44   207.59395   110.45826   282.61796
   326  H   1.0    0.05    1.06    1.44   209.40620   110.15591   275.17622
   327  H   1.0    0.05    1.06    1.44   211.71923   111.42202   276.59352
   328  H   1.0    0.05    1.06    1.44   210.23579   109.16002   277.87475
   329  N   5.0   -0.15    3.57    2.13   210.38130   117.91323   284.21667
   330  C   4.0    0.03    4.51    4.55   211.45466   119.02817   286.49190
   331  C   4.0    0.17    3.51    3.12   209.51014   120.91034   287.39519
   332  O   6.0   -0.24    1.25    1.80   208.57661   122.43912   285.91554
   333  C   4.0   -0.04    4.41    4.40   213.93398   120.36987   285.85884
   334  C   4.0   -0.04    4.30    4.20   215.99001   118.70125   284.81383
   335  C   4.0    0.25    3.15    3.03   218.25957   120.22059   283.94455
   336  O   6.0   -0.28    1.17    1.80   220.16630   120.29617   285.35618
   337  O   6.0   -0.28    1.17    1.80   218.16508   121.30151   281.84318
   338  H   1.0    0.13    1.18    1.46   211.22034   118.24015   282.86363
   339  H   1.0    0.04    1.13    1.45   211.82883   117.76772   287.76936
   340  H   1.0    0.08    1.10    1.44   213.58439   121.69646   284.64186
   341  H   1.0    0.05    1.10    1.44   214.55948   121.18435   287.37629
   342  H   1.0    0.04    1.10    1.44   216.51346   117.50127   286.09695
   343  H   1.0    0.06    1.10    1.44   215.33049   117.72804   283.40598
   344  N   5.0   -0.15    3.47    2.06   209.00180   120.86876   289.85184
   345  C   4.0    0.04    4.48    4.51   207.12341   122.53739   291.01969
   346  C   4.0    0.16    3.45    3.09   208.27426   125.02049   291.92109
   347  O   6.0   -0.27    1.24    1.80   210.26603   125.05450   293.11917
   348  C   4.0   -0.03    4.34    4.28   205.72879   121.17679   293.18153
   349  C   4.0    0.26    3.18    3.03   207.47490   120.39066   295.28858
   350  O   6.0   -0.28    1.17    1.80   208.21378   118.11165   295.40385
   351  O   6.0   -0.24    1.18    1.80   208.03993   121.92701   296.97043
   352  H   1.0    0.10    1.13    1.45   209.73690   119.86910   290.90063
   353  H   1.0    0.07    1.14    1.45   205.90076   122.96258   289.72333
   354  H   1.0    0.06    1.09    1.44   204.43055   122.28228   293.85239
   355  H   1.0    0.06    1.09    1.44   204.88031   119.69524   292.51446
   356  N   5.0   -0.15    3.51    2.08   207.12341   127.12942   291.19354
   357  C   4.0    0.05    4.40    4.39   208.00591   129.59363   291.94565
   358  C   4.0    0.10    3.26    3.05   205.91021   131.53060   291.87573
   359  O   6.0   -0.24    1.14    1.80   204.20001   131.35863   290.32049
   360  C   4.0    0.04    4.29    4.17   210.13375   130.46101   290.23923
   361  O   6.0   -0.24    2.10    1.84   209.33817   131.19422   287.79014
   362  H   1.0    0.12    1.14    1.45   205.80438   127.15588   290.24490
   363  H   1.0    0.06    1.14    1.45   208.61063   129.44623   293.66908
   364  H   1.0    0.05    1.08    1.44   210.99168   131.87264   291.03291
   365  H   1.0    0.06    1.08    1.44   211.36018   129.10797   290.08427
   366  H   1.0    0.15    1.08    1.44   210.59673   131.65532   286.93977
   367  H   1.0    0.11    1.07    1.44   218.64747   124.50353   299.28004
   368  H   1.0    0.06    1.04    1.43   215.72136   113.92726   299.11937
   369  H   1.0    0.11    1.07    1.44   205.09910   108.52364   303.89036
   370  H   1.0    0.07    1.04    1.43   210.09155   101.63103   296.85462
   371  H   1.0    0.11    1.08    1.44   217.26400   103.09518   283.06451
   372  H   1.0    0.07    1.05    1.44   223.14263   104.46184   285.01009
   373  H   1.0    0.10    1.08    1.44   223.59947   105.28898   276.72942
   374  H   1.0    0.07    1.04    1.43   226.17080   110.62025   279.41690
   375  H   1.0    0.10    1.08    1.44   230.96427   107.67059   273.29706
   376  H   1.0    0.06    1.05    1.44   234.75557   115.54306   274.01632
   377  H   1.0    0.11    1.07    1.44   235.81670   114.93307   265.67833
   378  H   1.0    0.08    1.05    1.44   239.28151   119.62391   268.05368
   379  H   1.0    0.10    1.08    1.44   220.62184   120.49907   251.18767
   380  H   1.0    0.07    1.05    1.44   205.90996   132.96713   293.10351

  Z AO/shell   Hii/eV     exponent
  1     Wed Apr 25 08:07:45 CEST 2018   EN: 2.200 GM2: 0.406  GM3: 0.0800  RAES: 1.40
     1s    -10.707211    1.230000
  6     Wed Apr 25 08:07:45 CEST 2018   EN: 2.550 GM2: 0.538  GM3: 0.1500  RAES: 3.00
     2s    -13.970922    2.096432
     2p    -10.063292    1.800000
  7     Wed Apr 25 08:07:45 CEST 2018   EN: 3.040 GM2: 0.461  GM3:-0.0640  RAES: 1.90
     2s    -16.686243    2.339881
     2p    -12.523956    2.014332
  8     Wed Apr 25 08:07:45 CEST 2018   EN: 3.440 GM2: 0.452  GM3:-0.0517  RAES: 1.80
     2s    -20.229985    2.439742
     2p    -15.503117    2.137023
 no old-style atom pair restraining (fixing) potential

molecular fragmentation (1/2 indicates fragments):
111111111111111111111111112222222222222222222222222222222222222222222222
222222222222222222222222222222222222222222222222222222222222222222222222
222222222222222222222222222222222222222222222222222222222222222222222222
222222222222222222222222222222222222222222222222222222222222222222222222
222222222222222222222222222222222222222222222222222222222222222222222222
22222211222222222222
# atoms in fragment 1/2:    28   352
 fragment masses (1/2) :      172.23     2417.76
CMA distance (Bohr)    :  21.132
constraining FC (au)   :  0.0500
           ------------------------------------------------- 
          |        Self-Consistent Charge Iterations        |
           ------------------------------------------------- 

 Ncao       : 923
 Nao        : 923
 Nshell     : 561
 Nel        : 1030
 T(el)      :   500.0
 intcut     :    35.0
 scfconv/Eh :  0.100E-06
   qconv/e  :  0.100E-04
 intneglect :  0.100E-08
 broydamp   :      0.400
 iter      E             dE          RMSdq      gap      omega  full diag
   1   -594.9262426 -0.594926E+03  0.473E+00    3.12       0.0  T
   2   -596.3996263 -0.147338E+01  0.221E+00    1.51       1.0  T
   3   -596.4813068 -0.816805E-01  0.127E+00    1.66       1.0  T
   4   -596.5740894 -0.927826E-01  0.257E-01    1.00       1.0  T
   5   -596.5806200 -0.653060E-02  0.122E-01    1.25       1.0  T
   6   -596.5814700 -0.849998E-03  0.519E-02    1.20       1.0  T
   7   -596.5816925 -0.222482E-03  0.195E-02    1.22       1.0  T
   8   -596.5817098 -0.172699E-04  0.903E-03    1.21       1.0  T
   9   -596.5817159 -0.614480E-05  0.355E-03    1.21       1.4  T
  10   -596.5817168 -0.920550E-06  0.148E-03    1.21       3.5  T
  11   -596.5817170 -0.172918E-06  0.599E-04    1.22       8.6  T
  12   -596.5817170 -0.210122E-07  0.278E-04    1.22      18.4  T
  13   -596.5817170 -0.583771E-08  0.119E-04    1.22      43.0  T
  14   -596.5817170 -0.103364E-08  0.543E-05    1.22      94.5  T
  15   -596.5817170 -0.186787E-09  0.225E-05    1.22     228.2  T
speedup  1.00
cpu  time for SCC    6.42 s
wall time for SCC    6.42 s

   *** convergence criteria satisfied after 15 iterations ***

          eigenvalues
 #    :         503        504        505        506        507        508        509        510
 occ. :        2.000      2.000      2.000      2.000      2.000      2.000      2.000      2.000
 eps  :       -10.561    -10.399    -10.398    -10.120    -10.071    -10.029    -10.021     -9.896
 #    :         511        512        513        514        515        516        517        518
 occ. :        2.000      2.000      2.000      2.000      2.000      0.000      0.000      0.000
 eps  :        -9.864     -9.824     -9.773     -9.666     -9.575     -8.359     -8.165     -8.127
 #    :         519        520        521        522        523        524        525        526
 occ. :        0.000      0.000      0.000      0.000      0.000      0.000      0.000      0.000
 eps  :        -7.810     -7.800     -7.695     -7.132     -7.077     -6.914     -6.790     -6.766


   #   Z            q   n(s)   n(p)   n(d)      C6AA      α(0)
   1   7 N     -0.415  1.292  4.123  0.000    30.808     8.243
   2   6 C     -0.026  1.002  3.024  0.000    21.107     6.553
   3   6 C      0.278  1.040  2.682  0.000    22.287     7.731
   4   8 O     -0.510  1.754  4.756  0.000    24.011     6.570
   5   1 H      0.181  0.819  0.000  0.000     1.207     1.721
   6   1 H      0.071  0.929  0.000  0.000     2.073     2.251
   7   1 H      0.056  0.944  0.000  0.000     2.244     2.342
   8   7 N     -0.192  1.212  3.980  0.000    25.161     7.450
   9   6 C      0.024  1.039  2.937  0.000    20.181     6.397
  10   6 C      0.191  1.095  2.714  0.000    23.917     8.009
  11   8 O     -0.351  1.754  4.596  0.000    20.720     6.103
  12   6 C     -0.089  1.009  3.080  0.000    22.176     6.701
  13   6 C     -0.034  1.030  3.004  0.000    21.144     6.540
  14   6 C     -0.157  0.976  3.181  0.000    23.569     6.916
  15   6 C     -0.148  0.979  3.169  0.000    23.400     6.894
  16   1 H      0.214  0.786  0.000  0.000     1.039     1.597
  17   1 H      0.091  0.909  0.000  0.000     1.872     2.140
  18   1 H      0.084  0.916  0.000  0.000     1.934     2.175
  19   1 H      0.057  0.943  0.000  0.000     2.237     2.339
  20   1 H      0.073  0.927  0.000  0.000     2.054     2.241
  21   1 H      0.067  0.933  0.000  0.000     2.114     2.274
  22   1 H      0.078  0.922  0.000  0.000     2.004     2.214
  23   1 H      0.046  0.954  0.000  0.000     2.364     2.404
  24   1 H      0.066  0.934  0.000  0.000     2.127     2.281
  25   1 H      0.036  0.964  0.000  0.000     2.500     2.472
  26   1 H      0.042  0.958  0.000  0.000     2.415     2.430
  27   7 N     -0.425  1.287  4.139  0.000    31.080     8.280
  28   6 C      0.020  1.036  2.944  0.000    20.252     6.409
  29   6 C      0.267  1.047  2.686  0.000    22.499     7.767
  30   8 O     -0.490  1.745  4.745  0.000    23.571     6.509
  31   6 C     -0.149  0.980  3.169  0.000    23.416     6.896
  32   1 H      0.185  0.815  0.000  0.000     1.183     1.704
  33   1 H      0.065  0.935  0.000  0.000     2.141     2.288
  34   1 H      0.059  0.941  0.000  0.000     2.207     2.323
  35   1 H      0.054  0.946  0.000  0.000     2.268     2.355
  36   1 H      0.057  0.943  0.000  0.000     2.235     2.338
  37   7 N     -0.169  1.206  3.963  0.000    24.657     7.375
  38   6 C      0.005  1.031  2.964  0.000    20.496     6.446
  39   6 C      0.191  1.093  2.717  0.000    23.925     8.011
  40   8 O     -0.365  1.778  4.587  0.000    20.994     6.143
  41   6 C     -0.108  1.008  3.100  0.000    22.542     6.756
  42   6 C     -0.120  1.012  3.108  0.000    22.777     6.792
  43   6 C     -0.125  1.015  3.110  0.000    22.885     6.809
  44   6 C     -0.083  1.012  3.071  0.000    22.158     6.715
  45   7 N     -0.132  1.139  3.992  0.000    23.844     7.252
  46   1 H      0.212  0.788  0.000  0.000     1.047     1.603
  47   1 H      0.118  0.882  0.000  0.000     1.631     1.997
  48   1 H      0.071  0.929  0.000  0.000     2.073     2.251
  49   1 H      0.098  0.902  0.000  0.000     1.806     2.101
  50   1 H      0.088  0.912  0.000  0.000     1.902     2.156
  51   1 H      0.090  0.910  0.000  0.000     1.877     2.143
  52   1 H      0.090  0.910  0.000  0.000     1.878     2.143
  53   1 H      0.087  0.913  0.000  0.000     1.905     2.158
  54   1 H      0.128  0.872  0.000  0.000     1.554     1.949
  55   1 H      0.127  0.873  0.000  0.000     1.560     1.953
  56   1 H      0.301  0.699  0.000  0.000     0.711     1.321
  57   1 H      0.291  0.709  0.000  0.000     0.739     1.347
  58   1 H      0.288  0.712  0.000  0.000     0.750     1.356
  59   7 N     -0.426  1.287  4.139  0.000    31.101     8.283
  60   6 C      0.025  1.023  2.952  0.000    20.158     6.394
  61   6 C      0.189  1.088  2.723  0.000    23.958     8.017
  62   8 O     -0.393  1.766  4.627  0.000    21.535     6.222
  63   6 C     -0.089  1.008  3.081  0.000    22.185     6.703
  64   6 C     -0.137  1.012  3.124  0.000    23.109     6.841
  65   6 C      0.276  1.034  2.689  0.000    22.323     7.736
  66   8 O     -0.488  1.747  4.741  0.000    23.522     6.503
  67   7 N     -0.275  1.184  4.092  0.000    27.114     7.734
  68   1 H      0.198  0.802  0.000  0.000     1.114     1.653
  69   1 H      0.091  0.909  0.000  0.000     1.867     2.137
  70   1 H      0.088  0.912  0.000  0.000     1.899     2.155
  71   1 H      0.063  0.937  0.000  0.000     2.165     2.301
  72   1 H      0.104  0.896  0.000  0.000     1.751     2.069
  73   1 H      0.085  0.915  0.000  0.000     1.927     2.171
  74   1 H      0.211  0.789  0.000  0.000     1.049     1.605
  75   1 H      0.213  0.787  0.000  0.000     1.042     1.599
  76   7 N     -0.413  1.281  4.132  0.000    30.740     8.234
  77   6 C      0.033  1.030  2.937  0.000    20.035     6.375
  78   6 C      0.191  1.097  2.711  0.000    23.912     8.009
  79   8 O     -0.371  1.748  4.623  0.000    21.102     6.159
  80   6 C     -0.157  0.981  3.176  0.000    23.582     6.920
  81   1 H      0.181  0.819  0.000  0.000     1.210     1.723
  82   1 H      0.071  0.929  0.000  0.000     2.074     2.252
  83   1 H      0.066  0.934  0.000  0.000     2.126     2.280
  84   1 H      0.080  0.920  0.000  0.000     1.983     2.202
  85   1 H      0.070  0.930  0.000  0.000     2.082     2.256
  86   7 N     -0.420  1.281  4.138  0.000    30.921     8.259
  87   6 C      0.024  1.035  2.941  0.000    20.180     6.397
  88   6 C      0.269  1.048  2.683  0.000    22.460     7.761
  89   8 O     -0.510  1.747  4.763  0.000    24.002     6.569
  90   6 C     -0.105  1.012  3.093  0.000    22.476     6.747
  91   6 C      0.004  1.085  2.911  0.000    27.942     8.670
  92   6 C     -0.066  1.055  3.012  0.000    29.653     8.931
  93   6 C     -0.066  1.056  3.010  0.000    29.640     8.929
  94   6 C     -0.056  1.058  2.998  0.000    29.397     8.891
  95   6 C     -0.055  1.057  2.999  0.000    29.374     8.888
  96   6 C     -0.058  1.052  3.006  0.000    29.440     8.898
  97   1 H      0.185  0.815  0.000  0.000     1.185     1.705
  98   1 H      0.061  0.939  0.000  0.000     2.183     2.310
  99   1 H      0.089  0.911  0.000  0.000     1.884     2.146
 100   1 H      0.073  0.927  0.000  0.000     2.057     2.243
 101   1 H      0.064  0.936  0.000  0.000     2.147     2.291
 102   1 H      0.050  0.950  0.000  0.000     2.322     2.383
 103   1 H      0.064  0.936  0.000  0.000     2.157     2.296
 104   1 H      0.049  0.951  0.000  0.000     2.329     2.386
 105   1 H      0.052  0.948  0.000  0.000     2.291     2.367
 106   7 N     -0.180  1.212  3.968  0.000    24.898     7.411
 107   6 C      0.007  1.044  2.949  0.000    20.473     6.443
 108   6 C      0.197  1.084  2.719  0.000    23.807     7.991
 109   8 O     -0.346  1.756  4.590  0.000    20.632     6.090
 110   6 C      0.092  1.034  2.874  0.000    19.163     6.250
 111   8 O     -0.473  1.668  4.805  0.000    22.319     6.378
 112   6 C     -0.173  0.988  3.185  0.000    23.922     6.972
 113   1 H      0.237  0.763  0.000  0.000     0.935     1.515
 114   1 H      0.121  0.879  0.000  0.000     1.603     1.980
 115   1 H      0.063  0.937  0.000  0.000     2.164     2.300
 116   1 H      0.328  0.672  0.000  0.000     0.641     1.257
 117   1 H      0.084  0.916  0.000  0.000     1.941     2.178
 118   1 H      0.059  0.941  0.000  0.000     2.213     2.326
 119   1 H      0.085  0.915  0.000  0.000     1.929     2.172
 120   7 N     -0.424  1.298  4.126  0.000    31.048     8.275
 121   6 C      0.019  1.047  2.934  0.000    20.269     6.413
 122   6 C      0.210  1.088  2.702  0.000    23.555     7.948
 123   8 O     -0.390  1.747  4.644  0.000    21.485     6.215
 124   6 C     -0.037  1.049  2.988  0.000    21.202     6.549
 125   6 C     -0.086  1.004  3.083  0.000    22.135     6.696
 126   6 C     -0.153  0.978  3.175  0.000    23.497     6.908
 127   6 C     -0.153  0.977  3.176  0.000    23.501     6.909
 128   1 H      0.191  0.809  0.000  0.000     1.152     1.681
 129   1 H      0.066  0.934  0.000  0.000     2.125     2.280
 130   1 H      0.069  0.931  0.000  0.000     2.101     2.266
 131   1 H      0.046  0.954  0.000  0.000     2.366     2.405
 132   1 H      0.056  0.944  0.000  0.000     2.246     2.343
 133   1 H      0.073  0.927  0.000  0.000     2.047     2.237
 134   1 H      0.040  0.960  0.000  0.000     2.442     2.443
 135   1 H      0.057  0.943  0.000  0.000     2.239     2.340
 136   1 H      0.058  0.942  0.000  0.000     2.217     2.328
 137   1 H      0.057  0.943  0.000  0.000     2.235     2.338
 138   1 H      0.059  0.941  0.000  0.000     2.213     2.326
 139   7 N     -0.419  1.282  4.137  0.000    30.907     8.257
 140   6 C     -0.005  1.050  2.955  0.000    20.686     6.479
 141   6 C      0.256  1.052  2.692  0.000    22.700     7.801
 142   8 O     -0.497  1.736  4.761  0.000    23.722     6.530
 143   6 C      0.098  1.034  2.868  0.000    19.078     6.238
 144   8 O     -0.500  1.694  4.806  0.000    22.895     6.459
 145   6 C     -0.162  0.982  3.180  0.000    23.678     6.935
 146   1 H      0.194  0.806  0.000  0.000     1.134     1.668
 147   1 H      0.071  0.929  0.000  0.000     2.070     2.250
 148   1 H      0.050  0.950  0.000  0.000     2.322     2.383
 149   1 H      0.325  0.675  0.000  0.000     0.650     1.266
 150   1 H      0.074  0.926  0.000  0.000     2.036     2.231
 151   1 H      0.074  0.926  0.000  0.000     2.044     2.236
 152   1 H      0.073  0.927  0.000  0.000     2.055     2.242
 153   7 N     -0.184  1.211  3.973  0.000    24.977     7.423
 154   6 C     -0.006  1.055  2.951  0.000    20.694     6.478
 155   6 C      0.273  1.045  2.682  0.000    22.382     7.747
 156   8 O     -0.487  1.742  4.745  0.000    23.493     6.498
 157   6 C     -0.037  1.046  2.991  0.000    21.192     6.548
 158   6 C     -0.153  0.980  3.173  0.000    23.488     6.907
 159   6 C     -0.157  0.978  3.179  0.000    23.565     6.917
 160   1 H      0.219  0.781  0.000  0.000     1.013     1.576
 161   1 H      0.099  0.901  0.000  0.000     1.797     2.096
 162   1 H      0.065  0.935  0.000  0.000     2.144     2.289
 163   1 H      0.070  0.930  0.000  0.000     2.085     2.258
 164   1 H      0.056  0.944  0.000  0.000     2.244     2.342
 165   1 H      0.068  0.932  0.000  0.000     2.109     2.271
 166   1 H      0.071  0.929  0.000  0.000     2.078     2.254
 167   1 H      0.069  0.931  0.000  0.000     2.100     2.266
 168   1 H      0.056  0.944  0.000  0.000     2.242     2.342
 169   7 N     -0.182  1.207  3.975  0.000    24.951     7.419
 170   6 C      0.013  1.043  2.944  0.000    20.369     6.427
 171   6 C      0.265  1.049  2.687  0.000    22.537     7.774
 172   8 O     -0.483  1.749  4.734  0.000    23.412     6.487
 173   6 C     -0.133  1.017  3.116  0.000    23.044     6.832
 174   6 C      0.279  1.035  2.686  0.000    22.274     7.727
 175   8 O     -0.506  1.766  4.741  0.000    23.927     6.558
 176   7 N     -0.294  1.197  4.097  0.000    27.582     7.800
 177   1 H      0.218  0.782  0.000  0.000     1.018     1.580
 178   1 H      0.117  0.883  0.000  0.000     1.636     2.000
 179   1 H      0.098  0.902  0.000  0.000     1.806     2.102
 180   1 H      0.112  0.888  0.000  0.000     1.681     2.027
 181   1 H      0.245  0.755  0.000  0.000     0.903     1.489
 182   1 H      0.245  0.755  0.000  0.000     0.903     1.489
 183   7 N     -0.182  1.207  3.975  0.000    24.941     7.417
 184   6 C      0.011  1.039  2.949  0.000    20.380     6.427
 185   6 C      0.270  1.034  2.696  0.000    22.444     7.758
 186   8 O     -0.483  1.731  4.752  0.000    23.415     6.488
 187   6 C     -0.132  1.020  3.112  0.000    23.016     6.828
 188   6 C      0.282  1.036  2.682  0.000    22.227     7.719
 189   8 O     -0.492  1.763  4.729  0.000    23.612     6.515
 190   7 N     -0.296  1.197  4.099  0.000    27.626     7.806
 191   1 H      0.222  0.778  0.000  0.000     1.000     1.566
 192   1 H      0.106  0.894  0.000  0.000     1.731     2.058
 193   1 H      0.097  0.903  0.000  0.000     1.813     2.105
 194   1 H      0.112  0.888  0.000  0.000     1.680     2.027
 195   1 H      0.244  0.756  0.000  0.000     0.908     1.492
 196   1 H      0.232  0.768  0.000  0.000     0.955     1.530
 197   7 N     -0.189  1.217  3.973  0.000    25.102     7.441
 198   6 C      0.001  1.041  2.959  0.000    20.570     6.457
 199   6 C      0.265  1.043  2.692  0.000    22.526     7.772
 200   8 O     -0.476  1.745  4.732  0.000    23.269     6.467
 201   6 C     -0.110  1.017  3.093  0.000    22.584     6.763
 202   6 C     -0.030  1.029  3.001  0.000    21.076     6.529
 203   6 C     -0.148  0.975  3.173  0.000    23.392     6.892
 204   6 C     -0.160  0.977  3.183  0.000    23.630     6.926
 205   1 H      0.242  0.758  0.000  0.000     0.916     1.499
 206   1 H      0.102  0.898  0.000  0.000     1.768     2.079
 207   1 H      0.077  0.923  0.000  0.000     2.006     2.215
 208   1 H      0.081  0.919  0.000  0.000     1.973     2.196
 209   1 H      0.058  0.942  0.000  0.000     2.219     2.329
 210   1 H      0.055  0.945  0.000  0.000     2.255     2.348
 211   1 H      0.046  0.954  0.000  0.000     2.366     2.405
 212   1 H      0.059  0.941  0.000  0.000     2.216     2.328
 213   1 H      0.059  0.941  0.000  0.000     2.209     2.324
 214   1 H      0.057  0.943  0.000  0.000     2.234     2.337
 215   1 H      0.059  0.941  0.000  0.000     2.214     2.327
 216   7 N     -0.194  1.208  3.986  0.000    25.199     7.456
 217   6 C     -0.016  1.051  2.965  0.000    20.865     6.503
 218   6 C      0.268  1.040  2.693  0.000    22.484     7.765
 219   8 O     -0.487  1.752  4.735  0.000    23.502     6.500
 220   6 C      0.089  1.030  2.881  0.000    19.193     6.254
 221   8 O     -0.487  1.685  4.802  0.000    22.615     6.420
 222   6 C     -0.176  0.981  3.195  0.000    23.973     6.978
 223   1 H      0.235  0.765  0.000  0.000     0.942     1.520
 224   1 H      0.099  0.901  0.000  0.000     1.798     2.096
 225   1 H      0.075  0.925  0.000  0.000     2.027     2.226
 226   1 H      0.321  0.679  0.000  0.000     0.659     1.275
 227   1 H      0.090  0.910  0.000  0.000     1.876     2.142
 228   1 H      0.076  0.924  0.000  0.000     2.017     2.221
 229   1 H      0.086  0.914  0.000  0.000     1.922     2.168
 230   7 N     -0.183  1.205  3.978  0.000    24.954     7.419
 231   6 C      0.001  1.043  2.956  0.000    20.571     6.458
 232   6 C      0.271  1.038  2.691  0.000    22.415     7.753
 233   8 O     -0.499  1.745  4.754  0.000    23.763     6.536
 234   6 C      0.040  1.003  2.957  0.000    20.092     6.417
 235   8 O     -0.498  1.680  4.818  0.000    22.851     6.453
 236   1 H      0.220  0.780  0.000  0.000     1.010     1.574
 237   1 H      0.106  0.894  0.000  0.000     1.728     2.056
 238   1 H      0.076  0.924  0.000  0.000     2.018     2.221
 239   1 H      0.072  0.928  0.000  0.000     2.059     2.244
 240   1 H      0.354  0.646  0.000  0.000     0.578     1.194
 241   7 N     -0.189  1.219  3.970  0.000    25.095     7.440
 242   6 C      0.002  1.043  2.955  0.000    20.543     6.453
 243   6 C      0.273  1.036  2.691  0.000    22.389     7.749
 244   8 O     -0.490  1.745  4.745  0.000    23.554     6.507
 245   6 C     -0.173  0.983  3.189  0.000    23.900     6.967
 246   1 H      0.249  0.751  0.000  0.000     0.888     1.476
 247   1 H      0.101  0.899  0.000  0.000     1.775     2.083
 248   1 H      0.086  0.914  0.000  0.000     1.914     2.163
 249   1 H      0.089  0.911  0.000  0.000     1.891     2.150
 250   1 H      0.084  0.916  0.000  0.000     1.938     2.177
 251   7 N     -0.189  1.207  3.982  0.000    25.104     7.441
 252   6 C      0.011  1.036  2.953  0.000    20.386     6.428
 253   6 C      0.274  1.046  2.679  0.000    22.366     7.744
 254   8 O     -0.514  1.751  4.764  0.000    24.106     6.583
 255   6 C     -0.104  1.006  3.098  0.000    22.462     6.745
 256   6 C     -0.116  1.010  3.106  0.000    22.708     6.782
 257   6 C     -0.051  1.016  3.034  0.000    21.546     6.620
 258   7 N     -0.144  1.175  3.968  0.000    24.111     7.293
 259   6 C      0.223  1.018  2.760  0.000    23.308     7.905
 260   7 N     -0.242  1.164  4.078  0.000    26.321     7.620
 261   7 N     -0.267  1.171  4.096  0.000    26.904     7.703
 262   1 H      0.238  0.762  0.000  0.000     0.932     1.512
 263   1 H      0.099  0.901  0.000  0.000     1.796     2.095
 264   1 H      0.075  0.925  0.000  0.000     2.035     2.231
 265   1 H      0.094  0.906  0.000  0.000     1.841     2.122
 266   1 H      0.095  0.905  0.000  0.000     1.832     2.117
 267   1 H      0.078  0.922  0.000  0.000     2.002     2.213
 268   1 H      0.091  0.909  0.000  0.000     1.867     2.137
 269   1 H      0.121  0.879  0.000  0.000     1.608     1.983
 270   1 H      0.226  0.774  0.000  0.000     0.983     1.553
 271   1 H      0.238  0.762  0.000  0.000     0.931     1.511
 272   1 H      0.251  0.749  0.000  0.000     0.881     1.470
 273   1 H      0.251  0.749  0.000  0.000     0.881     1.470
 274   1 H      0.259  0.741  0.000  0.000     0.848     1.442
 275   7 N     -0.181  1.207  3.974  0.000    24.923     7.415
 276   6 C      0.016  1.040  2.944  0.000    20.306     6.417
 277   6 C      0.276  1.041  2.683  0.000    22.327     7.737
 278   8 O     -0.498  1.769  4.729  0.000    23.733     6.532
 279   6 C      0.050  1.001  2.950  0.000    19.933     6.391
 280   8 O     -0.514  1.698  4.816  0.000    23.199     6.502
 281   1 H      0.235  0.765  0.000  0.000     0.944     1.522
 282   1 H      0.087  0.913  0.000  0.000     1.912     2.162
 283   1 H      0.079  0.921  0.000  0.000     1.988     2.205
 284   1 H      0.080  0.920  0.000  0.000     1.976     2.198
 285   1 H      0.358  0.642  0.000  0.000     0.568     1.184
 286   7 N     -0.196  1.207  3.989  0.000    25.263     7.465
 287   6 C      0.002  1.047  2.951  0.000    20.547     6.454
 288   6 C      0.276  1.043  2.681  0.000    22.331     7.738
 289   8 O     -0.501  1.755  4.746  0.000    23.796     6.540
 290   6 C     -0.109  1.012  3.096  0.000    22.559     6.760
 291   6 C     -0.110  1.014  3.096  0.000    22.586     6.764
 292   6 C     -0.056  1.020  3.035  0.000    21.634     6.633
 293   7 N     -0.141  1.178  3.964  0.000    24.057     7.285
 294   6 C      0.221  1.017  2.762  0.000    23.337     7.910
 295   7 N     -0.253  1.164  4.088  0.000    26.570     7.655
 296   7 N     -0.263  1.168  4.095  0.000    26.822     7.692
 297   1 H      0.230  0.770  0.000  0.000     0.967     1.540
 298   1 H      0.094  0.906  0.000  0.000     1.840     2.121
 299   1 H      0.100  0.900  0.000  0.000     1.783     2.088
 300   1 H      0.085  0.915  0.000  0.000     1.931     2.173
 301   1 H      0.103  0.897  0.000  0.000     1.754     2.071
 302   1 H      0.083  0.917  0.000  0.000     1.947     2.182
 303   1 H      0.110  0.890  0.000  0.000     1.699     2.038
 304   1 H      0.115  0.885  0.000  0.000     1.652     2.010
 305   1 H      0.224  0.776  0.000  0.000     0.992     1.560
 306   1 H      0.252  0.748  0.000  0.000     0.876     1.466
 307   1 H      0.252  0.748  0.000  0.000     0.875     1.465
 308   1 H      0.234  0.766  0.000  0.000     0.948     1.525
 309   1 H      0.256  0.744  0.000  0.000     0.862     1.454
 310   7 N     -0.192  1.211  3.980  0.000    25.155     7.449
 311   6 C      0.001  1.049  2.950  0.000    20.565     6.457
 312   6 C      0.272  1.045  2.684  0.000    22.411     7.752
 313   8 O     -0.510  1.757  4.753  0.000    24.007     6.569
 314   6 C     -0.045  1.045  3.000  0.000    21.335     6.569
 315   6 C     -0.094  1.004  3.090  0.000    22.284     6.719
 316   6 C     -0.169  0.979  3.190  0.000    23.816     6.954
 317   6 C     -0.151  0.973  3.178  0.000    23.456     6.902
 318   1 H      0.217  0.783  0.000  0.000     1.024     1.585
 319   1 H      0.096  0.904  0.000  0.000     1.819     2.109
 320   1 H      0.054  0.946  0.000  0.000     2.270     2.356
 321   1 H      0.059  0.941  0.000  0.000     2.213     2.326
 322   1 H      0.059  0.941  0.000  0.000     2.211     2.325
 323   1 H      0.093  0.907  0.000  0.000     1.850     2.127
 324   1 H      0.049  0.951  0.000  0.000     2.326     2.385
 325   1 H      0.072  0.928  0.000  0.000     2.060     2.244
 326   1 H      0.061  0.939  0.000  0.000     2.186     2.312
 327   1 H      0.050  0.950  0.000  0.000     2.325     2.384
 328   1 H      0.071  0.929  0.000  0.000     2.078     2.254
 329   7 N     -0.191  1.215  3.976  0.000    25.145     7.447
 330   6 C      0.023  1.034  2.943  0.000    20.185     6.396
 331   6 C      0.280  1.037  2.683  0.000    22.270     7.728
 332   8 O     -0.491  1.755  4.736  0.000    23.581     6.511
 333   6 C     -0.061  0.998  3.063  0.000    21.654     6.622
 334   6 C     -0.120  1.011  3.108  0.000    22.780     6.793
 335   6 C      0.360  1.024  2.615  0.000    20.885     7.479
 336   8 O     -0.657  1.779  4.878  0.000    27.562     7.039
 337   8 O     -0.634  1.762  4.873  0.000    26.974     6.963
 338   1 H      0.244  0.756  0.000  0.000     0.905     1.490
 339   1 H      0.068  0.932  0.000  0.000     2.109     2.271
 340   1 H      0.050  0.950  0.000  0.000     2.316     2.380
 341   1 H      0.035  0.965  0.000  0.000     2.517     2.481
 342   1 H      0.054  0.946  0.000  0.000     2.271     2.357
 343   1 H      0.058  0.942  0.000  0.000     2.226     2.333
 344   7 N     -0.192  1.210  3.983  0.000    25.173     7.452
 345   6 C      0.029  1.035  2.936  0.000    20.087     6.381
 346   6 C      0.272  1.043  2.685  0.000    22.395     7.750
 347   8 O     -0.499  1.752  4.748  0.000    23.771     6.537
 348   6 C     -0.114  1.016  3.099  0.000    22.671     6.777
 349   6 C      0.365  1.020  2.615  0.000    20.817     7.467
 350   8 O     -0.652  1.766  4.886  0.000    27.444     7.024
 351   8 O     -0.643  1.779  4.864  0.000    27.211     6.994
 352   1 H      0.203  0.797  0.000  0.000     1.090     1.635
 353   1 H      0.074  0.926  0.000  0.000     2.036     2.231
 354   1 H      0.051  0.949  0.000  0.000     2.304     2.374
 355   1 H      0.067  0.933  0.000  0.000     2.116     2.275
 356   7 N     -0.179  1.200  3.978  0.000    24.867     7.406
 357   6 C      0.020  1.027  2.953  0.000    20.237     6.405
 358   6 C      0.198  1.082  2.720  0.000    23.778     7.986
 359   8 O     -0.340  1.751  4.589  0.000    20.520     6.073
 360   6 C      0.069  0.990  2.942  0.000    19.593     6.332
 361   8 O     -0.500  1.681  4.819  0.000    22.889     6.459
 362   1 H      0.225  0.775  0.000  0.000     0.985     1.555
 363   1 H      0.102  0.898  0.000  0.000     1.769     2.080
 364   1 H      0.075  0.925  0.000  0.000     2.027     2.226
 365   1 H      0.065  0.935  0.000  0.000     2.142     2.288
 366   1 H      0.359  0.641  0.000  0.000     0.567     1.182
 367   1 H      0.194  0.806  0.000  0.000     1.137     1.670
 368   1 H      0.081  0.919  0.000  0.000     1.968     2.194
 369   1 H      0.181  0.819  0.000  0.000     1.207     1.721
 370   1 H      0.091  0.909  0.000  0.000     1.865     2.135
 371   1 H      0.191  0.809  0.000  0.000     1.152     1.681
 372   1 H      0.074  0.926  0.000  0.000     2.044     2.236
 373   1 H      0.182  0.818  0.000  0.000     1.202     1.717
 374   1 H      0.078  0.922  0.000  0.000     2.002     2.212
 375   1 H      0.173  0.827  0.000  0.000     1.255     1.755
 376   1 H      0.073  0.927  0.000  0.000     2.057     2.243
 377   1 H      0.174  0.826  0.000  0.000     1.249     1.751
 378   1 H      0.062  0.938  0.000  0.000     2.180     2.309
 379   1 H      0.186  0.814  0.000  0.000     1.178     1.700
 380   1 H      0.099  0.901  0.000  0.000     1.791     2.092

 Mol. C6AA /au·bohr⁶  :    1276279.593797
 Mol. C8AA /au·bohr⁸  :   28190503.873922
 Mol. α(0) /au        :       1683.616279

 
molecular dipole:
                 x           y           z       tot (Debye)
 q only:      214.964     113.378     244.561
   full:      215.389     113.784     243.137     874.819
molecular quadrupole (traceless):
                xx          xy          yy          xz          yz          zz
 q only:    10269.796   36649.023  -39377.241   79040.879   40933.368   29107.445
  q+dip:    10734.012   36845.368  -39008.016   78741.461   40852.330   28274.005
   full:    10732.020   36844.619  -39007.663   78740.146   40853.037   28275.643
speedup  1.00
cpu  time for grad    7.93 s
wall time for grad    7.93 s

SCC energy    :    -596.5996049
rep           :      12.6537532
ES            :       2.0151442
AES           :      -0.0522801
AXC           :       0.0765720
disp          :      -0.4747408
XB            :       0.0000000
fix           :       0.0000000
Gborn         :       0.0000000
Gsasa         :       0.0000000
Ghb           :       0.0000000
Gshift        :       0.0000000
Gsolv         :      -0.5233999     -328.44
Etot ala COSMO:    -596.5996049
grad norm     :       2.6004462
total E       :    -583.9066371
atomizationE  :     101.7094940    63823.67
(atE without considering molecular charge,
 total energy contains solvation terms)
H-L gap (eV)  :          1.2154

------------------------------------------------------------------------
 * finished run on 2019/03/07 at 11:37:53.871     
------------------------------------------------------------------------
 total:
 * wall-time:     0 d,  0 h,  0 min,  8.747 sec
 *  cpu-time:     0 d,  0 h,  0 min,  8.521 sec
 * ratio c/w:     0.974 speedup
 SCF:
 * wall-time:     0 d,  0 h,  0 min,  8.399 sec
 *  cpu-time:     0 d,  0 h,  0 min,  8.395 sec
 * ratio c/w:     1.000 speedup

