      -----------------------------------------------------------      
     |                   =====================                   |     
     |                           x T B                           |     
     |                   =====================                   |     
     |                         S. Grimme                         |     
     |          Mulliken Center for Theoretical Chemistry        |     
     |                    University of Bonn                     |     
     |                 Version 6.0.1 (SAW181210)                 |     
      -----------------------------------------------------------      

   This program is distributed in the hope that it will be useful,
   but WITHOUT ANY WARRANTY; without even the implied warranty of
   MERCHANTABILITY or FITNESS FOR A PARTICULAR PURPOSE.
   
   FOR NON-COMMERCIAL, ACADEMIA USE ONLY.
   
   Cite this work as:
   S. Grimme, C. Bannwarth, P. Shushkov, J. Comput. Theory Chem., 2017,
   13, 1989-2009.
   C. Bannwarth, S. Ehlert and S. Grimme., ChemRxiv, 2018, preprint.
   http://doi.org/10.26434/chemrxiv.7246238.v1
   
   for sTDA-xTB:
   S. Grimme and C. Bannwarth, J. Chem. Phys., 2016, 145, 054103.
   
   in the mass-spec context:
   V. Asgeirsson, C. Bauer and S. Grimme, Chem. Sci., 2017, 8, 4879.
   
   if GBSA is used:
   P. Shushkov, F. März and S. Grimme, unpublished.
   
   for ANC optimizer:
   S. Grimme, unpublished.
   Rational Function algorithm used in ANCopt:
   F. Eckert, P. Pulay, H.-J. Werner, J. Comput. Chem., 1997, 18, 1473.
   
   with help from (in alphabetical order)
   C. Bannwarth, F. Bohle, G. Brandenburg, E. Caldeweyher, M. Checinski,
   S. Dohm, S. Ehlert, S. Ehrlich, F. März, H. Neugebauer, J. Pisarek,
   P. Pracht, P. Shushkov, and S. Spicher.
   
 * started run on 2019/03/14 at 15:08:18.906     
========================================================================
 # omp threads = 1
========================================================================
number of atoms            : 432
number of electrons        : 1112
charge                     : 2
spin                       : .0
first test random number   : .3401
           ------------------------------------------------- 
          |                 G F N 2 - x T B                 |
          | Geometry, Frequencies, Noncovalent interactions |
          |            JCTC 2018 parametrisation            |
           ------------------------------------------------- 
 
      method parameters     
 k(s)        :  1.8500
 k(p)        :  2.2300
 k(d)        :  2.2300
 k(f)        :  2.0000
 kEN (H0ij)  : -2.0000
 D4 a1       :  0.5200
 D4 a2       :  5.0000
 D4 s6       :  1.0000
 D4 s8       :  2.7000
 D4 s9       :  5.0000
 alphaj      :  2.0000

 Solvent             : h2o
 Using internal parameter file: .param_gbsa2_h2o
 Gsolv ref. state (COSMO-RS): gsolv [1 M gas/solution]
 temperature (mdtemp)       :    298.150000000000     
 dielectric constant        :    80.2000000000000     
 rho                        :    1.00000000000000     
 mass                       :    18.0000000000000     
 surface tension            :    15.5689454083859     
 probe radius               :   0.975313790000000     
 vdW radii scaling          :    1.00000000000000     
 Gshift (Eh)                :   1.857443126794793E-003
 c1                         :    1.55243817000000     
 soset                      :   0.130326360000000     
 HB correction              :  T

            Z     q(EN)     CN     RAES       Cart. coordinates
     1  N   5.0   -0.08    4.27    3.67   120.92969    50.42090    98.19838
     2  C   4.0   -0.00    4.45    4.46   118.22889    50.72023    97.34940
     3  C   4.0    0.14    3.40    3.08   118.06601    50.85211    94.42877
     4  O   6.0   -0.31    1.25    1.80   117.70632    52.79849    93.27235
     5  C   4.0   -0.03    4.34    4.28   117.39934    53.22214    98.53439
     6  C   4.0   -0.04    4.27    4.13   119.79718    54.81140    98.37923
     7  C   4.0   -0.03    4.27    4.14   121.87161    52.95494    99.09279
     8  H   1.0    0.06    1.06    1.44   121.02835    49.22427    99.72230
     9  H   1.0    0.06    1.05    1.44   122.03069    49.68177    96.77797
    10  H   1.0    0.04    1.04    1.43   117.10937    49.11839    98.02003
    11  H   1.0    0.05    1.03    1.43   115.87718    54.10315    97.47473
    12  H   1.0    0.05    1.02    1.43   116.80038    52.93391   100.47905
    13  H   1.0    0.06    1.03    1.43   120.01887    55.48422    96.44824
    14  H   1.0    0.05    1.02    1.43   119.78617    56.42391    99.64505
    15  H   1.0    0.05    1.02    1.43   123.67292    53.46510    98.24691
    16  H   1.0    0.05    1.02    1.43   122.09117    52.85458   101.13721
    17  N   5.0   -0.16    3.46    2.05   118.31536    48.59170    93.27997
    18  C   4.0    0.03    4.40    4.38   118.27541    48.42497    90.54016
    19  C   4.0    0.15    3.42    3.08   115.66526    49.03186    89.42721
    20  O   6.0   -0.33    1.30    1.80   115.38242    49.30817    87.15025
    21  C   4.0   -0.05    4.33    4.25   119.13382    45.82138    89.55941
    22  C   4.0   -0.02    4.18    3.95   120.99408    46.03364    87.33319
    23  C   4.0   -0.07    4.10    3.81   123.71729    46.21198    88.26784
    24  C   4.0   -0.07    4.11    3.81   120.73729    43.76467    85.57421
    25  H   1.0    0.07    1.06    1.44   118.49626    46.96535    94.26569
    26  H   1.0    0.05    1.06    1.44   119.56923    49.87864    89.82030
    27  H   1.0    0.04    1.03    1.43   120.05346    44.76545    91.06948
    28  H   1.0    0.05    1.03    1.43   117.49034    44.73601    88.94645
    29  H   1.0    0.04    1.06    1.44   120.52405    47.73182    86.25313
    30  H   1.0    0.04    1.00    1.43   124.99644    46.42974    86.67507
    31  H   1.0    0.04    1.00    1.43   123.98545    47.80460    89.53385
    32  H   1.0    0.05    1.00    1.43   124.24235    44.47829    89.24137
    33  H   1.0    0.04    1.00    1.43   122.07109    43.91625    84.01774
    34  H   1.0    0.05    1.00    1.43   121.13724    42.01556    86.57682
    35  H   1.0    0.04    1.00    1.43   118.83878    43.66607    84.79549
    36  N   5.0   -0.14    3.50    2.08   113.75090    49.26840    91.06871
    37  C   4.0    0.03    4.43    4.43   111.14376    49.50476    90.24210
    38  C   4.0    0.15    3.45    3.09   110.59490    51.95433    88.81855
    39  O   6.0   -0.31    1.25    1.80   109.01927    52.00554    87.12918
    40  C   4.0   -0.04    4.32    4.23   109.36953    49.19478    92.50425
    41  C   4.0   -0.01    3.52    3.12   108.76025    46.48747    93.21131
    42  C   4.0   -0.03    3.47    3.10   107.30701    46.06047    95.36513
    43  C   4.0   -0.04    3.48    3.11   109.41995    44.42008    91.73351
    44  C   4.0   -0.03    3.38    3.07   106.37552    43.67607    95.88811
    45  C   4.0   -0.04    3.37    3.07   108.47523    42.03306    92.24723
    46  C   4.0   -0.03    3.37    3.07   106.89463    41.66634    94.29268
    47  H   1.0    0.08    1.09    1.44   113.98949    48.71939    92.88041
    48  H   1.0    0.05    1.07    1.44   110.74683    48.04905    88.82775
    49  H   1.0    0.05    1.03    1.43   110.15085    50.20189    94.12984
    50  H   1.0    0.05    1.04    1.43   107.57302    50.10430    92.03254
    51  H   1.0    0.06    1.03    1.43   106.86768    47.59593    96.63834
    52  H   1.0    0.05    1.04    1.43   110.66802    44.62366    90.13975
    53  H   1.0    0.06    1.03    1.43   105.20453    43.38723    97.53218
    54  H   1.0    0.05    1.03    1.43   108.94322    40.45280    91.03985
    55  H   1.0    0.06    1.03    1.43   106.09679    39.82336    94.65089
    56  N   5.0   -0.14    3.52    2.09   111.90147    54.01243    89.49740
    57  C   4.0    0.04    4.50    4.53   111.55546    56.28562    88.00448
    58  C   4.0    0.15    3.48    3.11   112.94150    55.97751    85.49508
    59  O   6.0   -0.31    1.30    1.80   111.99229    56.56642    83.47138
    60  C   4.0   -0.04    4.30    4.20   112.35543    58.65802    89.43209
    61  C   4.0   -0.01    3.56    3.14   110.95999    58.91959    91.90753
    62  C   4.0   -0.04    3.46    3.10   112.16867    59.99100    93.98176
    63  C   4.0   -0.04    3.49    3.11   108.46965    58.13289    92.17829
    64  C   4.0   -0.03    3.43    3.09   110.93230    60.27026    96.26256
    65  C   4.0   -0.04    3.43    3.09   107.21608    58.38042    94.45581
    66  C   4.0    0.07    3.45    3.09   108.44053    59.45692    96.51545
    67  O   6.0   -0.23    2.11    1.84   107.28740    59.73937    98.79339
    68  H   1.0    0.09    1.06    1.44   113.16776    53.97459    90.92471
    69  H   1.0    0.06    1.07    1.44   109.54853    56.39191    87.51163
    70  H   1.0    0.04    1.03    1.43   114.38904    58.63020    89.77884
    71  H   1.0    0.05    1.03    1.43   111.95070    60.27866    88.21405
    72  H   1.0    0.05    1.03    1.43   114.09509    60.64300    93.80673
    73  H   1.0    0.05    1.03    1.43   107.45460    57.31380    90.61266
    74  H   1.0    0.07    1.03    1.43   111.86167    61.12443    97.86442
    75  H   1.0    0.06    1.03    1.43   105.27976    57.74553    94.62563
    76  H   1.0    0.13    1.04    1.43   105.55623    59.16180    98.70543
    77  N   5.0   -0.14    3.54    2.11   115.23932    54.95297    85.68962
    78  C   4.0    0.04    4.50    4.54   116.74157    54.49842    83.45048
    79  C   4.0    0.16    3.54    3.13   115.09638    53.05804    81.55461
    80  O   6.0   -0.32    1.41    1.80   114.92585    53.78997    79.36274
    81  C   4.0   -0.02    4.24    4.08   119.27029    53.17117    84.01493
    82  C   4.0   -0.08    4.12    3.84   121.10699    53.68185    81.84732
    83  C   4.0   -0.07    4.14    3.87   120.45675    54.13632    86.46556
    84  H   1.0    0.09    1.08    1.44   115.92389    54.43870    87.39095
    85  H   1.0    0.05    1.06    1.44   117.15020    56.32716    82.54451
    86  H   1.0    0.05    1.05    1.44   118.90984    51.13977    84.14791
    87  H   1.0    0.04    1.00    1.43   122.85240    52.63413    82.11772
    88  H   1.0    0.05    1.00    1.43   120.28403    53.14505    80.04462
    89  H   1.0    0.04    1.00    1.43   121.57918    55.68271    81.77700
    90  H   1.0    0.04    1.00    1.43   122.34967    53.36207    86.65302
    91  H   1.0    0.04    1.00    1.43   120.61612    56.18314    86.40963
    92  H   1.0    0.05    1.00    1.43   119.37200    53.59296    88.12152
    93  N   5.0   -0.14    3.48    2.07   113.77678    51.07236    82.37781
    94  C   4.0    0.03    4.51    4.55   112.14067    49.71226    80.63196
    95  C   4.0    0.17    3.64    3.19   110.80312    51.57401    78.89204
    96  O   6.0   -0.33    1.30    1.80   110.84027    51.40069    76.57412
    97  C   4.0   -0.02    4.38    4.35   110.00621    48.26070    81.99256
    98  C   4.0   -0.05    4.18    3.96   111.03556    45.99471    83.47077
    99  C   4.0   -0.06    4.17    3.95   108.04421    47.35112    80.06798
   100  C   4.0   -0.07    4.02    3.66   108.99445    44.78910    85.11934
   101  H   1.0    0.11    1.10    1.44   114.06523    50.35630    84.13463
   102  H   1.0    0.05    1.04    1.44   113.26351    48.42699    79.44430
   103  H   1.0    0.06    1.06    1.44   109.12684    49.57720    83.32623
   104  H   1.0    0.04    1.03    1.43   111.78564    44.63570    82.11399
   105  H   1.0    0.05    1.03    1.43   112.58413    46.63541    84.67126
   106  H   1.0    0.05    1.00    1.43   106.40506    46.58320    81.02979
   107  H   1.0    0.07    1.01    1.43   107.34638    48.82722    78.82274
   108  H   1.0    0.05    1.00    1.43   108.87103    45.89225    78.88127
   109  H   1.0    0.04    1.00    1.43   109.74067    43.32088    86.34966
   110  H   1.0    0.05    1.00    1.43   108.12425    46.24992    86.27579
   111  H   1.0    0.05    1.00    1.43   107.53157    43.90621    83.98557
   112  N   5.0   -0.14    3.59    2.15   109.33474    53.25001    80.09509
   113  C   4.0    0.05    4.47    4.49   107.45191    54.67490    78.73761
   114  C   4.0    0.15    3.44    3.09   108.54074    57.06836    77.56337
   115  O   6.0   -0.33    1.29    1.80   107.21016    58.39941    76.22499
   116  C   4.0   -0.03    4.33    4.26   105.24035    55.50317    80.39961
   117  C   4.0    0.16    3.23    3.04   103.79252    53.21736    81.37300
   118  O   6.0   -0.29    1.21    1.80   103.19495    51.48379    79.97645
   119  N   5.0   -0.18    3.18    1.95   103.20651    53.28571    83.83313
   120  H   1.0    0.10    1.07    1.44   109.36823    53.40451    81.99791
   121  H   1.0    0.07    1.06    1.44   106.71601    53.42378    77.24384
   122  H   1.0    0.05    1.03    1.43   105.91509    56.73225    81.90572
   123  H   1.0    0.06    1.03    1.43   103.97027    56.59197    79.18487
   124  H   1.0    0.10    1.03    1.43   102.28919    51.80597    84.60954
   125  H   1.0    0.09    1.03    1.43   103.84446    54.66659    84.96708
   126  N   5.0   -0.14    3.57    2.13   110.95409    57.53074    78.13780
   127  C   4.0    0.03    4.45    4.46   112.37202    59.68608    77.26862
   128  C   4.0    0.14    3.39    3.08   114.60825    58.96460    75.55278
   129  O   6.0   -0.31    1.21    1.80   115.77526    60.62170    74.43512
   130  C   4.0   -0.03    4.31    4.21   113.09924    61.38286    79.48553
   131  C   4.0   -0.01    3.54    3.13   110.83629    62.53663    80.79813
   132  C   4.0   -0.04    3.47    3.10   111.18951    63.56181    83.19164
   133  C   4.0   -0.03    3.51    3.12   108.42259    62.61171    79.76776
   134  C   4.0   -0.04    3.38    3.07   109.18852    64.58140    84.52761
   135  C   4.0   -0.04    3.38    3.07   106.39963    63.57051    81.12437
   136  C   4.0   -0.04    3.37    3.07   106.77431    64.55445    83.51468
   137  H   1.0    0.12    1.12    1.45   111.74490    56.55044    79.58361
   138  H   1.0    0.05    1.09    1.44   111.16535    60.80411    76.02617
   139  H   1.0    0.06    1.03    1.43   114.13991    60.23953    80.85329
   140  H   1.0    0.05    1.03    1.43   114.34336    62.86345    78.75803
   141  H   1.0    0.05    1.03    1.43   113.06637    63.56412    83.99544
   142  H   1.0    0.07    1.06    1.44   108.04336    61.89214    77.90730
   143  H   1.0    0.05    1.03    1.43   109.53057    65.39120    86.36798
   144  H   1.0    0.05    1.03    1.43   104.53836    63.52162    80.28254
   145  H   1.0    0.05    1.03    1.43   105.20332    65.29057    84.58177
   146  N   5.0   -0.14    3.55    2.11   114.95931    56.47998    75.19924
   147  C   4.0    0.03    4.45    4.46   116.51361    55.36877    73.22405
   148  C   4.0    0.14    3.48    3.11   114.75171    54.77241    71.03124
   149  O   6.0   -0.33    1.36    1.80   115.29307    55.42349    68.86642
   150  C   4.0   -0.02    4.27    4.13   118.10353    53.08119    74.12964
   151  C   4.0   -0.05    4.16    3.91   120.49075    52.49289    72.53709
   152  C   4.0   -0.07    4.14    3.88   116.57334    50.63667    74.29200
   153  C   4.0   -0.07    4.01    3.64   121.69004    54.65840    71.07056
   154  H   1.0    0.12    1.13    1.45   114.01971    55.28591    76.35451
   155  H   1.0    0.06    1.07    1.44   117.79572    56.85383    72.56798
   156  H   1.0    0.05    1.06    1.44   118.70160    53.60237    76.03715
   157  H   1.0    0.04    1.03    1.43   121.90557    51.70992    73.81976
   158  H   1.0    0.04    1.03    1.43   120.03752    51.01341    71.17028
   159  H   1.0    0.04    1.00    1.43   117.76963    49.15206    75.05824
   160  H   1.0    0.07    1.01    1.43   114.93988    50.83206    75.51319
   161  H   1.0    0.05    1.00    1.43   115.94731    50.04558    72.42390
   162  H   1.0    0.04    1.00    1.43   123.42364    53.99811    70.18490
   163  H   1.0    0.05    1.00    1.43   120.42914    55.27428    69.57094
   164  H   1.0    0.04    1.00    1.43   122.15697    56.25478    72.27449
   165  N   5.0   -0.15    3.52    2.09   112.52088    53.74948    71.60294
   166  C   4.0    0.04    4.47    4.49   110.66632    53.25208    69.65643
   167  C   4.0    0.15    3.55    3.14   110.14203    55.60846    68.07113
   168  O   6.0   -0.33    1.35    1.80   110.14614    55.39484    65.75662
   169  C   4.0    0.05    4.21    4.02   108.29426    51.95045    70.77789
   170  O   6.0   -0.26    2.13    1.84   108.99335    49.64195    71.89013
   171  C   4.0   -0.07    4.10    3.80   106.41412    51.34604    68.68269
   172  H   1.0    0.10    1.09    1.44   112.15963    53.07757    73.35717
   173  H   1.0    0.05    1.07    1.44   111.43947    51.88389    68.29783
   174  H   1.0    0.05    1.03    1.43   107.42440    53.21020    72.18239
   175  H   1.0    0.15    1.05    1.44   109.73031    49.91830    73.54358
   176  H   1.0    0.05    1.00    1.43   104.79243    50.38096    69.48905
   177  H   1.0    0.04    1.00    1.43   105.80686    53.05999    67.74204
   178  H   1.0    0.05    1.00    1.43   107.30334    50.09424    67.31734
   179  N   5.0   -0.10    3.68    2.24   109.64550    57.85881    69.12575
   180  C   4.0    0.04    4.63    4.69   109.14307    59.98229    67.46705
   181  C   4.0    0.16    3.49    3.11   111.49756    60.68722    66.00708
   182  O   6.0   -0.33    1.39    1.80   111.32511    61.62172    63.90454
   183  C   4.0   -0.04    4.30    4.20   108.31708    62.19083    69.15265
   184  C   4.0   -0.04    4.24    4.07   109.23287    61.48567    71.80441
   185  C   4.0   -0.00    4.41    4.39   110.12281    58.72672    71.66945
   186  H   1.0    0.05    1.05    1.44   107.70639    59.49208    66.06478
   187  H   1.0    0.05    1.03    1.43   109.17125    63.94153    68.48442
   188  H   1.0    0.04    1.02    1.43   106.27544    62.42817    69.09114
   189  H   1.0    0.05    1.02    1.43   110.80014    62.69335    72.37549
   190  H   1.0    0.06    1.03    1.43   107.71794    61.64803    73.18374
   191  H   1.0    0.06    1.06    1.44   112.13547    58.63740    72.10905
   192  H   1.0    0.07    1.06    1.44   109.11511    57.53890    72.99990
   193  N   5.0   -0.14    3.52    2.09   113.72028    60.35160    67.16146
   194  C   4.0    0.04    4.55    4.60   116.04850    60.91902    65.86238
   195  C   4.0    0.16    3.52    3.12   116.51751    59.14919    63.62386
   196  O   6.0   -0.33    1.37    1.80   117.40067    59.99324    61.64474
   197  C   4.0   -0.04    4.11    3.83   118.28192    60.88255    67.65868
   198  S   6.0   -0.04    2.38    3.10   120.99840    62.23357    65.97231
   199  H   1.0    0.10    1.09    1.44   113.85757    59.47762    68.84431
   200  H   1.0    0.05    1.09    1.44   115.89562    62.81993    65.05610
   201  H   1.0    0.05    1.06    1.44   117.88214    62.06972    69.29193
   202  H   1.0    0.05    1.06    1.44   118.76352    58.96630    68.23497
   203  H   1.0    0.04    0.99    1.43   122.35805    62.39029    68.07263
   204  N   5.0   -0.14    3.53    2.10   115.91847    56.73421    63.93375
   205  C   4.0    0.04    4.51    4.55   116.36250    54.95063    61.90230
   206  C   4.0    0.15    3.47    3.10   114.33543    55.32216    59.88246
   207  O   6.0   -0.31    1.28    1.80   114.87773    55.32457    57.62415
   208  C   4.0   -0.02    4.24    4.08   116.55797    52.17141    62.76360
   209  C   4.0   -0.07    4.11    3.83   118.78768    51.86453    64.56585
   210  C   4.0   -0.07    4.13    3.86   114.13034    51.27149    64.01839
   211  H   1.0    0.12    1.13    1.45   115.38930    56.10478    65.66518
   212  H   1.0    0.06    1.06    1.44   118.16167    55.47709    61.00604
   213  H   1.0    0.05    1.05    1.44   116.91185    51.06869    61.04822
   214  H   1.0    0.04    1.00    1.43   118.89182    49.93415    65.25922
   215  H   1.0    0.05    1.00    1.43   120.55161    52.30741    63.61327
   216  H   1.0    0.05    1.01    1.43   118.53753    53.12211    66.16820
   217  H   1.0    0.04    1.00    1.43   114.31718    49.35150    64.72652
   218  H   1.0    0.06    1.02    1.43   113.72164    52.50521    65.59838
   219  H   1.0    0.05    1.00    1.43   112.55883    51.32786    62.70331
   220  N   5.0   -0.14    3.51    2.09   111.97969    55.69138    60.71164
   221  C   4.0    0.04    4.43    4.43   110.02008    56.15411    58.86797
   222  C   4.0    0.15    3.49    3.11   110.43905    58.74370    57.65178
   223  O   6.0   -0.34    1.42    1.80   110.03220    59.00812    55.38754
   224  C   4.0   -0.05    4.34    4.27   107.31598    55.99325    59.87742
   225  C   4.0   -0.02    4.18    3.96   106.67325    53.68298    61.50706
   226  C   4.0   -0.08    4.12    3.83   104.10795    54.16774    62.74071
   227  C   4.0   -0.08    4.09    3.79   106.60683    51.22589    60.00273
   228  H   1.0    0.11    1.10    1.44   111.51799    55.64259    62.57260
   229  H   1.0    0.05    1.06    1.44   110.26692    54.78357    57.32425
   230  H   1.0    0.05    1.03    1.43   106.94393    57.69742    60.97707
   231  H   1.0    0.04    1.03    1.43   106.07102    55.99320    58.22936
   232  H   1.0    0.06    1.08    1.44   108.08078    53.50281    62.99895
   233  H   1.0    0.04    1.00    1.43   103.50368    52.52384    63.80969
   234  H   1.0    0.04    1.00    1.43   104.22861    55.77833    64.01156
   235  H   1.0    0.04    1.00    1.43   102.69950    54.57173    61.30137
   236  H   1.0    0.04    1.00    1.43   106.29672    49.64180    61.27500
   237  H   1.0    0.04    1.00    1.43   105.07919    51.25037    58.62901
   238  H   1.0    0.04    1.00    1.43   108.37178    50.90680    59.00042
   239  N   5.0   -0.14    3.52    2.09   111.26014    60.64952    59.07015
   240  C   4.0    0.04    4.56    4.61   111.71585    63.07639    57.87772
   241  C   4.0    0.15    3.56    3.14   113.96177    62.90171    56.11134
   242  O   6.0   -0.29    1.26    1.80   114.04554    64.14318    54.16128
   243  C   4.0   -0.02    4.35    4.29   112.07877    65.30136    59.70513
   244  C   4.0   -0.04    4.22    4.05   111.85951    67.76176    58.19578
   245  C   4.0   -0.06    4.17    3.94   114.63505    65.17211    61.02382
   246  C   4.0   -0.07    4.02    3.66   111.50653    70.02961    59.91423
   247  H   1.0    0.12    1.15    1.45   111.33662    60.62794    60.98887
   248  H   1.0    0.05    1.08    1.44   110.09239    63.51134    56.67612
   249  H   1.0    0.05    1.06    1.44   110.56856    65.21407    61.11374
   250  H   1.0    0.06    1.03    1.43   113.54441    67.98361    57.02549
   251  H   1.0    0.04    1.03    1.43   110.25833    67.65561    56.91169
   252  H   1.0    0.05    1.00    1.43   114.64383    66.33573    62.71392
   253  H   1.0    0.07    1.03    1.43   115.05654    63.24833    61.54753
   254  H   1.0    0.05    1.00    1.43   116.13773    65.79433    59.76946
   255  H   1.0    0.05    1.00    1.43   111.22675    71.74621    58.82216
   256  H   1.0    0.04    1.00    1.43   109.85266    69.75938    61.10148
   257  H   1.0    0.05    1.00    1.43   113.15279    70.27755    61.11334
   258  N   5.0   -0.13    3.56    2.12   115.80557    61.30836    56.76805
   259  C   4.0    0.05    4.42    4.42   117.84572    60.90086    55.01361
   260  C   4.0    0.16    3.47    3.10   116.83708    59.53846    52.68861
   261  O   6.0   -0.26    1.23    1.80   117.85341    59.89508    50.63145
   262  C   4.0    0.05    4.15    3.90   120.03454    59.40843    56.19094
   263  O   6.0   -0.24    2.04    1.83   121.28169    60.74741    58.09281
   264  H   1.0    0.11    1.10    1.44   115.92438    60.53808    58.51450
   265  H   1.0    0.07    1.05    1.44   118.56170    62.74052    54.35424
   266  H   1.0    0.06    1.01    1.43   119.29655    57.59663    56.88004
   267  H   1.0    0.07    1.02    1.43   121.43216    59.05257    54.71250
   268  H   1.0    0.15    1.06    1.44   120.16095    60.89468    59.53898
   269  N   5.0   -0.13    3.52    2.09   114.84344    58.04063    52.98541
   270  C   4.0    0.05    4.40    4.39   113.43868    57.11361    50.82396
   271  C   4.0    0.17    3.52    3.12   112.12696    59.36720    49.53103
   272  O   6.0   -0.26    1.28    1.80   112.36706    59.60671    47.23573
   273  C   4.0   -0.03    4.29    4.18   111.62219    54.94152    51.52878
   274  C   4.0   -0.01    3.61    3.17   109.04548    55.28956    50.37295
   275  C   4.0   -0.03    3.49    3.11   107.05297    56.25002    51.78185
   276  C   4.0   -0.02    3.47    3.10   108.61937    54.65727    47.86495
   277  C   4.0   -0.04    3.40    3.08   104.76037    56.79333    50.66291
   278  C   4.0   -0.02    3.38    3.07   106.32296    55.21338    46.73256
   279  C   4.0   -0.03    3.38    3.07   104.43060    56.38158    48.10344
   280  H   1.0    0.12    1.10    1.44   114.32449    57.45613    54.73584
   281  H   1.0    0.07    1.06    1.44   114.79868    56.44480    49.40196
   282  H   1.0    0.05    1.03    1.43   112.42080    53.14932    50.89591
   283  H   1.0    0.06    1.04    1.43   111.47713    54.89695    53.57808
   284  H   1.0    0.07    1.05    1.44   107.30724    56.62958    53.75774
   285  H   1.0    0.07    1.03    1.43   110.09012    53.72731    46.80016
   286  H   1.0    0.05    1.03    1.43   103.22488    57.51089    51.79371
   287  H   1.0    0.07    1.03    1.43   105.99031    54.71681    44.77792
   288  H   1.0    0.06    1.03    1.43   102.69614    56.93421    47.20154
   289  N   5.0   -0.13    3.46    2.06   110.88833    61.07774    50.89075
   290  C   4.0    0.05    4.36    4.31   109.72680    63.19398    49.58800
   291  C   4.0    0.12    3.29    3.05   111.66570    64.68715    48.06486
   292  O   6.0   -0.25    1.12    1.80   111.05519    65.62496    46.03682
   293  C   4.0   -0.04    4.35    4.28   108.43343    65.16352    51.28290
   294  C   4.0   -0.02    4.19    3.99   106.65309    64.05983    53.27140
   295  C   4.0   -0.07    4.11    3.81   105.53239    66.13088    54.93886
   296  C   4.0   -0.07    4.13    3.87   104.51488    62.53225    52.11564
   297  H   1.0    0.12    1.13    1.45   110.50577    60.74008    52.74307
   298  H   1.0    0.06    1.05    1.44   108.36026    62.46575    48.20402
   299  H   1.0    0.06    1.03    1.43   109.90202    66.28451    52.20722
   300  H   1.0    0.06    1.03    1.43   107.37629    66.40444    50.01502
   301  H   1.0    0.05    1.07    1.44   107.76132    62.77732    54.44044
   302  H   1.0    0.04    1.00    1.43   104.90053    65.33370    56.72293
   303  H   1.0    0.04    1.00    1.43   106.89454    67.61389    55.32733
   304  H   1.0    0.05    1.00    1.43   103.92344    66.97451    53.98480
   305  H   1.0    0.04    1.00    1.43   103.56241    61.49217    53.60778
   306  H   1.0    0.05    1.00    1.43   103.14285    63.75140    51.19786
   307  H   1.0    0.05    1.02    1.43   105.24661    61.21040    50.73471
   308  N   5.0   -0.20    3.20    1.96   103.77123    75.75597    75.13416
   309  C   4.0    0.03    4.25    4.10   105.48162    74.12135    76.53330
   310  C   4.0    0.07    3.22    3.04   107.12612    75.77589    78.24417
   311  O   6.0   -0.33    1.17    1.80   107.56540    75.22686    80.46098
   312  C   4.0    0.05    4.21    4.02   107.09889    72.50869    74.70318
   313  O   6.0   -0.26    2.11    1.84   105.58775    70.87171    73.25163
   314  C   4.0   -0.06    4.10    3.80   108.95486    70.88355    76.19223
   315  H   1.0    0.09    1.02    1.43   103.59576    75.51817    73.23949
   316  H   1.0    0.05    1.05    1.44   104.38289    72.86537    77.77228
   317  H   1.0    0.04    1.03    1.43   108.13627    73.81354    73.45590
   318  H   1.0    0.12    1.02    1.43   104.43455    71.83041    72.19934
   319  H   1.0    0.05    1.00    1.43   110.04581    69.70672    74.91363
   320  H   1.0    0.04    1.01    1.43   110.20858    72.08996    77.27413
   321  H   1.0    0.05    1.00    1.43   107.91118    69.65482    77.46341
   322  N   5.0   -0.19    3.28    1.97   104.22010    77.28264    84.35309
   323  C   4.0    0.03    4.36    4.30   104.06694    75.20461    86.12517
   324  C   4.0    0.15    3.43    3.09   106.59595    74.88540    87.46441
   325  O   6.0   -0.27    1.23    1.80   106.75154    74.57336    89.76602
   326  C   4.0   -0.05    4.28    4.15   103.34843    72.78152    84.72609
   327  C   4.0   -0.05    4.20    4.00   100.75667    73.06351    83.49267
   328  C   4.0   -0.01    4.25    4.10    98.70136    73.76441    85.41871
   329  N   5.0   -0.14    3.41    2.02    96.32452    72.52611    84.87700
   330  C   4.0    0.10    3.37    3.07    95.92237    70.10051    85.36514
   331  N   5.0   -0.18    3.26    1.97    97.80448    68.54334    85.97710
   332  N   5.0   -0.17    3.24    1.97    93.57502    69.22033    85.18626
   333  H   1.0    0.11    1.05    1.44   104.75964    76.84362    82.57121
   334  H   1.0    0.05    1.05    1.44   102.66593    75.65335    87.58402
   335  H   1.0    0.05    1.03    1.43   104.76626    72.40894    83.27430
   336  H   1.0    0.04    1.03    1.43   103.35915    71.22864    86.07916
   337  H   1.0    0.04    1.03    1.43   100.86835    74.52599    82.04711
   338  H   1.0    0.05    1.03    1.43   100.22968    71.29896    82.57386
   339  H   1.0    0.05    1.03    1.43    99.24258    73.25673    87.34998
   340  H   1.0    0.05    1.03    1.43    98.38977    75.79812    85.42557
   341  H   1.0    0.09    1.07    1.44    94.82113    73.58916    84.39093
   342  H   1.0    0.08    1.04    1.43    99.44185    69.22651    86.67000
   343  H   1.0    0.09    1.04    1.43    97.37430    66.72662    86.35694
   344  H   1.0    0.09    1.04    1.43    92.35849    70.19668    84.08541
   345  H   1.0    0.09    1.03    1.43    93.19478    67.35637    85.35586
   346  N   5.0   -0.14    3.49    2.07   108.63081    75.02592    85.99953
   347  C   4.0    0.04    4.36    4.30   111.13442    74.90869    87.07049
   348  C   4.0    0.10    3.21    3.04   111.70252    76.96174    89.04140
   349  O   6.0   -0.25    1.12    1.80   113.04822    76.35769    90.84118
   350  C   4.0   -0.04    4.34    4.28   113.10969    74.92027    84.96352
   351  C   4.0   -0.02    4.19    3.99   112.75194    72.75664    83.05775
   352  C   4.0   -0.07    4.11    3.82   114.69517    73.00425    80.94164
   353  C   4.0   -0.07    4.11    3.82   112.99078    70.16593    84.29523
   354  H   1.0    0.10    1.10    1.44   108.47372    75.29718    84.10941
   355  H   1.0    0.06    1.06    1.44   111.30063    73.14787    88.15830
   356  H   1.0    0.05    1.03    1.43   112.99445    76.73234    83.98105
   357  H   1.0    0.05    1.03    1.43   114.96237    74.75585    85.85000
   358  H   1.0    0.06    1.06    1.44   110.86717    72.91160    82.22582
   359  H   1.0    0.04    1.00    1.43   114.46503    71.46739    79.59806
   360  H   1.0    0.05    1.00    1.43   114.45313    74.78701    79.95077
   361  H   1.0    0.05    1.00    1.43   116.59487    72.92354    81.71593
   362  H   1.0    0.04    1.00    1.43   112.82221    68.69766    82.86965
   363  H   1.0    0.05    1.00    1.43   114.80935    69.96385    85.22892
   364  H   1.0    0.04    1.00    1.43   111.49968    69.87678    85.67396
   365  N   5.0   -0.20    3.20    1.95   128.65394    74.78509    68.28585
   366  C   4.0    0.03    4.22    4.05   127.69986    73.12246    66.32796
   367  C   4.0    0.09    3.23    3.04   125.23257    74.20783    65.30944
   368  O   6.0   -0.26    1.12    1.80   124.80105    74.27182    63.03511
   369  C   4.0   -0.05    4.36    4.30   127.16944    70.43721    67.22901
   370  C   4.0   -0.02    4.17    3.94   129.49807    68.82707    67.83447
   371  C   4.0   -0.07    4.12    3.84   128.58412    66.17578    68.52031
   372  C   4.0   -0.07    4.11    3.81   131.34198    68.66517    65.62497
   373  H   1.0    0.09    1.02    1.43   128.90323    74.09446    70.05593
   374  H   1.0    0.06    1.05    1.44   129.02650    73.12129    64.73565
   375  H   1.0    0.04    1.03    1.43   125.97321    70.55504    68.90528
   376  H   1.0    0.05    1.03    1.43   126.09887    69.49438    65.73412
   377  H   1.0    0.05    1.05    1.44   130.46620    69.67215    69.45482
   378  H   1.0    0.05    1.00    1.43   130.16970    64.93293    68.90150
   379  H   1.0    0.04    1.00    1.43   127.38755    66.24216    70.18682
   380  H   1.0    0.05    1.00    1.43   127.51568    65.37258    66.95932
   381  H   1.0    0.05    1.00    1.43   132.90108    67.41771    66.10867
   382  H   1.0    0.05    1.00    1.43   130.41463    67.89839    63.95857
   383  H   1.0    0.05    1.00    1.43   132.11861    70.50782    65.15901
   384  N   5.0   -0.21    3.20    1.96    94.79267    43.86127    65.79179
   385  C   4.0    0.03    4.33    4.26    97.08658    43.74453    64.32226
   386  C   4.0    0.08    3.27    3.05    96.63371    42.31593    61.88132
   387  O   6.0   -0.29    1.14    1.80    97.66923    43.08637    59.95310
   388  C   4.0   -0.02    4.34    4.28    99.32933    42.58971    65.75398
   389  C   4.0   -0.05    4.20    4.00   100.11007    44.32034    67.93421
   390  C   4.0   -0.06    4.16    3.91   101.56159    42.18276    63.97200
   391  C   4.0   -0.07    4.02    3.66   101.80902    42.95311    69.81014
   392  H   1.0    0.09    1.03    1.43    94.72073    42.82415    67.39715
   393  H   1.0    0.04    1.06    1.44    97.60617    45.66734    63.72659
   394  H   1.0    0.05    1.06    1.44    98.69763    40.77346    66.51193
   395  H   1.0    0.04    1.03    1.43   101.07405    45.97309    67.16427
   396  H   1.0    0.04    1.03    1.43    98.40878    44.94169    68.90925
   397  H   1.0    0.04    1.00    1.43   103.16010    41.40698    64.99526
   398  H   1.0    0.06    1.01    1.43   101.08416    40.89443    62.44845
   399  H   1.0    0.05    1.00    1.43   102.12531    43.97640    63.14055
   400  H   1.0    0.05    1.00    1.43   102.06905    44.08535    71.50183
   401  H   1.0    0.05    1.00    1.43   100.91730    41.17552    70.32742
   402  H   1.0    0.04    1.00    1.43   103.65354    42.54979    69.00700
   403  N   5.0   -0.19    3.20    1.96    93.20483    46.43566    57.73900
   404  C   4.0    0.04    4.31    4.22    95.11640    48.25590    57.01302
   405  C   4.0    0.09    3.26    3.05    96.93930    47.14315    55.08338
   406  O   6.0   -0.27    1.12    1.80    97.44878    48.42957    53.19895
   407  C   4.0   -0.02    4.33    4.26    96.52634    49.19932    59.38094
   408  C   4.0   -0.05    4.17    3.93    95.10746    51.34368    60.72394
   409  C   4.0   -0.07    4.16    3.92    99.24811    49.91957    58.77048
   410  C   4.0   -0.07    4.02    3.65    95.03242    53.84176    59.29850
   411  H   1.0    0.09    1.03    1.43    93.21858    45.97702    59.60554
   412  H   1.0    0.05    1.06    1.44    94.22908    49.85503    56.02752
   413  H   1.0    0.05    1.07    1.44    96.57779    47.61116    60.69644
   414  H   1.0    0.05    1.03    1.43    93.18668    50.71122    61.12486
   415  H   1.0    0.04    1.03    1.43    96.05401    51.65854    62.53054
   416  H   1.0    0.03    1.00    1.43   100.15709    50.68950    60.44100
   417  H   1.0    0.05    1.01    1.43   100.30288    48.26427    58.16516
   418  H   1.0    0.05    1.00    1.43    99.30570    51.31476    57.26731
   419  H   1.0    0.05    1.00    1.43    94.04338    55.25271    60.41623
   420  H   1.0    0.04    1.00    1.43    96.92978    54.53531    58.94866
   421  H   1.0    0.05    1.00    1.43    94.06535    53.67188    57.49591
   422  H   1.0    0.08    1.04    1.44   113.42500    64.89706    48.72202
   423  H   1.0    0.10    1.07    1.44   102.19054    75.56972    75.73358
   424  H   1.0    0.06    1.05    1.44   107.88783    77.36834    77.56965
   425  H   1.0    0.10    1.07    1.44   102.69405    78.01949    84.20895
   426  H   1.0    0.07    1.04    1.43   110.98841    78.69846    88.82943
   427  H   1.0    0.10    1.07    1.44   130.18776    75.36778    67.83813
   428  H   1.0    0.06    1.05    1.44   123.93321    74.88332    66.50377
   429  H   1.0    0.09    1.07    1.44    94.51232    45.46612    66.28010
   430  H   1.0    0.06    1.04    1.43    95.51732    40.79124    61.87205
   431  H   1.0    0.10    1.07    1.44    91.66256    47.06327    57.39250
   432  H   1.0    0.07    1.04    1.43    97.68008    45.42735    55.36323

  Z AO/shell   Hii/eV     exponent
  1     Wed Apr 25 08:07:45 CEST 2018   EN: 2.200 GM2: 0.406  GM3: 0.0800  RAES: 1.40
     1s    -10.707211    1.230000
  6     Wed Apr 25 08:07:45 CEST 2018   EN: 2.550 GM2: 0.538  GM3: 0.1500  RAES: 3.00
     2s    -13.970922    2.096432
     2p    -10.063292    1.800000
  7     Wed Apr 25 08:07:45 CEST 2018   EN: 3.040 GM2: 0.461  GM3:-0.0640  RAES: 1.90
     2s    -16.686243    2.339881
     2p    -12.523956    2.014332
  8     Wed Apr 25 08:07:45 CEST 2018   EN: 3.440 GM2: 0.452  GM3:-0.0517  RAES: 1.80
     2s    -20.229985    2.439742
     2p    -15.503117    2.137023
 16     Tue Apr 24 11:44:34 CEST 2018   EN: 2.580 GM2: 0.340  GM3:-0.0502  RAES: 3.10
     3s    -20.029654    1.981333
     3p    -11.377694    2.025643
     3d     -0.420282    1.702555
 no old-style atom pair restraining (fixing) potential

molecular fragmentation (1/2 indicates fragments):
111111111111111111111111111111111111111111111111111111111111111111111111
111111111111111111111111111111111111111111111111111111111111111111111111
111111111111111111111111111111111111111111111111111111111111111111111111
111111111111111111111111111111111111111111111111111111111111111111111111
111111111111111111122222222222222222222222222222222222222222222222222222
222222222222222222222222222222222222222222222222222222222222212222222222
# atoms in fragment 1/2:   308   124
 fragment masses (1/2) :     2084.60      721.01
CMA distance (Bohr)    :  10.344
constraining FC (au)   :  0.0500
           ------------------------------------------------- 
          |        Self-Consistent Charge Iterations        |
           ------------------------------------------------- 

 Ncao       : 1032
 Nao        : 1031
 Nshell     : 631
 Nel        : 1112
 T(el)      :   500.0
 intcut     :    35.0
 scfconv/Eh :  0.100E-06
   qconv/e  :  0.100E-04
 intneglect :  0.100E-08
 broydamp   :      0.400
 iter      E             dE          RMSdq      gap      omega  full diag
   1   -628.5057413 -0.628506E+03  0.426E+00    3.06       0.0  T
   2   -629.7594791 -0.125374E+01  0.205E+00    2.09       1.0  T
   3   -629.8264756 -0.669964E-01  0.113E+00    2.18       1.0  T
   4   -629.9181156 -0.916400E-01  0.217E-01    1.62       1.0  T
   5   -629.9229840 -0.486844E-02  0.992E-02    1.81       1.0  T
   6   -629.9238062 -0.822243E-03  0.412E-02    1.78       1.0  T
   7   -629.9240058 -0.199549E-03  0.173E-02    1.76       1.0  T
   8   -629.9240249 -0.191270E-04  0.839E-03    1.75       1.0  T
   9   -629.9240317 -0.681840E-05  0.359E-03    1.75       1.3  T
  10   -629.9240328 -0.108423E-05  0.162E-03    1.75       3.0  T
  11   -629.9240330 -0.191334E-06  0.755E-04    1.75       6.4  T
  12   -629.9240331 -0.392317E-07  0.315E-04    1.75      15.3  T
  13   -629.9240331 -0.133912E-07  0.151E-04    1.75      31.9  T
  14   -629.9240331 -0.165824E-08  0.748E-05    1.75      64.3  T
  15   -629.9240331 -0.486125E-09  0.292E-05    1.75     164.8  T
speedup  1.00
cpu  time for SCC    7.81 s
wall time for SCC    7.82 s

   *** convergence criteria satisfied after 15 iterations ***

          eigenvalues
 #    :         544        545        546        547        548        549        550        551
 occ. :        2.000      2.000      2.000      2.000      2.000      2.000      2.000      2.000
 eps  :       -10.748    -10.741    -10.718    -10.669    -10.649    -10.527    -10.433    -10.317
 #    :         552        553        554        555        556        557        558        559
 occ. :        2.000      2.000      2.000      2.000      2.000      0.000      0.000      0.000
 eps  :       -10.267    -10.044     -9.956     -9.864     -9.839     -8.092     -7.744     -7.576
 #    :         560        561        562        563        564        565        566        567
 occ. :        0.000      0.000      0.000      0.000      0.000      0.000      0.000      0.000
 eps  :        -7.566     -7.507     -7.507     -7.261     -6.982     -6.852     -6.838     -6.802


   #   Z            q   n(s)   n(p)   n(d)      C6AA      α(0)
   1   7 N     -0.055  1.240  3.816  0.000    22.303     7.014
   2   6 C     -0.028  1.086  2.942  0.000    21.067     6.534
   3   6 C      0.264  1.036  2.700  0.000    22.552     7.776
   4   8 O     -0.428  1.742  4.686  0.000    22.255     6.325
   5   6 C     -0.080  1.051  3.030  0.000    22.012     6.676
   6   6 C     -0.085  1.049  3.036  0.000    22.105     6.690
   7   6 C     -0.047  1.065  2.981  0.000    21.462     6.605
   8   1 H      0.288  0.712  0.000  0.000     0.749     1.356
   9   1 H      0.272  0.728  0.000  0.000     0.803     1.404
  10   1 H      0.121  0.879  0.000  0.000     1.603     1.980
  11   1 H      0.097  0.903  0.000  0.000     1.810     2.104
  12   1 H      0.089  0.911  0.000  0.000     1.885     2.147
  13   1 H      0.091  0.909  0.000  0.000     1.866     2.136
  14   1 H      0.089  0.911  0.000  0.000     1.890     2.150
  15   1 H      0.116  0.884  0.000  0.000     1.643     2.005
  16   1 H      0.113  0.887  0.000  0.000     1.667     2.019
  17   7 N     -0.189  1.251  3.937  0.000    25.090     7.439
  18   6 C      0.006  1.068  2.926  0.000    20.490     6.446
  19   6 C      0.270  1.044  2.686  0.000    22.446     7.758
  20   8 O     -0.481  1.740  4.741  0.000    23.365     6.481
  21   6 C     -0.080  1.062  3.018  0.000    22.026     6.681
  22   6 C     -0.013  1.058  2.955  0.000    20.779     6.484
  23   6 C     -0.122  1.042  3.079  0.000    22.889     6.821
  24   6 C     -0.115  1.041  3.074  0.000    22.755     6.801
  25   1 H      0.228  0.772  0.000  0.000     0.974     1.546
  26   1 H      0.101  0.899  0.000  0.000     1.779     2.086
  27   1 H      0.076  0.924  0.000  0.000     2.017     2.221
  28   1 H      0.056  0.944  0.000  0.000     2.242     2.342
  29   1 H      0.043  0.957  0.000  0.000     2.408     2.427
  30   1 H      0.037  0.963  0.000  0.000     2.494     2.469
  31   1 H      0.052  0.948  0.000  0.000     2.299     2.371
  32   1 H      0.045  0.955  0.000  0.000     2.386     2.415
  33   1 H      0.036  0.964  0.000  0.000     2.499     2.472
  34   1 H      0.040  0.960  0.000  0.000     2.447     2.446
  35   1 H      0.035  0.965  0.000  0.000     2.515     2.480
  36   7 N     -0.178  1.249  3.929  0.000    24.859     7.405
  37   6 C      0.010  1.060  2.930  0.000    20.417     6.434
  38   6 C      0.271  1.041  2.688  0.000    22.428     7.756
  39   8 O     -0.487  1.748  4.739  0.000    23.496     6.499
  40   6 C     -0.084  1.057  3.027  0.000    22.088     6.690
  41   6 C      0.010  1.080  2.911  0.000    27.803     8.649
  42   6 C     -0.044  1.081  2.962  0.000    29.081     8.844
  43   6 C     -0.046  1.077  2.969  0.000    29.146     8.854
  44   6 C     -0.031  1.081  2.950  0.000    28.777     8.797
  45   6 C     -0.032  1.081  2.951  0.000    28.793     8.799
  46   6 C     -0.034  1.080  2.954  0.000    28.841     8.807
  47   1 H      0.215  0.785  0.000  0.000     1.033     1.592
  48   1 H      0.089  0.911  0.000  0.000     1.890     2.150
  49   1 H      0.083  0.917  0.000  0.000     1.952     2.185
  50   1 H      0.078  0.922  0.000  0.000     2.001     2.212
  51   1 H      0.048  0.952  0.000  0.000     2.345     2.395
  52   1 H      0.045  0.955  0.000  0.000     2.386     2.416
  53   1 H      0.032  0.968  0.000  0.000     2.556     2.500
  54   1 H      0.031  0.969  0.000  0.000     2.577     2.511
  55   1 H      0.024  0.976  0.000  0.000     2.669     2.555
  56   7 N     -0.175  1.240  3.935  0.000    24.793     7.395
  57   6 C      0.016  1.061  2.923  0.000    20.303     6.414
  58   6 C      0.268  1.043  2.689  0.000    22.473     7.763
  59   8 O     -0.487  1.744  4.743  0.000    23.500     6.499
  60   6 C     -0.081  1.054  3.027  0.000    22.030     6.681
  61   6 C     -0.001  1.074  2.926  0.000    28.039     8.686
  62   6 C     -0.043  1.084  2.960  0.000    29.074     8.843
  63   6 C     -0.044  1.079  2.964  0.000    29.085     8.844
  64   6 C     -0.059  1.075  2.983  0.000    29.462     8.901
  65   6 C     -0.076  1.078  2.998  0.000    29.887     8.965
  66   6 C      0.146  1.045  2.809  0.000    24.820     8.165
  67   8 O     -0.441  1.724  4.717  0.000    21.651     6.281
  68   1 H      0.216  0.784  0.000  0.000     1.028     1.589
  69   1 H      0.090  0.910  0.000  0.000     1.880     2.144
  70   1 H      0.071  0.929  0.000  0.000     2.075     2.253
  71   1 H      0.073  0.927  0.000  0.000     2.048     2.238
  72   1 H      0.055  0.945  0.000  0.000     2.255     2.348
  73   1 H      0.043  0.957  0.000  0.000     2.413     2.429
  74   1 H      0.052  0.948  0.000  0.000     2.296     2.369
  75   1 H      0.043  0.957  0.000  0.000     2.410     2.428
  76   1 H      0.346  0.654  0.000  0.000     0.598     1.214
  77   7 N     -0.175  1.241  3.934  0.000    24.792     7.395
  78   6 C      0.019  1.067  2.914  0.000    20.255     6.408
  79   6 C      0.278  1.044  2.677  0.000    22.292     7.732
  80   8 O     -0.496  1.742  4.754  0.000    23.686     6.525
  81   6 C     -0.021  1.062  2.960  0.000    20.919     6.505
  82   6 C     -0.119  1.041  3.078  0.000    22.830     6.812
  83   6 C     -0.127  1.042  3.085  0.000    22.988     6.836
  84   1 H      0.217  0.783  0.000  0.000     1.025     1.586
  85   1 H      0.070  0.930  0.000  0.000     2.082     2.256
  86   1 H      0.054  0.946  0.000  0.000     2.265     2.354
  87   1 H      0.059  0.941  0.000  0.000     2.213     2.326
  88   1 H      0.033  0.967  0.000  0.000     2.544     2.494
  89   1 H      0.050  0.950  0.000  0.000     2.321     2.383
  90   1 H      0.068  0.932  0.000  0.000     2.108     2.270
  91   1 H      0.058  0.942  0.000  0.000     2.221     2.330
  92   1 H      0.054  0.946  0.000  0.000     2.270     2.356
  93   7 N     -0.190  1.254  3.936  0.000    25.131     7.445
  94   6 C      0.021  1.064  2.915  0.000    20.215     6.401
  95   6 C      0.293  1.043  2.664  0.000    22.030     7.687
  96   8 O     -0.512  1.734  4.777  0.000    24.042     6.574
  97   6 C     -0.028  1.070  2.958  0.000    21.041     6.524
  98   6 C     -0.064  1.051  3.013  0.000    21.719     6.635
  99   6 C     -0.115  1.037  3.078  0.000    22.749     6.801
 100   6 C     -0.112  1.037  3.075  0.000    22.704     6.795
 101   1 H      0.239  0.761  0.000  0.000     0.926     1.507
 102   1 H      0.064  0.936  0.000  0.000     2.151     2.294
 103   1 H      0.059  0.941  0.000  0.000     2.214     2.327
 104   1 H      0.040  0.960  0.000  0.000     2.442     2.444
 105   1 H      0.048  0.952  0.000  0.000     2.343     2.394
 106   1 H      0.059  0.941  0.000  0.000     2.207     2.323
 107   1 H      0.033  0.967  0.000  0.000     2.543     2.494
 108   1 H      0.044  0.956  0.000  0.000     2.393     2.419
 109   1 H      0.047  0.953  0.000  0.000     2.360     2.402
 110   1 H      0.047  0.953  0.000  0.000     2.353     2.399
 111   1 H      0.040  0.960  0.000  0.000     2.444     2.445
 112   7 N     -0.180  1.239  3.941  0.000    24.897     7.411
 113   6 C      0.033  1.054  2.913  0.000    20.023     6.371
 114   6 C      0.266  1.040  2.693  0.000    22.504     7.769
 115   8 O     -0.472  1.739  4.734  0.000    23.181     6.455
 116   6 C     -0.107  1.062  3.045  0.000    22.538     6.757
 117   6 C      0.291  1.032  2.678  0.000    22.071     7.692
 118   8 O     -0.493  1.754  4.739  0.000    23.635     6.518
 119   7 N     -0.279  1.263  4.016  0.000    27.215     7.748
 120   1 H      0.212  0.788  0.000  0.000     1.047     1.603
 121   1 H      0.079  0.921  0.000  0.000     1.991     2.206
 122   1 H      0.074  0.926  0.000  0.000     2.039     2.233
 123   1 H      0.105  0.895  0.000  0.000     1.739     2.062
 124   1 H      0.236  0.764  0.000  0.000     0.939     1.518
 125   1 H      0.229  0.771  0.000  0.000     0.968     1.541
 126   7 N     -0.183  1.245  3.938  0.000    24.975     7.422
 127   6 C      0.011  1.059  2.930  0.000    20.399     6.432
 128   6 C      0.264  1.048  2.688  0.000    22.541     7.774
 129   8 O     -0.495  1.747  4.748  0.000    23.668     6.523
 130   6 C     -0.072  1.052  3.020  0.000    21.873     6.657
 131   6 C      0.011  1.083  2.907  0.000    27.778     8.645
 132   6 C     -0.042  1.080  2.963  0.000    29.050     8.839
 133   6 C     -0.051  1.082  2.969  0.000    29.262     8.871
 134   6 C     -0.035  1.080  2.955  0.000    28.876     8.812
 135   6 C     -0.037  1.082  2.955  0.000    28.914     8.818
 136   6 C     -0.040  1.080  2.960  0.000    28.999     8.831
 137   1 H      0.226  0.774  0.000  0.000     0.982     1.552
 138   1 H      0.092  0.908  0.000  0.000     1.858     2.131
 139   1 H      0.057  0.943  0.000  0.000     2.229     2.335
 140   1 H      0.071  0.929  0.000  0.000     2.074     2.252
 141   1 H      0.032  0.968  0.000  0.000     2.552     2.498
 142   1 H      0.046  0.954  0.000  0.000     2.365     2.405
 143   1 H      0.042  0.958  0.000  0.000     2.418     2.432
 144   1 H      0.046  0.954  0.000  0.000     2.375     2.410
 145   1 H      0.051  0.949  0.000  0.000     2.303     2.373
 146   7 N     -0.199  1.248  3.951  0.000    25.322     7.474
 147   6 C      0.015  1.064  2.920  0.000    20.327     6.421
 148   6 C      0.272  1.047  2.681  0.000    22.407     7.752
 149   8 O     -0.503  1.735  4.768  0.000    23.853     6.548
 150   6 C     -0.024  1.068  2.956  0.000    20.968     6.513
 151   6 C     -0.068  1.055  3.014  0.000    21.810     6.649
 152   6 C     -0.125  1.042  3.083  0.000    22.947     6.830
 153   6 C     -0.112  1.036  3.075  0.000    22.698     6.794
 154   1 H      0.230  0.770  0.000  0.000     0.966     1.539
 155   1 H      0.086  0.914  0.000  0.000     1.914     2.164
 156   1 H      0.060  0.940  0.000  0.000     2.200     2.319
 157   1 H      0.052  0.948  0.000  0.000     2.293     2.368
 158   1 H      0.044  0.956  0.000  0.000     2.395     2.420
 159   1 H      0.055  0.945  0.000  0.000     2.256     2.349
 160   1 H      0.058  0.942  0.000  0.000     2.221     2.331
 161   1 H      0.036  0.964  0.000  0.000     2.508     2.477
 162   1 H      0.047  0.953  0.000  0.000     2.354     2.399
 163   1 H      0.030  0.970  0.000  0.000     2.589     2.516
 164   1 H      0.043  0.957  0.000  0.000     2.403     2.424
 165   7 N     -0.181  1.249  3.932  0.000    24.922     7.414
 166   6 C      0.008  1.068  2.923  0.000    20.442     6.438
 167   6 C      0.256  1.049  2.695  0.000    22.688     7.801
 168   8 O     -0.489  1.737  4.752  0.000    23.546     6.506
 169   6 C      0.122  1.044  2.835  0.000    18.695     6.174
 170   8 O     -0.467  1.715  4.753  0.000    22.200     6.360
 171   6 C     -0.129  1.041  3.088  0.000    23.044     6.845
 172   1 H      0.227  0.773  0.000  0.000     0.977     1.548
 173   1 H      0.085  0.915  0.000  0.000     1.926     2.170
 174   1 H      0.022  0.978  0.000  0.000     2.708     2.574
 175   1 H      0.330  0.670  0.000  0.000     0.638     1.254
 176   1 H      0.073  0.927  0.000  0.000     2.057     2.243
 177   1 H      0.058  0.942  0.000  0.000     2.224     2.332
 178   1 H      0.065  0.935  0.000  0.000     2.141     2.288
 179   7 N     -0.096  1.237  3.859  0.000    23.121     7.141
 180   6 C      0.019  1.063  2.917  0.000    20.221     6.397
 181   6 C      0.275  1.041  2.684  0.000    22.349     7.742
 182   8 O     -0.473  1.734  4.740  0.000    23.201     6.458
 183   6 C     -0.077  1.056  3.021  0.000    21.960     6.670
 184   6 C     -0.077  1.053  3.024  0.000    21.957     6.669
 185   6 C     -0.008  1.048  2.960  0.000    20.764     6.495
 186   1 H      0.086  0.914  0.000  0.000     1.922     2.168
 187   1 H      0.072  0.928  0.000  0.000     2.065     2.247
 188   1 H      0.090  0.910  0.000  0.000     1.881     2.145
 189   1 H      0.063  0.937  0.000  0.000     2.160     2.298
 190   1 H      0.098  0.902  0.000  0.000     1.803     2.100
 191   1 H      0.030  0.970  0.000  0.000     2.593     2.518
 192   1 H      0.081  0.919  0.000  0.000     1.968     2.194
 193   7 N     -0.176  1.239  3.937  0.000    24.804     7.397
 194   6 C      0.028  1.053  2.919  0.000    20.068     6.371
 195   6 C      0.274  1.041  2.685  0.000    22.367     7.745
 196   8 O     -0.507  1.745  4.763  0.000    23.950     6.561
 197   6 C     -0.023  1.068  2.955  0.000    20.980     6.522
 198  16 S     -0.305  1.955  4.304  0.046   154.300    20.907
 199   1 H      0.205  0.795  0.000  0.000     1.080     1.628
 200   1 H      0.089  0.911  0.000  0.000     1.889     2.149
 201   1 H      0.093  0.907  0.000  0.000     1.847     2.125
 202   1 H      0.068  0.932  0.000  0.000     2.109     2.271
 203   1 H      0.211  0.789  0.000  0.000     1.047     1.600
 204   7 N     -0.187  1.254  3.933  0.000    25.056     7.434
 205   6 C      0.024  1.063  2.913  0.000    20.168     6.393
 206   6 C      0.271  1.043  2.685  0.000    22.414     7.753
 207   8 O     -0.514  1.753  4.760  0.000    24.087     6.580
 208   6 C     -0.017  1.060  2.957  0.000    20.846     6.494
 209   6 C     -0.120  1.040  3.080  0.000    22.856     6.816
 210   6 C     -0.128  1.039  3.089  0.000    23.006     6.839
 211   1 H      0.248  0.752  0.000  0.000     0.890     1.478
 212   1 H      0.063  0.937  0.000  0.000     2.159     2.298
 213   1 H      0.042  0.958  0.000  0.000     2.416     2.431
 214   1 H      0.060  0.940  0.000  0.000     2.196     2.317
 215   1 H      0.043  0.957  0.000  0.000     2.415     2.430
 216   1 H      0.057  0.943  0.000  0.000     2.236     2.338
 217   1 H      0.060  0.940  0.000  0.000     2.202     2.320
 218   1 H      0.062  0.938  0.000  0.000     2.181     2.310
 219   1 H      0.044  0.956  0.000  0.000     2.396     2.420
 220   7 N     -0.189  1.252  3.937  0.000    25.097     7.440
 221   6 C      0.029  1.058  2.914  0.000    20.093     6.382
 222   6 C      0.269  1.045  2.687  0.000    22.464     7.762
 223   8 O     -0.489  1.739  4.750  0.000    23.541     6.505
 224   6 C     -0.074  1.058  3.016  0.000    21.911     6.663
 225   6 C     -0.022  1.058  2.964  0.000    20.932     6.508
 226   6 C     -0.117  1.043  3.074  0.000    22.794     6.806
 227   6 C     -0.116  1.039  3.077  0.000    22.776     6.805
 228   1 H      0.243  0.757  0.000  0.000     0.913     1.497
 229   1 H      0.064  0.936  0.000  0.000     2.154     2.295
 230   1 H      0.053  0.947  0.000  0.000     2.283     2.363
 231   1 H      0.061  0.939  0.000  0.000     2.187     2.313
 232   1 H      0.064  0.936  0.000  0.000     2.150     2.293
 233   1 H      0.053  0.947  0.000  0.000     2.288     2.365
 234   1 H      0.039  0.961  0.000  0.000     2.463     2.454
 235   1 H      0.046  0.954  0.000  0.000     2.375     2.410
 236   1 H      0.048  0.952  0.000  0.000     2.348     2.396
 237   1 H      0.043  0.957  0.000  0.000     2.406     2.426
 238   1 H      0.027  0.973  0.000  0.000     2.635     2.538
 239   7 N     -0.205  1.261  3.944  0.000    25.450     7.492
 240   6 C      0.018  1.062  2.921  0.000    20.272     6.409
 241   6 C      0.285  1.038  2.677  0.000    22.178     7.713
 242   8 O     -0.508  1.755  4.753  0.000    23.960     6.563
 243   6 C     -0.025  1.066  2.958  0.000    20.973     6.513
 244   6 C     -0.059  1.049  3.011  0.000    21.634     6.621
 245   6 C     -0.118  1.038  3.080  0.000    22.805     6.809
 246   6 C     -0.116  1.038  3.077  0.000    22.775     6.805
 247   1 H      0.244  0.756  0.000  0.000     0.908     1.493
 248   1 H      0.077  0.923  0.000  0.000     2.007     2.216
 249   1 H      0.075  0.925  0.000  0.000     2.033     2.230
 250   1 H      0.026  0.974  0.000  0.000     2.643     2.542
 251   1 H      0.036  0.964  0.000  0.000     2.506     2.476
 252   1 H      0.055  0.945  0.000  0.000     2.258     2.350
 253   1 H      0.056  0.944  0.000  0.000     2.246     2.344
 254   1 H      0.026  0.974  0.000  0.000     2.640     2.541
 255   1 H      0.043  0.957  0.000  0.000     2.416     2.431
 256   1 H      0.054  0.946  0.000  0.000     2.267     2.354
 257   1 H      0.046  0.954  0.000  0.000     2.364     2.405
 258   7 N     -0.197  1.247  3.950  0.000    25.288     7.469
 259   6 C      0.022  1.060  2.918  0.000    20.196     6.398
 260   6 C      0.276  1.042  2.683  0.000    22.339     7.740
 261   8 O     -0.522  1.756  4.766  0.000    24.281     6.607
 262   6 C      0.081  1.033  2.886  0.000    19.438     6.315
 263   8 O     -0.461  1.710  4.751  0.000    22.071     6.342
 264   1 H      0.221  0.779  0.000  0.000     1.007     1.572
 265   1 H      0.067  0.933  0.000  0.000     2.115     2.274
 266   1 H      0.035  0.965  0.000  0.000     2.520     2.482
 267   1 H      0.053  0.947  0.000  0.000     2.286     2.364
 268   1 H      0.337  0.663  0.000  0.000     0.620     1.237
 269   7 N     -0.188  1.249  3.938  0.000    25.066     7.436
 270   6 C      0.038  1.063  2.899  0.000    19.944     6.359
 271   6 C      0.284  1.044  2.672  0.000    22.196     7.715
 272   8 O     -0.527  1.757  4.769  0.000    24.380     6.620
 273   6 C     -0.074  1.056  3.018  0.000    21.911     6.663
 274   6 C      0.009  1.081  2.910  0.000    27.824     8.652
 275   6 C     -0.046  1.082  2.963  0.000    29.139     8.853
 276   6 C     -0.038  1.081  2.957  0.000    28.949     8.823
 277   6 C     -0.037  1.081  2.955  0.000    28.916     8.818
 278   6 C     -0.034  1.080  2.953  0.000    28.840     8.807
 279   6 C     -0.039  1.079  2.960  0.000    28.972     8.827
 280   1 H      0.224  0.776  0.000  0.000     0.991     1.559
 281   1 H      0.058  0.942  0.000  0.000     2.221     2.330
 282   1 H      0.056  0.944  0.000  0.000     2.243     2.342
 283   1 H      0.068  0.932  0.000  0.000     2.106     2.269
 284   1 H      0.061  0.939  0.000  0.000     2.183     2.310
 285   1 H      0.022  0.978  0.000  0.000     2.702     2.570
 286   1 H      0.055  0.945  0.000  0.000     2.258     2.350
 287   1 H      0.030  0.970  0.000  0.000     2.584     2.514
 288   1 H      0.041  0.959  0.000  0.000     2.442     2.444
 289   7 N     -0.194  1.258  3.935  0.000    25.200     7.456
 290   6 C      0.044  1.054  2.901  0.000    19.836     6.341
 291   6 C      0.218  1.082  2.699  0.000    23.391     7.921
 292   8 O     -0.383  1.750  4.633  0.000    21.338     6.193
 293   6 C     -0.068  1.058  3.011  0.000    21.797     6.645
 294   6 C     -0.013  1.055  2.958  0.000    20.779     6.484
 295   6 C     -0.122  1.043  3.079  0.000    22.898     6.822
 296   6 C     -0.123  1.042  3.081  0.000    22.901     6.823
 297   1 H      0.247  0.753  0.000  0.000     0.894     1.481
 298   1 H      0.068  0.932  0.000  0.000     2.105     2.269
 299   1 H      0.052  0.948  0.000  0.000     2.296     2.370
 300   1 H      0.063  0.937  0.000  0.000     2.169     2.303
 301   1 H      0.041  0.959  0.000  0.000     2.438     2.442
 302   1 H      0.057  0.943  0.000  0.000     2.230     2.335
 303   1 H      0.042  0.958  0.000  0.000     2.428     2.437
 304   1 H      0.055  0.945  0.000  0.000     2.253     2.347
 305   1 H      0.054  0.946  0.000  0.000     2.271     2.356
 306   1 H      0.049  0.951  0.000  0.000     2.339     2.391
 307   1 H      0.038  0.962  0.000  0.000     2.477     2.461
 308   7 N     -0.391  1.313  4.078  0.000    30.122     8.151
 309   6 C      0.022  1.066  2.912  0.000    20.224     6.406
 310   6 C      0.192  1.097  2.712  0.000    23.902     8.007
 311   8 O     -0.364  1.740  4.624  0.000    20.982     6.141
 312   6 C      0.120  1.046  2.834  0.000    18.715     6.177
 313   8 O     -0.467  1.722  4.746  0.000    22.200     6.361
 314   6 C     -0.128  1.041  3.087  0.000    23.019     6.841
 315   1 H      0.160  0.840  0.000  0.000     1.334     1.809
 316   1 H      0.069  0.931  0.000  0.000     2.096     2.264
 317   1 H      0.022  0.978  0.000  0.000     2.710     2.575
 318   1 H      0.327  0.673  0.000  0.000     0.646     1.263
 319   1 H      0.063  0.937  0.000  0.000     2.169     2.303
 320   1 H      0.050  0.950  0.000  0.000     2.318     2.381
 321   1 H      0.071  0.929  0.000  0.000     2.071     2.251
 322   7 N     -0.400  1.324  4.076  0.000    30.379     8.186
 323   6 C      0.023  1.059  2.918  0.000    20.200     6.401
 324   6 C      0.269  1.046  2.685  0.000    22.464     7.762
 325   8 O     -0.528  1.763  4.765  0.000    24.415     6.625
 326   6 C     -0.082  1.059  3.024  0.000    22.060     6.686
 327   6 C     -0.085  1.053  3.032  0.000    22.119     6.696
 328   6 C     -0.024  1.051  2.973  0.000    21.081     6.550
 329   7 N     -0.140  1.212  3.927  0.000    24.025     7.280
 330   6 C      0.233  1.018  2.749  0.000    23.119     7.873
 331   7 N     -0.242  1.238  4.004  0.000    26.324     7.620
 332   7 N     -0.264  1.257  4.008  0.000    26.854     7.696
 333   1 H      0.165  0.835  0.000  0.000     1.306     1.790
 334   1 H      0.054  0.946  0.000  0.000     2.272     2.357
 335   1 H      0.065  0.935  0.000  0.000     2.144     2.290
 336   1 H      0.049  0.951  0.000  0.000     2.335     2.390
 337   1 H      0.061  0.939  0.000  0.000     2.192     2.315
 338   1 H      0.083  0.917  0.000  0.000     1.949     2.183
 339   1 H      0.076  0.924  0.000  0.000     2.024     2.225
 340   1 H      0.078  0.922  0.000  0.000     1.995     2.209
 341   1 H      0.235  0.765  0.000  0.000     0.942     1.521
 342   1 H      0.242  0.758  0.000  0.000     0.915     1.499
 343   1 H      0.254  0.746  0.000  0.000     0.869     1.460
 344   1 H      0.245  0.755  0.000  0.000     0.901     1.487
 345   1 H      0.254  0.746  0.000  0.000     0.869     1.460
 346   7 N     -0.170  1.242  3.927  0.000    24.670     7.377
 347   6 C      0.027  1.058  2.915  0.000    20.117     6.387
 348   6 C      0.207  1.086  2.707  0.000    23.613     7.958
 349   8 O     -0.378  1.762  4.616  0.000    21.255     6.181
 350   6 C     -0.073  1.060  3.013  0.000    21.897     6.661
 351   6 C     -0.016  1.059  2.957  0.000    20.829     6.491
 352   6 C     -0.118  1.042  3.076  0.000    22.803     6.808
 353   6 C     -0.121  1.041  3.080  0.000    22.872     6.819
 354   1 H      0.237  0.763  0.000  0.000     0.937     1.516
 355   1 H      0.089  0.911  0.000  0.000     1.889     2.150
 356   1 H      0.054  0.946  0.000  0.000     2.273     2.358
 357   1 H      0.059  0.941  0.000  0.000     2.215     2.328
 358   1 H      0.054  0.946  0.000  0.000     2.274     2.358
 359   1 H      0.048  0.952  0.000  0.000     2.342     2.393
 360   1 H      0.035  0.965  0.000  0.000     2.522     2.483
 361   1 H      0.043  0.957  0.000  0.000     2.408     2.427
 362   1 H      0.051  0.949  0.000  0.000     2.302     2.373
 363   1 H      0.044  0.956  0.000  0.000     2.396     2.421
 364   1 H      0.044  0.956  0.000  0.000     2.396     2.421
 365   7 N     -0.391  1.313  4.078  0.000    30.128     8.152
 366   6 C      0.041  1.054  2.905  0.000    19.895     6.354
 367   6 C      0.200  1.093  2.707  0.000    23.736     7.979
 368   8 O     -0.396  1.765  4.631  0.000    21.595     6.230
 369   6 C     -0.071  1.059  3.012  0.000    21.845     6.652
 370   6 C     -0.007  1.056  2.951  0.000    20.674     6.467
 371   6 C     -0.119  1.043  3.076  0.000    22.822     6.810
 372   6 C     -0.112  1.039  3.073  0.000    22.698     6.793
 373   1 H      0.172  0.828  0.000  0.000     1.260     1.759
 374   1 H      0.048  0.952  0.000  0.000     2.350     2.398
 375   1 H      0.056  0.944  0.000  0.000     2.244     2.342
 376   1 H      0.041  0.959  0.000  0.000     2.437     2.441
 377   1 H      0.038  0.962  0.000  0.000     2.477     2.461
 378   1 H      0.047  0.953  0.000  0.000     2.363     2.404
 379   1 H      0.046  0.954  0.000  0.000     2.367     2.406
 380   1 H      0.040  0.960  0.000  0.000     2.453     2.449
 381   1 H      0.043  0.957  0.000  0.000     2.411     2.428
 382   1 H      0.036  0.964  0.000  0.000     2.509     2.477
 383   1 H      0.032  0.968  0.000  0.000     2.555     2.500
 384   7 N     -0.394  1.318  4.076  0.000    30.203     8.162
 385   6 C      0.036  1.057  2.907  0.000    19.978     6.366
 386   6 C      0.197  1.089  2.714  0.000    23.803     7.990
 387   8 O     -0.375  1.760  4.616  0.000    21.195     6.172
 388   6 C     -0.021  1.068  2.953  0.000    20.903     6.502
 389   6 C     -0.061  1.050  3.011  0.000    21.670     6.627
 390   6 C     -0.112  1.038  3.074  0.000    22.699     6.793
 391   6 C     -0.112  1.038  3.075  0.000    22.706     6.795
 392   1 H      0.167  0.833  0.000  0.000     1.291     1.780
 393   1 H      0.053  0.947  0.000  0.000     2.281     2.362
 394   1 H      0.039  0.961  0.000  0.000     2.466     2.456
 395   1 H      0.043  0.957  0.000  0.000     2.410     2.428
 396   1 H      0.041  0.959  0.000  0.000     2.440     2.443
 397   1 H      0.051  0.949  0.000  0.000     2.304     2.374
 398   1 H      0.026  0.974  0.000  0.000     2.647     2.544
 399   1 H      0.045  0.955  0.000  0.000     2.381     2.413
 400   1 H      0.047  0.953  0.000  0.000     2.363     2.404
 401   1 H      0.038  0.962  0.000  0.000     2.475     2.460
 402   1 H      0.041  0.959  0.000  0.000     2.437     2.441
 403   7 N     -0.391  1.326  4.065  0.000    30.131     8.152
 404   6 C      0.040  1.057  2.903  0.000    19.927     6.358
 405   6 C      0.206  1.092  2.702  0.000    23.621     7.959
 406   8 O     -0.397  1.766  4.631  0.000    21.625     6.235
 407   6 C     -0.021  1.069  2.951  0.000    20.904     6.503
 408   6 C     -0.062  1.051  3.011  0.000    21.690     6.631
 409   6 C     -0.112  1.037  3.075  0.000    22.699     6.793
 410   6 C     -0.110  1.035  3.076  0.000    22.673     6.791
 411   1 H      0.157  0.843  0.000  0.000     1.355     1.823
 412   1 H      0.047  0.953  0.000  0.000     2.363     2.404
 413   1 H      0.048  0.952  0.000  0.000     2.349     2.397
 414   1 H      0.036  0.964  0.000  0.000     2.503     2.474
 415   1 H      0.049  0.951  0.000  0.000     2.327     2.385
 416   1 H      0.060  0.940  0.000  0.000     2.203     2.321
 417   1 H      0.033  0.967  0.000  0.000     2.541     2.493
 418   1 H      0.038  0.962  0.000  0.000     2.477     2.461
 419   1 H      0.045  0.955  0.000  0.000     2.378     2.412
 420   1 H      0.044  0.956  0.000  0.000     2.400     2.422
 421   1 H      0.030  0.970  0.000  0.000     2.592     2.518
 422   1 H      0.055  0.945  0.000  0.000     2.254     2.348
 423   1 H      0.194  0.806  0.000  0.000     1.139     1.671
 424   1 H      0.076  0.924  0.000  0.000     2.024     2.224
 425   1 H      0.183  0.817  0.000  0.000     1.199     1.715
 426   1 H      0.069  0.931  0.000  0.000     2.095     2.263
 427   1 H      0.179  0.821  0.000  0.000     1.217     1.728
 428   1 H      0.077  0.923  0.000  0.000     2.011     2.218
 429   1 H      0.186  0.814  0.000  0.000     1.181     1.702
 430   1 H      0.068  0.932  0.000  0.000     2.104     2.268
 431   1 H      0.186  0.814  0.000  0.000     1.180     1.701
 432   1 H      0.073  0.927  0.000  0.000     2.055     2.242

 Mol. C6AA /au·bohr⁶  :    1665589.381271
 Mol. C8AA /au·bohr⁸  :   37390539.249401
 Mol. α(0) /au        :       1943.284795

 
molecular dipole:
                 x           y           z       tot (Debye)
 q only:      213.281     113.457     214.482
   full:      213.617     111.540     216.900     824.104
molecular quadrupole (traceless):
                xx          xy          yy          xz          yz          zz
 q only:     9269.489   17657.124  -15364.651   35055.863   18162.587    6095.162
  q+dip:     9303.602   17337.148  -15789.988   35479.491   18123.424    6486.386
   full:     9305.912   17337.307  -15786.044   35480.574   18122.136    6480.133
speedup  1.00
cpu  time for grad    9.77 s
wall time for grad    9.78 s

SCC energy    :    -629.9524504
rep           :       8.1004552
ES            :       1.5417997
AES           :      -0.0054330
AXC           :       0.2418984
disp          :      -0.5520013
XB            :       0.0000000
fix           :       0.0000000
Gborn         :       0.0000000
Gsasa         :       0.0000000
Ghb           :       0.0000000
Gshift        :       0.0000000
Gsolv         :      -0.4732058     -296.94
Etot ala COSMO:    -629.9524504
grad norm     :       0.5147359
total E       :    -621.8069873
atomizationE  :     119.3173217    74872.75
(atE without considering molecular charge,
 total energy contains solvation terms)
H-L gap (eV)  :          1.7470

------------------------------------------------------------------------
 * finished run on 2019/03/14 at 15:08:29.578     
------------------------------------------------------------------------
 total:
 * wall-time:     0 d,  0 h,  0 min, 10.671 sec
 *  cpu-time:     0 d,  0 h,  0 min, 10.486 sec
 * ratio c/w:     0.983 speedup
 SCF:
 * wall-time:     0 d,  0 h,  0 min, 10.360 sec
 *  cpu-time:     0 d,  0 h,  0 min, 10.355 sec
 * ratio c/w:     0.999 speedup

