      -----------------------------------------------------------      
     |                   =====================                   |     
     |                           x T B                           |     
     |                   =====================                   |     
     |                         S. Grimme                         |     
     |          Mulliken Center for Theoretical Chemistry        |     
     |                    University of Bonn                     |     
     |                Version 6.1 RC1 (SAW190329)                |     
      -----------------------------------------------------------      

   This program is distributed in the hope that it will be useful,
   but WITHOUT ANY WARRANTY; without even the implied warranty of
   MERCHANTABILITY or FITNESS FOR A PARTICULAR PURPOSE.
   
   FOR NON-COMMERCIAL, ACADEMIA USE ONLY.
   
   Cite this work as:
   S. Grimme, C. Bannwarth, P. Shushkov, J. Comput. Theory Chem., 2017,
   13, 1989-2009. DOI: 10.1021/acs.jctc.7b00118
   C. Bannwarth, S. Ehlert and S. Grimme., J. Comput. Theory Chem., 2019,
   just accepted. DOI: 10.1021/acs.jctc.8b01176
   
   for sTDA-xTB:
   S. Grimme and C. Bannwarth, J. Chem. Phys., 2016, 145, 054103.
   DOI: 10.1063/1.4959605
   
   in the mass-spec context:
   V. Asgeirsson, C. Bauer and S. Grimme, Chem. Sci., 2017, 8, 4879.
   DOI: 10.1039/c7sc00601b
   
   for metadynamics refer to:
   S. Grimme, ChemRxiv, Preprint. DOI: 10.26434/chemrxiv.7660532.v1
   
   with help from (in alphabetical order)
   C. Bannwarth, F. Bohle, G. Brandenburg, E. Caldeweyher, M. Checinski,
   S. Dohm, S. Ehlert, S. Ehrlich, F. März, H. Neugebauer, J. Pisarek,
   P. Pracht, P. Shushkov, and S. Spicher.
   
 * started run on 2019/05/31 at 06:33:45.396     

           -------------------------------------------------
          |                Calculation Setup                |
           -------------------------------------------------

          program call               : /home/lum/qr/xtb-190329/bin/xtb xtb_tmp.xyz --chrg 0 --grad --gfn 2 --etemp 500 --acc 0.1 --gbsa h2o --parallel 2
          hostname                   : cu39
          coordinate file            : xtb_tmp.xyz
          omp threads                :                     2
          number of atoms            :                   254
          number of electrons        :                   682
          charge                     :                     0
          spin                       :                   0.0
          first test random number   :      0.97235661868486


molecular fragmentation (1/2 indicates fragments):
111111111111111111111111111111111111111111111111111111111111111111111122
222222222222222222222222222222222222222222222222222222222222222222222222
222222222222222222222222222222222222222222222222222222222222222222222222
22222222222222222222222222222211222222
# atoms in fragment 1/2:    72   182
 fragment masses (1/2) :      543.58     1173.46
CMA distance (Bohr)    :   4.272
constraining FC (au)   :  0.0500

########################################################################
# WARNING! Please study the warnings concerning your input carefully
#  - XTBPATH is not set, using XTBHOME instead
#  - Process number higher than OMP_NUM_THREADS, I hope you know what you are doing.
########################################################################

           ------------------------------------------------- 
          |                 G F N 2 - x T B                 |
          | Geometry, Frequencies, Noncovalent interactions |
          |            JCTC 2018 parametrisation            |
           ------------------------------------------------- 
 
             k(s)              :                1.8500
             k(p)              :                2.2300
             k(d)              :                2.2300
             k(f)              :                2.0000
             kEN (H0ij)        :               -2.0000
             D4 a1             :                0.5200
             D4 a2             :                5.0000
             D4 s6             :                1.0000
             D4 s8             :                2.7000
             D4 s9             :                5.0000
             alphaj            :                2.0000

  Z AO/shell   Hii/eV     exponent
  1     Wed Apr 25 08:07:45 CEST 2018   EN: 2.200 GM2: 0.406  GM3: 0.0800  RAES: 1.40
     1s    -10.707211    1.230000
  6     Wed Apr 25 08:07:45 CEST 2018   EN: 2.550 GM2: 0.538  GM3: 0.1500  RAES: 3.00
     2s    -13.970922    2.096432
     2p    -10.063292    1.800000
  7     Wed Apr 25 08:07:45 CEST 2018   EN: 3.040 GM2: 0.461  GM3:-0.0640  RAES: 1.90
     2s    -16.686243    2.339881
     2p    -12.523956    2.014332
  8     Wed Apr 25 08:07:45 CEST 2018   EN: 3.440 GM2: 0.452  GM3:-0.0517  RAES: 1.80
     2s    -20.229985    2.439742
     2p    -15.503117    2.137023

 Solvent             : h2o
 Using internal parameter file: .param_gbsa2_h2o
 Gsolv ref. state (COSMO-RS): gsolv [1 M gas/solution]
 temperature (mdtemp)       :    298.150000000000     
 dielectric constant        :    80.2000000000000     
 rho                        :    1.00000000000000     
 mass                       :    18.0000000000000     
 surface tension            :    15.5689454083859     
 probe radius               :   0.975313790000000     
 vdW radii scaling          :    1.00000000000000     
 Gshift (Eh)                :   1.857443126794793E-003
 c1                         :    1.55243817000000     
 soset                      :   0.130326360000000     
 HB correction              :  T
 Number of grid points      :          230

            Z     q(EN)     CN     RAES       Cart. coordinates
     1  N   5.0   -0.68    3.00    1.93   108.73750    91.17068   125.72091
     2  C   4.0    0.09    3.99    3.60   108.83759    91.21070   122.98815
     3  C   4.0    0.30    3.01    3.02   111.13103    92.67971   122.06625
     4  O   6.0   -0.41    1.00    1.80   112.39895    94.01026   123.47304
     5  C   4.0   -0.13    3.98    3.59   106.37102    92.33015   121.89964
     6  C   4.0   -0.01    3.12    3.03   105.93310    95.01866   122.60760
     7  C   4.0    0.03    3.21    3.04   106.48066    97.11423   121.20445
     8  C   4.0    0.03    3.18    3.03   104.72715    95.89190   124.86056
     9  N   5.0   -0.48    3.11    1.94   105.69731    99.24108   122.44593
    10  C   4.0    0.12    3.22    3.04   104.59040    98.55791   124.67339
    11  C   4.0   -0.10    3.02    3.02   103.71236    94.68315   126.97147
    12  C   4.0   -0.11    3.02    3.02   103.46526   100.01627   126.54497
    13  C   4.0   -0.10    3.03    3.02   102.59691    96.14029   128.81395
    14  C   4.0   -0.11    3.03    3.02   102.47965    98.77057   128.60636
    15  H   1.0    0.33    1.00    1.43   109.06323    92.82995   126.62955
    16  H   1.0    0.13    0.99    1.43   109.03110    89.24987   122.34679
    17  H   1.0    0.14    0.99    1.43   106.42507    92.12717   119.85386
    18  H   1.0    0.10    0.99    1.43   104.82556    91.16391   122.61467
    19  H   1.0    0.13    1.00    1.43   107.37441    97.20707   119.38709
    20  H   1.0    0.22    1.00    1.43   105.82866   101.01680   121.78369
    21  H   1.0    0.11    0.99    1.43   103.79680    92.64551   127.14998
    22  H   1.0    0.10    1.00    1.43   103.34454   102.04461   126.39870
    23  H   1.0    0.12    1.00    1.43   101.80260    95.24059   130.46467
    24  H   1.0    0.11    1.00    1.43   101.58392    99.83583   130.09697
    25  N   5.0   -0.48    3.01    1.93   111.57639    92.45398   119.58881
    26  C   4.0    0.09    4.00    3.62   113.50837    93.88085   118.31932
    27  C   4.0    0.27    3.02    3.02   112.28991    95.63846   116.41865
    28  O   6.0   -0.44    1.00    1.80   110.18248    95.30343   115.53123
    29  C   4.0   -0.09    3.98    3.59   115.34918    92.18875   116.86934
    30  C   4.0    0.32    2.99    3.02   116.85118    90.46520   118.74524
    31  O   6.0   -0.39    1.00    1.80   116.30880    88.17611   118.72631
    32  O   6.0   -0.42    1.00    1.80   118.46702    91.53917   120.07257
    33  H   1.0    0.29    1.00    1.43   110.43728    91.40648   118.46511
    34  H   1.0    0.15    0.99    1.43   114.54975    94.96121   119.74779
    35  H   1.0    0.16    0.99    1.43   114.29696    91.01084   115.55532
    36  H   1.0    0.11    0.99    1.43   116.69816    93.36295   115.83649
    37  N   5.0   -0.49    3.01    1.93   113.71732    97.61330   115.72799
    38  C   4.0    0.06    4.00    3.62   113.06963    99.05518   113.50726
    39  C   4.0    0.26    3.01    3.02   115.45611    99.35987   111.92198
    40  O   6.0   -0.45    1.00    1.80   117.56018    99.02669   112.81743
    41  C   4.0   -0.13    3.98    3.59   111.87611   101.60727   114.20960
    42  C   4.0   -0.08    3.98    3.58   113.76360   103.32805   115.52091
    43  C   4.0    0.32    2.99    3.02   112.64809   105.75789   116.67944
    44  O   6.0   -0.43    1.00    1.80   114.18725   107.36390   117.44101
    45  O   6.0   -0.47    1.01    1.80   110.29361   105.92483   116.83293
    46  H   1.0    0.26    1.00    1.43   115.53165    97.74461   116.30601
    47  H   1.0    0.12    0.99    1.43   111.68977    97.92489   112.44878
    48  H   1.0    0.12    0.99    1.43   111.14316   102.52021   112.51438
    49  H   1.0    0.13    0.99    1.43   110.28796   101.22335   115.46725
    50  H   1.0    0.15    0.99    1.43   114.64403   102.32159   117.09736
    51  H   1.0    0.14    0.99    1.43   115.26988   103.89514   114.22630
    52  N   5.0   -0.49    3.01    1.93   114.97902    99.91092   109.50038
    53  C   4.0    0.06    3.99    3.60   116.88175   100.70126   107.70351
    54  C   4.0    0.07    3.01    3.02   116.57402   103.53544   107.31864
    55  O   6.0   -0.40    1.00    1.80   114.56587   104.41953   106.58313
    56  C   4.0   -0.12    3.99    3.60   116.43080    99.38500   105.15957
    57  C   4.0   -0.09    3.98    3.58   116.46246    96.50212   105.41043
    58  C   4.0   -0.22    3.98    3.59   115.31674    95.24745   103.07865
    59  C   4.0   -0.21    3.98    3.59   119.16391    95.58116   105.81203
    60  H   1.0    0.24    1.00    1.43   113.18991   100.34890   108.99249
    61  H   1.0    0.15    0.99    1.43   118.73714   100.28010   108.49817
    62  H   1.0    0.13    0.99    1.43   114.59804   100.03128   104.45861
    63  H   1.0    0.11    0.99    1.43   117.88672    99.99394   103.82406
    64  H   1.0    0.12    0.99    1.43   115.33561    95.99072   107.07257
    65  H   1.0    0.10    0.99    1.43   115.46037    93.21114   103.28437
    66  H   1.0    0.11    0.99    1.43   113.34740    95.78601   102.84899
    67  H   1.0    0.13    0.99    1.43   116.36809    95.81079   101.40307
    68  H   1.0    0.10    0.99    1.43   119.19317    93.58107   106.26676
    69  H   1.0    0.14    0.99    1.43   120.28538    95.87306   104.11165
    70  H   1.0    0.11    0.99    1.43   120.07173    96.60596   107.34497
    71  N   5.0   -0.70    3.00    1.93   128.27579   103.07392    99.87484
    72  C   4.0    0.06    3.99    3.60   126.43130   103.04261   101.87265
    73  C   4.0    0.26    3.01    3.02   127.72164   102.13002   104.28504
    74  O   6.0   -0.42    1.00    1.80   129.65225   100.85242   104.22278
    75  C   4.0   -0.14    3.98    3.59   124.21831   101.28648   101.20440
    76  C   4.0   -0.10    3.97    3.58   125.05628    98.58337   100.72228
    77  C   4.0    0.30    2.99    3.02   122.84315    96.81599    99.87522
    78  O   6.0   -0.41    1.00    1.80   120.98731    97.80991    98.82579
    79  O   6.0   -0.40    1.00    1.80   123.15571    94.51720   100.28650
    80  H   1.0    0.29    1.00    1.43   129.61130   101.72413   100.08512
    81  H   1.0    0.11    0.99    1.43   125.73658   104.96417   102.17133
    82  H   1.0    0.11    0.99    1.43   122.84589   101.34642   102.74191
    83  H   1.0    0.12    0.99    1.43   123.28147   102.00204    99.51020
    84  H   1.0    0.12    0.99    1.43   126.43899    98.53493    99.18887
    85  H   1.0    0.13    0.99    1.43   125.93498    97.75755   102.39661
    86  N   5.0   -0.49    3.01    1.93   126.49567   102.75519   106.39655
    87  C   4.0    0.07    3.99    3.61   127.28793   102.05985   108.91007
    88  C   4.0    0.26    3.01    3.02   125.01336   101.04462   110.38108
    89  O   6.0   -0.43    1.00    1.80   122.83756   101.56729   109.77498
    90  C   4.0   -0.09    3.98    3.58   128.45781   104.30634   110.37965
    91  C   4.0   -0.21    3.98    3.59   130.95535   105.08068   109.17012
    92  C   4.0   -0.21    3.98    3.59   126.63490   106.54186   110.49643
    93  H   1.0    0.24    1.00    1.43   124.93236   103.84187   106.24987
    94  H   1.0    0.13    0.99    1.43   128.71579   100.57647   108.68562
    95  H   1.0    0.11    0.99    1.43   128.81296   103.64823   112.31162
    96  H   1.0    0.10    0.99    1.43   131.75363   106.69086   110.16494
    97  H   1.0    0.11    0.99    1.43   132.28656   103.51718   109.19598
    98  H   1.0    0.13    0.99    1.43   130.64545   105.63420   107.21390
    99  H   1.0    0.10    0.99    1.43   127.30365   107.93189   111.85469
   100  H   1.0    0.11    0.99    1.43   126.51901   107.46592   108.66074
   101  H   1.0    0.13    0.99    1.43   124.74563   105.94190   111.05676
   102  N   5.0   -0.50    3.01    1.93   125.60114    99.57016   112.35509
   103  C   4.0    0.07    3.99    3.60   123.73584    98.45743   114.02740
   104  C   4.0    0.27    3.01    3.02   123.71994    99.85969   116.56703
   105  O   6.0   -0.44    1.00    1.80   125.66047   100.15419   117.78740
   106  C   4.0   -0.13    3.99    3.60   124.41853    95.69242   114.57329
   107  C   4.0   -0.10    3.98    3.58   124.41915    94.00647   112.21381
   108  C   4.0   -0.22    3.98    3.59   126.19535    91.76304   112.59120
   109  C   4.0   -0.22    3.98    3.59   121.75405    93.07256   111.62886
   110  H   1.0    0.23    1.00    1.43   127.42570    99.28965   112.84169
   111  H   1.0    0.16    0.99    1.43   121.89946    98.62135   113.10286
   112  H   1.0    0.12    0.99    1.43   126.28547    95.68942   115.45319
   113  H   1.0    0.11    0.99    1.43   123.08231    94.93367   115.95330
   114  H   1.0    0.13    0.99    1.43   125.09614    95.11922   110.60154
   115  H   1.0    0.11    0.99    1.43   126.21984    90.58779   110.90701
   116  H   1.0    0.10    0.99    1.43   128.10990    92.40681   112.96401
   117  H   1.0    0.11    0.99    1.43   125.56207    90.62492   114.18157
   118  H   1.0    0.10    0.99    1.43   121.74824    92.02542   109.86240
   119  H   1.0    0.11    0.99    1.43   121.07779    91.83927   113.13310
   120  H   1.0    0.12    0.99    1.43   120.44715    94.64984   111.45584
   121  N   5.0   -0.48    3.01    1.93   121.43539   100.59347   117.36999
   122  C   4.0    0.09    3.99    3.60   121.01839   101.84860   119.76643
   123  C   4.0    0.25    3.02    3.02   119.01154   100.37619   121.26651
   124  O   6.0   -0.40    1.00    1.80   116.77661   101.02402   121.26189
   125  C   4.0    0.05    3.97    3.57   120.23779   104.66633   119.42936
   126  O   6.0   -0.45    1.99    1.82   118.94755   104.99021   117.11743
   127  C   4.0   -0.20    3.98    3.59   122.58902   106.35040   119.52469
   128  H   1.0    0.28    1.00    1.43   119.96768   100.55378   116.15060
   129  H   1.0    0.12    0.99    1.43   122.82302   101.78861   120.76737
   130  H   1.0    0.13    0.99    1.43   118.98630   105.12384   121.01951
   131  H   1.0    0.30    0.99    1.43   117.43835   106.04018   117.36016
   132  H   1.0    0.11    0.99    1.43   122.06189   108.30251   119.17298
   133  H   1.0    0.10    0.99    1.43   123.49301   106.20291   121.35990
   134  H   1.0    0.13    0.99    1.43   123.91406   105.76223   118.06841
   135  N   5.0   -0.33    3.03    1.93   119.79858    98.39369   122.60519
   136  C   4.0    0.08    4.03    3.68   117.99021    96.99997   124.14799
   137  C   4.0    0.28    3.01    3.02   116.81735    98.72900   126.14796
   138  O   6.0   -0.41    1.00    1.80   117.97755   100.46737   127.13390
   139  C   4.0   -0.12    4.01    3.64   119.55292    94.87997   125.36610
   140  C   4.0   -0.14    4.01    3.64   122.24594    95.90582   125.26943
   141  C   4.0   -0.04    4.02    3.66   122.27889    97.23514   122.71466
   142  H   1.0    0.14    0.99    1.43   116.48407    96.21608   122.97082
   143  H   1.0    0.12    0.99    1.43   118.90938    94.45020   127.27116
   144  H   1.0    0.14    0.99    1.43   119.38266    93.19039   124.19667
   145  H   1.0    0.13    0.99    1.43   122.53148    97.28647   126.77093
   146  H   1.0    0.10    0.99    1.43   123.66718    94.43109   125.40431
   147  H   1.0    0.12    0.99    1.43   123.79227    98.61542   122.52448
   148  H   1.0    0.13    0.99    1.43   122.44805    95.85265   121.17932
   149  N   5.0   -0.48    3.01    1.93   114.47061    98.07154   126.82693
   150  C   4.0    0.07    3.99    3.60   113.11070    99.33432   128.84551
   151  C   4.0    0.06    3.00    3.02   111.41225    97.36693   130.11602
   152  O   6.0   -0.41    1.00    1.80   109.92859    96.07955   128.90841
   153  C   4.0   -0.13    3.98    3.59   111.43453   101.49758   127.84745
   154  C   4.0   -0.18    3.98    3.58   110.56740   103.31656   129.93723
   155  C   4.0   -0.16    3.98    3.58   112.34666   105.57336   130.30620
   156  C   4.0   -0.06    3.98    3.58   112.02196   107.49414   128.17274
   157  N   5.0   -0.73    3.98    2.82   114.10652   109.38879   128.20172
   158  H   1.0    0.30    1.00    1.43   113.52501    96.73167   125.84093
   159  H   1.0    0.13    0.99    1.43   114.54509   100.07481   130.14131
   160  H   1.0    0.13    0.99    1.43   112.52108   102.47744   126.39518
   161  H   1.0    0.14    0.99    1.43   109.80970   100.62644   126.91732
   162  H   1.0    0.10    0.99    1.43   108.68644   104.01329   129.47316
   163  H   1.0    0.10    0.99    1.43   110.39325   102.27058   131.70425
   164  H   1.0    0.10    0.99    1.43   111.91349   106.45506   132.11922
   165  H   1.0    0.12    0.99    1.43   114.28753   104.87990   130.33744
   166  H   1.0    0.11    0.99    1.43   112.03546   106.53304   126.34557
   167  H   1.0    0.10    0.99    1.43   110.22759   108.48590   128.38192
   168  H   1.0    0.24    1.00    1.43   113.90209   110.62361   126.71007
   169  H   1.0    0.23    1.00    1.43   114.10923   110.38532   129.88005
   170  H   1.0    0.24    1.00    1.43   115.81444   108.47413   128.01580
   171  N   5.0   -0.72    3.00    1.93    95.46556   104.36219   116.16411
   172  C   4.0    0.06    3.98    3.58    96.35929   106.94662   116.17534
   173  C   4.0    0.07    3.00    3.02    97.48404   107.81912   113.65382
   174  O   6.0   -0.40    1.00    1.80    97.68987   110.08814   113.19284
   175  C   4.0   -0.15    3.98    3.59    98.22883   107.39939   118.36754
   176  C   4.0   -0.16    3.98    3.58   100.75795   106.00981   118.14060
   177  C   4.0   -0.16    3.98    3.59   102.38569   106.59390   120.47247
   178  C   4.0   -0.06    3.98    3.58   105.21258   106.21404   120.05199
   179  N   5.0   -0.71    3.98    2.80   106.35303   108.31799   118.59197
   180  H   1.0    0.25    1.00    1.43    96.77574   102.97806   116.24871
   181  H   1.0    0.13    0.99    1.43    94.67023   108.09998   116.53049
   182  H   1.0    0.11    0.99    1.43    98.57563   109.42680   118.48591
   183  H   1.0    0.10    0.99    1.43    97.29487   106.80589   120.10877
   184  H   1.0    0.10    0.99    1.43   100.46785   103.97078   118.02337
   185  H   1.0    0.12    0.99    1.43   101.71023   106.59886   116.41052
   186  H   1.0    0.11    0.99    1.43   102.04246   108.53131   121.08276
   187  H   1.0    0.09    0.99    1.43   101.80136   105.36269   122.01471
   188  H   1.0    0.10    0.99    1.43   106.19208   106.10731   121.86189
   189  H   1.0    0.11    0.99    1.43   105.57220   104.46865   119.01498
   190  H   1.0    0.32    0.99    1.43   108.20011   107.70758   117.96378
   191  H   1.0    0.25    1.00    1.43   105.31178   108.68610   117.00096
   192  H   1.0    0.25    1.00    1.43   106.49035   109.93025   119.65541
   193  N   5.0   -0.68    3.00    1.93   104.01913    98.89309   108.98954
   194  C   4.0    0.08    3.99    3.60   105.16901    97.20520   110.83587
   195  C   4.0    0.28    3.00    3.02   105.70405    94.60912   109.64625
   196  O   6.0   -0.39    1.00    1.80   104.19890    93.53912   108.27341
   197  C   4.0   -0.09    3.98    3.59   103.39322    96.90820   113.12744
   198  C   4.0   -0.21    3.98    3.59   104.16293    94.70286   114.82328
   199  C   4.0   -0.23    3.98    3.59   103.34987    99.35900   114.64634
   200  H   1.0    0.26    1.00    1.43   102.10555    99.06394   109.04914
   201  H   1.0    0.10    0.99    1.43   106.97099    98.02922   111.43789
   202  H   1.0    0.12    0.99    1.43   101.49755    96.51467   112.39672
   203  H   1.0    0.10    0.99    1.43   102.98339    94.68334   116.50420
   204  H   1.0    0.14    0.99    1.43   103.93043    92.89819   113.86858
   205  H   1.0    0.15    0.99    1.43   106.11771    94.86162   115.42449
   206  H   1.0    0.10    0.99    1.43   102.12458    99.13000   116.27845
   207  H   1.0    0.11    0.99    1.43   105.24900    99.78197   115.31161
   208  H   1.0    0.10    0.99    1.43   102.67415   100.91174   113.48350
   209  N   5.0   -0.50    3.01    1.93   107.99879    93.66867   110.20948
   210  C   4.0    0.07    3.99    3.60   108.85162    91.18225   109.42244
   211  C   4.0    0.29    3.01    3.02   109.35432    89.60303   111.81586
   212  O   6.0   -0.40    1.00    1.80   111.00970    90.21112   113.29142
   213  C   4.0   -0.15    3.98    3.59   111.36316    91.37175   107.97931
   214  C   4.0   -0.15    3.98    3.58   112.13442    88.83749   106.81997
   215  C   4.0   -0.04    3.98    3.59   110.77831    88.27365   104.30053
   216  N   5.0   -0.48    3.02    1.93   112.58785    87.82928   102.28812
   217  C   4.0    0.37    3.00    3.02   113.67826    85.63250   101.70532
   218  N   5.0   -0.65    3.02    1.93   115.61598    85.63969   100.09825
   219  N   5.0   -0.64    3.01    1.93   112.79684    83.44878   102.57553
   220  H   1.0    0.27    1.00    1.43   108.98409    94.43802   111.65611
   221  H   1.0    0.13    0.99    1.43   107.35904    90.37378   108.24107
   222  H   1.0    0.11    0.99    1.43   111.20202    92.82478   106.52874
   223  H   1.0    0.12    0.99    1.43   112.79611    91.97526   109.33842
   224  H   1.0    0.12    0.99    1.43   114.16693    88.88122   106.48418
   225  H   1.0    0.15    0.99    1.43   111.78684    87.33979   108.19016
   226  H   1.0    0.12    0.99    1.43   109.52145    86.65708   104.48700
   227  H   1.0    0.11    0.99    1.43   109.63119    89.89510   103.74659
   228  H   1.0    0.23    1.00    1.43   113.43466    89.41638   101.63947
   229  H   1.0    0.26    1.00    1.43   116.33012    87.26728    99.41247
   230  H   1.0    0.27    1.00    1.43   116.43079    84.01279    99.53958
   231  H   1.0    0.27    1.00    1.43   111.47316    83.38741   103.94306
   232  H   1.0    0.27    1.00    1.43   113.61383    81.80742   102.06168
   233  N   5.0   -0.46    3.00    1.93   107.88873    87.54023   112.04537
   234  C   4.0    0.07    3.98    3.59   107.98098    85.71592   114.09054
   235  C   4.0    0.06    3.00    3.02   106.95400    86.85205   116.55762
   236  O   6.0   -0.42    1.00    1.80   107.41712    88.99379   117.25334
   237  C   4.0   -0.08    3.99    3.60   110.65170    84.70960   114.62739
   238  C   4.0    0.28    3.00    3.02   111.86903    83.67358   112.23716
   239  O   6.0   -0.41    1.00    1.80   110.68401    83.22291   110.30905
   240  N   5.0   -0.65    3.00    1.93   114.38016    83.40585   112.38557
   241  H   1.0    0.23    1.00    1.43   106.70765    87.11268   110.61492
   242  H   1.0    0.11    0.99    1.43   106.80246    84.12432   113.49850
   243  H   1.0    0.15    0.99    1.43   111.83881    86.18793   115.44536
   244  H   1.0    0.10    0.99    1.43   110.54126    83.15187   115.98256
   245  H   1.0    0.28    1.00    1.43   115.29447    82.49811   110.98233
   246  H   1.0    0.27    1.00    1.43   115.29639    83.67596   114.02976
   247  H   1.0    0.29    1.00    1.43   107.19233    90.66992   126.22515
   248  H   1.0    0.14    1.00    1.43   118.02166   104.69900   107.66725
   249  H   1.0    0.30    1.00    1.43   127.50154   102.81299    98.38319
   250  H   1.0    0.12    1.00    1.43   111.50050    97.10892   131.98597
   251  H   1.0    0.29    1.00    1.43    94.45329   104.10570   117.50652
   252  H   1.0    0.13    1.00    1.43    98.05180   106.54334   112.38060
   253  H   1.0    0.29    1.00    1.43   104.62913   100.46648   109.20143
   254  H   1.0    0.12    1.00    1.43   105.84347    85.81781   117.68374

           ------------------------------------------------- 
          |        Self-Consistent Charge Iterations        |
           ------------------------------------------------- 

          ...................................................
          :                      SETUP                      :
          :.................................................:
          :  # basis functions                 617          :
          :  # atomic orbitals                 617          :
          :  # shells                          375          :
          :  # electrons                       682          :
          :  max. iterations                   250          :
          :  Hamiltonian                  GFN2-xTB          :
          :  restarted?                      false          :
          :  GBSA solvation                   true          :
          :  PC potential                    false          :
          :  electronic temp.          500.0000000     K    :
          :  accuracy                    0.1000000          :
          :  -> integral cutoff          0.3500000E+02      :
          :  -> integral neglect         0.1000000E-08      :
          :  -> SCF convergence          0.1000000E-06 Eh   :
          :  -> wf. convergence          0.1000000E-04 e    :
          :  Broyden damping             0.4000000          :
          ...................................................

 iter      E             dE          RMSdq      gap      omega  full diag
   1   -389.5356080 -0.389536E+03  0.419E+00    2.29       0.0  T
   2   -390.6238697 -0.108826E+01  0.215E+00    1.30       1.0  T
   3   -390.6690245 -0.451548E-01  0.120E+00    1.79       1.0  T
   4   -390.6827463 -0.137219E-01  0.372E-01    1.18       1.0  T
   5   -390.7023574 -0.196110E-01  0.152E-01    1.27       1.0  T
   6   -390.7041687 -0.181133E-02  0.818E-02    1.28       1.0  T
   7   -390.7045692 -0.400500E-03  0.361E-02    1.25       1.0  T
   8   -390.7046241 -0.549234E-04  0.125E-02    1.24       1.0  T
   9   -390.7046320 -0.787970E-05  0.669E-03    1.24       1.0  T
  10   -390.7046341 -0.214149E-05  0.285E-03    1.24       2.2  T
  11   -390.7046345 -0.347035E-06  0.130E-03    1.24       4.8  T
  12   -390.7046346 -0.123403E-06  0.502E-04    1.24      12.5  T
  13   -390.7046346 -0.104023E-07  0.249E-04    1.24      25.2  T
  14   -390.7046346 -0.272945E-08  0.102E-04    1.24      61.8  T
  15   -390.7046346 -0.758575E-09  0.412E-05    1.24     152.3  T
  16   -390.7046346 -0.112493E-09  0.178E-05    1.24     352.5  T

   *** convergence criteria satisfied after 16 iterations ***

         #    Occupation            Energy/Eh            Energy/eV
      -------------------------------------------------------------
         1        2.0000           -0.7466546             -20.3175
       ...           ...                  ...                  ...
       335        2.0000           -0.3739344             -10.1753
       336        2.0000           -0.3679548             -10.0126
       337        2.0000           -0.3676861             -10.0052
       338        2.0000           -0.3634618              -9.8903
       339        2.0000           -0.3622608              -9.8576
       340        2.0000           -0.3554655              -9.6727
       341        2.0000           -0.3512021              -9.5567 (HOMO)
       342        0.0000           -0.3057573              -8.3201 (LUMO)
       343        0.0000           -0.3030733              -8.2470
       344                         -0.2922077              -7.9514
       345                         -0.2840136              -7.7284
       346                         -0.2440841              -6.6419
       ...                                ...                  ...
       617                          0.7246348              19.7183
      -------------------------------------------------------------
                  HL-Gap            0.0454448 Eh            1.2366 eV
             Fermi-level           -0.3285604 Eh           -8.9406 eV

 SCC (total)                   0 d,  0 h,  0 min,  4.089 sec
 SCC setup                      ...        0 min,  0.039 sec (  0.943%)
 Dispersion                     ...        0 min,  0.020 sec (  0.500%)
 integral evaluation            ...        0 min,  0.121 sec (  2.968%)
 zeroth order Hamiltonian       ...        0 min,  0.004 sec (  0.100%)
 iterations                     ...        0 min,  3.067 sec ( 75.013%)
 molecular gradient             ...        0 min,  0.829 sec ( 20.267%)
 printout                       ...        0 min,  0.008 sec (  0.207%)

         :::::::::::::::::::::::::::::::::::::::::::::::::::::
         ::                     SUMMARY                     ::
         :::::::::::::::::::::::::::::::::::::::::::::::::::::
         :: total energy             -385.961448284474 Eh   ::
         :: total w/o Gsasa/hb       -385.903816314649 Eh   ::
         :: gradient norm               0.448040410389 Eh/α ::
         :: HOMO-LUMO gap               1.236615791243 eV   ::
         ::.................................................::
         :: SCC energy               -390.718417011299 Eh   ::
         :: -> isotropic ES             1.391346069086 Eh   ::
         :: -> anisotropic ES          -0.070591251721 Eh   ::
         :: -> anisotropic XC           0.127069035586 Eh   ::
         :: -> dispersion              -0.303975508328 Eh   ::
         :: -> Gsolv                   -0.431420813176 Eh   ::
         ::    -> Gborn                -0.373788843351 Eh   ::
         ::    -> Gsasa                -0.015639838079 Eh   ::
         ::    -> Ghb                  -0.043849574872 Eh   ::
         ::    -> Gshift                0.001857443127 Eh   ::
         :: repulsion energy            4.732494169923 Eh   ::
         :: add. restraining            0.000000000000 Eh   ::
         :::::::::::::::::::::::::::::::::::::::::::::::::::::

           -------------------------------------------------
          |                Property Printout                |
           -------------------------------------------------

    * Orbital Energies and Occupations

         #    Occupation            Energy/Eh            Energy/eV
      -------------------------------------------------------------
         1        2.0000           -0.7466546             -20.3175
       ...           ...                  ...                  ...
       329        2.0000           -0.3929940             -10.6939
       330        2.0000           -0.3923558             -10.6765
       331        2.0000           -0.3846942             -10.4681
       332        2.0000           -0.3794118             -10.3243
       333        2.0000           -0.3773556             -10.2684
       334        2.0000           -0.3768318             -10.2541
       335        2.0000           -0.3739344             -10.1753
       336        2.0000           -0.3679548             -10.0126
       337        2.0000           -0.3676861             -10.0052
       338        2.0000           -0.3634618              -9.8903
       339        2.0000           -0.3622608              -9.8576
       340        2.0000           -0.3554655              -9.6727
       341        2.0000           -0.3512021              -9.5567 (HOMO)
       342        0.0000           -0.3057573              -8.3201 (LUMO)
       343        0.0000           -0.3030733              -8.2470
       344                         -0.2922077              -7.9514
       345                         -0.2840136              -7.7284
       346                         -0.2440841              -6.6419
       347                         -0.2372577              -6.4561
       348                         -0.2361467              -6.4259
       349                         -0.2341098              -6.3705
       350                         -0.2320295              -6.3138
       351                         -0.2270357              -6.1780
       352                         -0.2269351              -6.1752
       ...                                ...                  ...
       617                          0.7246348              19.7183
      -------------------------------------------------------------
                  HL-Gap            0.0454448 Eh            1.2366 eV
             Fermi-level           -0.3285604 Eh           -8.9406 eV

   #   Z        covCN         q      C6AA      α(0)
   1   7 N      2.635    -0.398    30.306     8.176
   2   6 C      3.788     0.045    19.838     6.344
   3   6 C      2.757     0.281    22.243     7.723
   4   8 O      0.858    -0.503    23.854     6.548
   5   6 C      3.807    -0.072    21.877     6.658
   6   6 C      3.057    -0.034    28.797     8.800
   7   6 C      3.030    -0.009    28.212     8.712
   8   6 C      3.117    -0.016    28.240     8.704
   9   7 N      2.779    -0.107    23.339     7.175
  10   6 C      3.087     0.043    26.945     8.509
  11   6 C      2.911    -0.036    28.886     8.813
  12   6 C      2.908    -0.061    29.517     8.909
  13   6 C      2.920    -0.046    29.137     8.852
  14   6 C      2.925    -0.043    29.074     8.843
  15   1 H      0.860     0.170     1.270     1.765
  16   1 H      0.924     0.024     2.671     2.556
  17   1 H      0.925     0.044     2.390     2.418
  18   1 H      0.924     0.044     2.393     2.419
  19   1 H      0.926     0.017     2.784     2.609
  20   1 H      0.860     0.193     1.142     1.674
  21   1 H      0.925     0.009     2.913     2.669
  22   1 H      0.926     0.055     2.254     2.348
  23   1 H      0.926     0.020     2.732     2.585
  24   1 H      0.926     0.040     2.446     2.446
  25   7 N      2.694    -0.186    25.042     7.432
  26   6 C      3.801     0.058    19.614     6.305
  27   6 C      2.770     0.274    22.372     7.746
  28   8 O      0.859    -0.468    23.085     6.442
  29   6 C      3.806    -0.096    22.317     6.725
  30   6 C      2.683     0.372    20.690     7.444
  31   8 O      0.856    -0.633    26.955     6.961
  32   8 O      0.856    -0.632    26.930     6.958
  33   1 H      0.860     0.214     1.039     1.597
  34   1 H      0.924     0.039     2.460     2.453
  35   1 H      0.925     0.054     2.272     2.357
  36   1 H      0.924     0.008     2.923     2.674
  37   7 N      2.696    -0.174    24.763     7.391
  38   6 C      3.805     0.028    20.099     6.382
  39   6 C      2.756     0.274    22.360     7.743
  40   8 O      0.858    -0.490    23.575     6.510
  41   6 C      3.804    -0.058    21.609     6.618
  42   6 C      3.801    -0.092    22.246     6.715
  43   6 C      2.685     0.368    20.756     7.456
  44   8 O      0.857    -0.606    26.273     6.872
  45   8 O      0.860    -0.572    25.449     6.764
  46   1 H      0.860     0.179     1.221     1.731
  47   1 H      0.924     0.064     2.156     2.296
  48   1 H      0.924     0.050     2.326     2.385
  49   1 H      0.924     0.069     2.093     2.263
  50   1 H      0.924     0.044     2.391     2.418
  51   1 H      0.924     0.016     2.801     2.617
  52   7 N      2.697    -0.167    24.615     7.369
  53   6 C      3.791     0.030    20.080     6.382
  54   6 C      2.773     0.201    23.722     7.977
  55   8 O      0.856    -0.348    20.661     6.094
  56   6 C      3.812    -0.065    21.740     6.637
  57   6 C      3.850    -0.008    20.681     6.468
  58   6 C      3.756    -0.118    22.805     6.809
  59   6 C      3.757    -0.099    22.437     6.754
  60   1 H      0.860     0.217     1.023     1.585
  61   1 H      0.924     0.082     1.954     2.186
  62   1 H      0.924     0.069     2.092     2.262
  63   1 H      0.924     0.042     2.423     2.434
  64   1 H      0.924     0.037     2.485     2.465
  65   1 H      0.925     0.056     2.249     2.345
  66   1 H      0.925     0.056     2.250     2.346
  67   1 H      0.925     0.041     2.432     2.439
  68   1 H      0.925     0.042     2.420     2.433
  69   1 H      0.925     0.025     2.657     2.549
  70   1 H      0.925     0.021     2.724     2.581
  71   7 N      2.639    -0.388    30.032     8.139
  72   6 C      3.790     0.031    20.058     6.378
  73   6 C      2.757     0.275    22.344     7.741
  74   8 O      0.858    -0.493    23.621     6.516
  75   6 C      3.806    -0.047    21.408     6.587
  76   6 C      3.798    -0.080    22.024     6.682
  77   6 C      2.683     0.369    20.742     7.453
  78   8 O      0.856    -0.638    27.060     6.974
  79   8 O      0.856    -0.647    27.306     7.006
  80   1 H      0.860     0.164     1.312     1.794
  81   1 H      0.924     0.037     2.491     2.468
  82   1 H      0.924     0.011     2.879     2.653
  83   1 H      0.924     0.040     2.455     2.450
  84   1 H      0.924     0.013     2.841     2.636
  85   1 H      0.924     0.001     3.044     2.728
  86   7 N      2.692    -0.166    24.590     7.365
  87   6 C      3.796     0.017    20.287     6.414
  88   6 C      2.755     0.272    22.403     7.751
  89   8 O      0.858    -0.491    23.587     6.511
  90   6 C      3.851    -0.017    20.844     6.494
  91   6 C      3.756    -0.116    22.782     6.806
  92   6 C      3.754    -0.116    22.787     6.807
  93   1 H      0.860     0.196     1.127     1.663
  94   1 H      0.924     0.070     2.085     2.258
  95   1 H      0.924     0.043     2.408     2.427
  96   1 H      0.925     0.065     2.137     2.286
  97   1 H      0.925     0.047     2.362     2.404
  98   1 H      0.925     0.042     2.420     2.433
  99   1 H      0.925     0.062     2.180     2.309
 100   1 H      0.925     0.049     2.327     2.385
 101   1 H      0.925     0.034     2.532     2.489
 102   7 N      2.690    -0.174    24.763     7.391
 103   6 C      3.793     0.022    20.220     6.404
 104   6 C      2.757     0.271    22.426     7.755
 105   8 O      0.858    -0.477    23.280     6.469
 106   6 C      3.812    -0.066    21.764     6.640
 107   6 C      3.849    -0.008    20.678     6.468
 108   6 C      3.756    -0.118    22.805     6.809
 109   6 C      3.756    -0.104    22.538     6.769
 110   1 H      0.860     0.208     1.064     1.616
 111   1 H      0.924     0.075     2.034     2.230
 112   1 H      0.924     0.060     2.202     2.321
 113   1 H      0.924     0.037     2.493     2.469
 114   1 H      0.924     0.027     2.632     2.537
 115   1 H      0.925     0.051     2.310     2.377
 116   1 H      0.925     0.046     2.373     2.409
 117   1 H      0.925     0.043     2.409     2.427
 118   1 H      0.925     0.047     2.359     2.402
 119   1 H      0.925     0.030     2.592     2.518
 120   1 H      0.925     0.028     2.608     2.526
 121   7 N      2.689    -0.169    24.668     7.376
 122   6 C      3.791     0.014    20.346     6.424
 123   6 C      2.762     0.255    22.706     7.803
 124   8 O      0.859    -0.508    23.954     6.562
 125   6 C      3.722     0.127    18.617     6.162
 126   8 O      1.653    -0.497    22.836     6.451
 127   6 C      3.752    -0.132    23.106     6.855
 128   1 H      0.860     0.197     1.120     1.658
 129   1 H      0.924     0.074     2.045     2.236
 130   1 H      0.924     0.035     2.516     2.481
 131   1 H      0.803     0.330     0.639     1.255
 132   1 H      0.925     0.070     2.083     2.257
 133   1 H      0.925     0.059     2.213     2.326
 134   1 H      0.925     0.043     2.406     2.426
 135   7 N      2.761    -0.074    22.684     7.074
 136   6 C      3.834     0.033    19.993     6.362
 137   6 C      2.754     0.278    22.297     7.732
 138   8 O      0.858    -0.473    23.205     6.459
 139   6 C      3.836    -0.062    21.671     6.623
 140   6 C      3.835    -0.068    21.769     6.638
 141   6 C      3.777    -0.000    20.614     6.469
 142   1 H      0.924     0.039     2.456     2.451
 143   1 H      0.925     0.054     2.273     2.358
 144   1 H      0.924     0.058     2.224     2.332
 145   1 H      0.925     0.075     2.029     2.228
 146   1 H      0.925     0.067     2.116     2.275
 147   1 H      0.925     0.070     2.085     2.258
 148   1 H      0.924     0.044     2.395     2.420
 149   7 N      2.693    -0.175    24.794     7.395
 150   6 C      3.790     0.023    20.197     6.400
 151   6 C      2.770     0.200    23.736     7.979
 152   8 O      0.856    -0.353    20.773     6.111
 153   6 C      3.803    -0.074    21.910     6.664
 154   6 C      3.802    -0.079    22.010     6.679
 155   6 C      3.801    -0.096    22.330     6.728
 156   6 C      3.731    -0.053    21.627     6.638
 157   7 N      3.483    -0.149    24.211     7.308
 158   1 H      0.860     0.206     1.078     1.627
 159   1 H      0.924     0.094     1.839     2.121
 160   1 H      0.924     0.071     2.076     2.253
 161   1 H      0.924     0.055     2.254     2.348
 162   1 H      0.925     0.079     1.987     2.204
 163   1 H      0.924     0.058     2.220     2.330
 164   1 H      0.924     0.091     1.866     2.136
 165   1 H      0.924     0.074     2.039     2.233
 166   1 H      0.924     0.106     1.729     2.056
 167   1 H      0.924     0.132     1.517     1.926
 168   1 H      0.859     0.302     0.707     1.317
 169   1 H      0.859     0.306     0.696     1.307
 170   1 H      0.859     0.288     0.750     1.356
 171   7 N      2.633    -0.397    30.292     8.174
 172   6 C      3.780     0.034    20.024     6.375
 173   6 C      2.763     0.201    23.721     7.976
 174   8 O      0.856    -0.388    21.434     6.207
 175   6 C      3.805    -0.076    21.956     6.671
 176   6 C      3.799    -0.071    21.854     6.656
 177   6 C      3.803    -0.093    22.269     6.718
 178   6 C      3.730    -0.034    21.277     6.585
 179   7 N      3.477    -0.176    24.801     7.396
 180   1 H      0.860     0.161     1.331     1.807
 181   1 H      0.923     0.072     2.065     2.247
 182   1 H      0.924     0.058     2.218     2.329
 183   1 H      0.924     0.061     2.183     2.311
 184   1 H      0.924     0.049     2.329     2.387
 185   1 H      0.924     0.039     2.468     2.457
 186   1 H      0.925     0.083     1.945     2.181
 187   1 H      0.925     0.081     1.969     2.194
 188   1 H      0.924     0.109     1.704     2.041
 189   1 H      0.924     0.087     1.906     2.159
 190   1 H      0.856     0.305     0.698     1.309
 191   1 H      0.859     0.266     0.825     1.423
 192   1 H      0.859     0.284     0.764     1.369
 193   7 N      2.634    -0.391    30.137     8.153
 194   6 C      3.788     0.030    20.085     6.383
 195   6 C      2.751     0.275    22.344     7.740
 196   8 O      0.858    -0.475    23.234     6.463
 197   6 C      3.853    -0.017    20.841     6.493
 198   6 C      3.755    -0.112    22.702     6.794
 199   6 C      3.757    -0.114    22.731     6.798
 200   1 H      0.860     0.166     1.297     1.784
 201   1 H      0.924     0.023     2.695     2.567
 202   1 H      0.924     0.040     2.455     2.450
 203   1 H      0.925     0.046     2.375     2.410
 204   1 H      0.925     0.013     2.844     2.637
 205   1 H      0.925     0.048     2.341     2.393
 206   1 H      0.925     0.053     2.279     2.361
 207   1 H      0.925     0.037     2.485     2.465
 208   1 H      0.925     0.051     2.313     2.378
 209   7 N      2.691    -0.186    25.034     7.431
 210   6 C      3.792     0.011    20.395     6.431
 211   6 C      2.754     0.281    22.241     7.723
 212   8 O      0.858    -0.474    23.223     6.461
 213   6 C      3.807    -0.075    21.923     6.665
 214   6 C      3.801    -0.084    22.104     6.694
 215   6 C      3.736    -0.032    21.233     6.576
 216   7 N      2.700    -0.137    23.979     7.273
 217   6 C      2.735     0.234    23.099     7.869
 218   7 N      2.654    -0.257    26.667     7.669
 219   7 N      2.650    -0.238    26.226     7.606
 220   1 H      0.860     0.190     1.158     1.686
 221   1 H      0.924     0.080     1.982     2.202
 222   1 H      0.925     0.069     2.096     2.264
 223   1 H      0.924     0.045     2.388     2.417
 224   1 H      0.924     0.067     2.116     2.275
 225   1 H      0.925     0.059     2.206     2.323
 226   1 H      0.925     0.095     1.832     2.117
 227   1 H      0.924     0.096     1.821     2.110
 228   1 H      0.860     0.217     1.022     1.584
 229   1 H      0.860     0.240     0.924     1.506
 230   1 H      0.860     0.258     0.853     1.447
 231   1 H      0.860     0.248     0.892     1.479
 232   1 H      0.860     0.259     0.850     1.444
 233   7 N      2.687    -0.173    24.754     7.389
 234   6 C      3.787     0.033    20.037     6.376
 235   6 C      2.766     0.198    23.776     7.986
 236   8 O      0.856    -0.354    20.781     6.112
 237   6 C      3.810    -0.094    22.281     6.719
 238   6 C      2.744     0.290    22.080     7.694
 239   8 O      0.859    -0.468    23.087     6.442
 240   7 N      2.640    -0.286    27.386     7.772
 241   1 H      0.860     0.225     0.988     1.557
 242   1 H      0.924     0.103     1.761     2.075
 243   1 H      0.924     0.074     2.045     2.236
 244   1 H      0.924     0.083     1.953     2.185
 245   1 H      0.860     0.251     0.881     1.470
 246   1 H      0.860     0.211     1.051     1.606
 247   1 H      0.862     0.186     1.178     1.700
 248   1 H      0.930     0.071     2.070     2.250
 249   1 H      0.862     0.180     1.216     1.727
 250   1 H      0.930     0.086     1.920     2.167
 251   1 H      0.862     0.187     1.177     1.699
 252   1 H      0.930     0.071     2.078     2.254
 253   1 H      0.862     0.185     1.187     1.706
 254   1 H      0.930     0.089     1.884     2.146

 Mol. C6AA /au·bohr⁶  :     585244.747281
 Mol. C8AA /au·bohr⁸  :   12943061.867030
 Mol. α(0) /au        :       1143.994534


Wiberg/Mayer (AO) data.
largest (>0.10) Wiberg bond orders for each atom
          total WBO             WBO to atom ...
     1  N   2.992        C    2 1.028    H  247 0.947    H   15 0.942
     2  C   3.986        N    1 1.028    C    3 0.954    H   16 0.951    C    5 0.944
     3  C   3.934        O    4 1.610    N   25 1.295    C    2 0.954
     4  O   1.947        C    3 1.610    N   25 0.187
     5  C   3.992        C    6 1.020    H   18 0.967    H   17 0.964    C    2 0.944
     6  C   3.977        C    7 1.580    C    8 1.208    C    5 1.020
     7  C   3.961        C    6 1.580    N    9 1.206    H   19 0.968
     8  C   3.986        C   11 1.332    C   10 1.244    C    6 1.208
     9  N   3.542        C    7 1.206    C   10 1.176    H   20 0.931
    10  C   3.957        C   12 1.337    C    8 1.244    N    9 1.176
    11  C   3.993        C   13 1.504    C    8 1.332    H   21 0.965    C   12 0.112
    12  C   3.985        C   14 1.493    C   10 1.337    H   22 0.966    C   11 0.112
    13  C   3.991        C   11 1.504    C   14 1.370    H   23 0.972
    14  C   3.990        C   12 1.493    C   13 1.370    H   24 0.971
    15  H   0.971        N    1 0.942
    16  H   0.998        C    2 0.951
    17  H   0.997        C    5 0.964
    18  H   0.998        C    5 0.967
    19  H   0.999        C    7 0.968
    20  H   0.962        N    9 0.931
    21  H   0.999        C   11 0.965
    22  H   0.996        C   12 0.966
    23  H   0.999        C   13 0.972
    24  H   0.998        C   14 0.971
    25  N   3.467        C    3 1.295    C   26 0.994    H   33 0.909    O    4 0.187
    26  C   3.974        N   25 0.994    C   29 0.958    C   27 0.947    H   34 0.944
    27  C   3.948        O   28 1.625    N   37 1.279    C   26 0.947
    28  O   1.961        C   27 1.625    N   37 0.184
    29  C   3.978        H   36 0.971    H   35 0.970    C   26 0.958    C   30 0.898
    30  C   3.937        O   32 1.508    O   31 1.507    C   29 0.898
    31  O   1.803        C   30 1.507    O   32 0.220
    32  O   1.808        C   30 1.508    O   31 0.220
    33  H   0.954        N   25 0.909
    34  H   0.998        C   26 0.944
    35  H   0.997        C   29 0.970
    36  H   0.999        C   29 0.971
    37  N   3.451        C   27 1.279    C   38 0.983    H   46 0.926    O   28 0.184
    38  C   3.961        N   37 0.983    C   41 0.961    H   47 0.943    C   39 0.942
    39  C   3.947        O   40 1.629    N   52 1.296    C   38 0.942
    40  O   1.971        C   39 1.629    N   52 0.191
    41  C   3.987        C   42 1.012    H   48 0.974    H   49 0.969    C   38 0.961
    42  C   3.984        C   41 1.012    H   51 0.967    H   50 0.954    C   43 0.931
    43  C   3.939        O   44 1.513    O   45 1.457    C   42 0.931
    44  O   1.859        C   43 1.513    O   45 0.208
    45  O   1.891        C   43 1.457    O   44 0.208    H  190 0.114
    46  H   0.968        N   37 0.926
    47  H   0.995        C   38 0.943
    48  H   0.997        C   41 0.974
    49  H   0.995        C   41 0.969
    50  H   0.998        C   42 0.954
    51  H   1.000        C   42 0.967
    52  N   3.469        C   39 1.296    C   53 0.971    H   60 0.918    O   40 0.191
    53  C   3.961        C   54 0.971    N   52 0.971    C   56 0.960    H   61 0.952
    54  C   3.902        O   55 1.907    C   53 0.971    H  248 0.954
    55  O   2.048        C   54 1.907
    56  C   3.984        C   57 0.991    H   63 0.973    H   62 0.969    C   53 0.960
    57  C   3.994        C   59 1.010    C   58 1.006    C   56 0.991    H   64 0.965
    58  C   3.993        C   57 1.006    H   67 0.987    H   66 0.985    H   65 0.981
    59  C   3.996        C   57 1.010    H   68 0.984    H   69 0.984    H   70 0.981
    60  H   0.953        N   52 0.918
    61  H   0.993        C   53 0.952
    62  H   0.995        C   56 0.969
    63  H   0.998        C   56 0.973
    64  H   0.999        C   57 0.965
    65  H   0.996        C   58 0.981
    66  H   0.997        C   58 0.985
    67  H   0.998        C   58 0.987
    68  H   0.998        C   59 0.984
    69  H   0.999        C   59 0.984
    70  H   1.000        C   59 0.981
    71  N   2.993        C   72 1.026    H  249 0.953    H   80 0.948
    72  C   3.989        N   71 1.026    C   75 0.962    H   81 0.954    C   73 0.947
    73  C   3.945        O   74 1.634    N   86 1.293    C   72 0.947
    74  O   1.955        C   73 1.634    N   86 0.192
    75  C   3.996        C   76 1.015    H   82 0.976    H   83 0.972    C   72 0.962
    76  C   3.987        C   75 1.015    H   85 0.977    H   84 0.963    C   77 0.907
    77  C   3.936        O   78 1.507    O   79 1.496    C   76 0.907
    78  O   1.800        C   77 1.507    O   79 0.217
    79  O   1.790        C   77 1.496    O   78 0.217
    80  H   0.973        N   71 0.948
    81  H   0.998        C   72 0.954
    82  H   1.000        C   75 0.976
    83  H   0.998        C   75 0.972
    84  H   1.000        C   76 0.963
    85  H   1.000        C   76 0.977
    86  N   3.472        C   73 1.293    C   87 0.990    H   93 0.926    O   74 0.192
    87  C   3.963        N   86 0.990    H   94 0.950    C   90 0.945    C   88 0.942
    88  C   3.947        O   89 1.630    N  102 1.296    C   87 0.942
    89  O   1.953        C   88 1.630    N  102 0.195
    90  C   3.988        C   92 1.010    C   91 1.009    H   95 0.965    C   87 0.945
    91  C   3.992        C   90 1.009    H   97 0.985    H   98 0.985    H   96 0.982
    92  C   3.994        C   90 1.010    H  101 0.985    H  100 0.985    H   99 0.984
    93  H   0.962        N   86 0.926
    94  H   0.995        C   87 0.950
    95  H   0.998        C   90 0.965
    96  H   0.995        C   91 0.982
    97  H   0.998        C   91 0.985
    98  H   0.998        C   91 0.985
    99  H   0.996        C   92 0.984
   100  H   0.998        C   92 0.985
   101  H   0.999        C   92 0.985
   102  N   3.472        C   88 1.296    C  103 0.979    H  110 0.924    O   89 0.195
   103  C   3.961        N  102 0.979    C  106 0.974    H  111 0.951    C  104 0.930
   104  C   3.950        O  105 1.637    N  121 1.299    C  103 0.930
   105  O   1.957        C  104 1.637    N  121 0.199
   106  C   3.988        C  107 0.991    C  103 0.974    H  113 0.973    H  112 0.970
   107  C   3.994        C  109 1.010    C  108 1.008    C  106 0.991    H  114 0.968
   108  C   3.994        C  107 1.008    H  117 0.987    H  116 0.986    H  115 0.985
   109  C   3.997        C  107 1.010    H  119 0.986    H  118 0.984    H  120 0.983
   110  H   0.957        N  102 0.924
   111  H   0.994        C  103 0.951
   112  H   0.996        C  106 0.970
   113  H   0.998        C  106 0.973
   114  H   0.999        C  107 0.968
   115  H   0.997        C  108 0.985
   116  H   0.998        C  108 0.986
   117  H   0.998        C  108 0.987
   118  H   0.998        C  109 0.984
   119  H   0.999        C  109 0.986
   120  H   0.999        C  109 0.983
   121  N   3.479        C  104 1.299    C  122 0.977    H  128 0.922    O  105 0.199
   122  C   3.955        N  121 0.977    C  125 0.952    H  129 0.945    C  123 0.932
   123  C   3.954        O  124 1.592    N  135 1.327    C  122 0.932
   124  O   1.926        C  123 1.592    N  135 0.201
   125  C   3.956        O  126 0.999    C  127 0.997    H  130 0.964    C  122 0.952
   126  O   1.931        C  125 0.999    H  131 0.831
   127  C   3.991        C  125 0.997    H  134 0.987    H  133 0.984    H  132 0.982
   128  H   0.961        N  121 0.922
   129  H   0.994        C  122 0.945
   130  H   0.998        C  125 0.964
   131  H   0.891        O  126 0.831
   132  H   0.995        C  127 0.982
   133  H   0.996        C  127 0.984
   134  H   0.998        C  127 0.987
   135  N   3.549        C  123 1.327    C  141 0.977    C  136 0.965    O  124 0.201
   136  C   3.964        C  139 0.974    N  135 0.965    H  142 0.947    C  137 0.937
   137  C   3.957        O  138 1.634    N  149 1.306    C  136 0.937
   138  O   1.950        C  137 1.634    N  149 0.200
   139  C   3.990        C  140 1.006    H  143 0.976    C  136 0.974    H  144 0.973
   140  C   3.989        C  139 1.006    C  141 1.004    H  145 0.975    H  146 0.974
   141  C   3.964        C  140 1.004    N  135 0.977    H  148 0.964    H  147 0.961
   142  H   0.998        C  136 0.947
   143  H   0.997        C  139 0.976
   144  H   0.996        C  139 0.973
   145  H   0.994        C  140 0.975
   146  H   0.995        C  140 0.974
   147  H   0.995        C  141 0.961
   148  H   0.998        C  141 0.964
   149  N   3.475        C  137 1.306    C  150 0.968    H  158 0.910    O  138 0.200
   150  C   3.951        C  151 0.973    N  149 0.968    H  159 0.954    C  153 0.950
   151  C   3.895        O  152 1.910    C  150 0.973    H  250 0.951
   152  O   2.062        C  151 1.910
   153  C   3.978        C  154 1.002    H  161 0.975    H  160 0.965    C  150 0.950
   154  C   3.988        C  155 1.005    C  153 1.002    H  163 0.974    H  162 0.972
   155  C   3.986        C  156 1.011    C  154 1.005    H  164 0.971    H  165 0.970
   156  C   3.911        C  155 1.011    H  166 0.963    H  167 0.961    N  157 0.954
   157  N   3.664        C  156 0.954    H  170 0.901    H  168 0.896    H  169 0.893
   158  H   0.958        N  149 0.910
   159  H   0.991        C  150 0.954
   160  H   0.995        C  153 0.965
   161  H   0.997        C  153 0.975
   162  H   0.993        C  154 0.972
   163  H   0.996        C  154 0.974
   164  H   0.991        C  155 0.971
   165  H   0.994        C  155 0.970
   166  H   0.989        C  156 0.963
   167  H   0.982        C  156 0.961
   168  H   0.908        N  157 0.896
   169  H   0.907        N  157 0.893
   170  H   0.917        N  157 0.901
   171  N   2.995        C  172 1.025    H  180 0.954    H  251 0.952
   172  C   3.984        N  171 1.025    C  173 0.989    C  175 0.946    H  181 0.942
   173  C   3.893        O  174 1.882    C  172 0.989    H  252 0.955
   174  O   2.025        C  173 1.882
   175  C   3.990        C  176 1.009    H  182 0.974    H  183 0.972    C  172 0.946
   176  C   3.996        C  175 1.009    C  177 1.004    H  184 0.974    H  185 0.972
   177  C   3.986        C  178 1.010    C  176 1.004    H  187 0.970    H  186 0.968
   178  C   3.927        C  177 1.010    H  189 0.967    H  188 0.966    N  179 0.962
   179  N   3.636        C  178 0.962    H  191 0.909    H  192 0.906    H  190 0.774
   180  H   0.974        N  171 0.954
   181  H   0.995        C  172 0.942
   182  H   0.997        C  175 0.974
   183  H   0.996        C  175 0.972
   184  H   0.998        C  176 0.974
   185  H   0.998        C  176 0.972
   186  H   0.993        C  177 0.968
   187  H   0.993        C  177 0.970
   188  H   0.988        C  178 0.966
   189  H   0.992        C  178 0.967
   190  H   0.907        N  179 0.774    O   45 0.114
   191  H   0.929        N  179 0.909
   192  H   0.919        N  179 0.906
   193  N   2.995        C  194 1.016    H  253 0.955    H  200 0.954
   194  C   3.985        N  193 1.016    H  201 0.962    C  197 0.959    C  195 0.936
   195  C   3.939        O  196 1.661    N  209 1.266    C  194 0.936
   196  O   1.967        C  195 1.661    N  209 0.190
   197  C   3.993        C  199 1.008    C  198 1.008    H  202 0.966    C  194 0.959
   198  C   3.993        C  197 1.008    H  204 0.986    H  203 0.984    H  205 0.976
   199  C   3.995        C  197 1.008    H  207 0.985    H  208 0.984    H  206 0.983
   200  H   0.972        N  193 0.954
   201  H   0.999        C  194 0.962
   202  H   0.998        C  197 0.966
   203  H   0.998        C  198 0.984
   204  H   1.000        C  198 0.986
   205  H   0.998        C  198 0.976
   206  H   0.997        C  199 0.983
   207  H   0.999        C  199 0.985
   208  H   0.997        C  199 0.984
   209  N   3.443        C  195 1.266    C  210 0.978    H  220 0.917    O  196 0.190
   210  C   3.964        N  209 0.978    C  213 0.976    H  221 0.955    C  211 0.926
   211  C   3.943        O  212 1.662    N  233 1.278    C  210 0.926
   212  O   1.992        C  211 1.662    N  233 0.196
   213  C   3.988        C  214 1.006    C  210 0.976    H  223 0.973    H  222 0.969
   214  C   3.990        C  213 1.006    C  215 0.990    H  224 0.972    H  225 0.972
   215  C   3.953        N  216 0.990    C  214 0.990    H  227 0.964    H  226 0.963
   216  N   3.461        C  217 1.300    C  215 0.990    H  228 0.920
   217  C   3.977        N  219 1.331    N  218 1.315    N  216 1.300
   218  N   3.393        C  217 1.315    H  229 0.923    H  230 0.914    N  219 0.104
   219  N   3.405        C  217 1.331    H  232 0.914    H  231 0.913    N  218 0.104
   220  H   0.964        N  209 0.917
   221  H   0.993        C  210 0.955
   222  H   0.994        C  213 0.969
   223  H   0.998        C  213 0.973
   224  H   0.995        C  214 0.972
   225  H   0.996        C  214 0.972
   226  H   0.991        C  215 0.963
   227  H   0.991        C  215 0.964
   228  H   0.953        N  216 0.920
   229  H   0.943        N  218 0.923
   230  H   0.933        N  218 0.914
   231  H   0.939        N  219 0.913
   232  H   0.933        N  219 0.914
   233  N   3.458        C  211 1.278    C  234 0.985    H  241 0.921    O  212 0.196
   234  C   3.970        N  233 0.985    C  235 0.966    C  237 0.960    H  242 0.956
   235  C   3.894        O  236 1.903    C  234 0.966    H  254 0.950
   236  O   2.067        C  235 1.903
   237  C   3.989        C  238 0.961    C  234 0.960    H  243 0.960    H  244 0.950
   238  C   3.954        O  239 1.647    N  240 1.311    C  237 0.961
   239  O   1.957        C  238 1.647    N  240 0.200
   240  N   3.396        C  238 1.311    H  246 0.937    H  245 0.915    O  239 0.200
   241  H   0.949        N  233 0.921
   242  H   0.989        C  234 0.956
   243  H   0.995        C  237 0.960
   244  H   0.993        C  237 0.950
   245  H   0.936        N  240 0.915
   246  H   0.955        N  240 0.937
   247  H   0.965        N    1 0.947
   248  H   0.995        C   54 0.954
   249  H   0.967        N   71 0.953
   250  H   0.992        C  151 0.951
   251  H   0.965        N  171 0.952
   252  H   0.995        C  173 0.955
   253  H   0.966        N  193 0.955
   254  H   0.992        C  235 0.950
 
molecular dipole:
                 x           y           z       tot (Debye)
 q only:      -17.634       7.145      14.529
   full:      -16.709       6.534      14.242      58.225
molecular quadrupole (traceless):
                xx          xy          yy          xz          yz          zz
 q only:    -6630.896   -1406.704    1991.950    -460.513    3890.654    4638.946
  q+dip:    -6328.996   -1375.659    1812.357    -370.422    3724.514    4516.639
   full:    -6328.039   -1376.985    1811.783    -369.758    3724.274    4516.256


           -------------------------------------------------
          | TOTAL ENERGY             -385.961448284474 Eh   |
          | GRADIENT NORM               0.448040410389 Eh/α |
          | HOMO-LUMO GAP               1.236615791243 eV   |
           -------------------------------------------------

------------------------------------------------------------------------
 * finished run on 2019/05/31 at 06:33:49.758     
------------------------------------------------------------------------
 total:
 * wall-time:     0 d,  0 h,  0 min,  4.361 sec
 *  cpu-time:     0 d,  0 h,  0 min,  8.540 sec
 * ratio c/w:     1.958 speedup
 SCF:
 * wall-time:     0 d,  0 h,  0 min,  4.090 sec
 *  cpu-time:     0 d,  0 h,  0 min,  8.178 sec
 * ratio c/w:     2.000 speedup

