      -----------------------------------------------------------      
     |                   =====================                   |     
     |                           x T B                           |     
     |                   =====================                   |     
     |                         S. Grimme                         |     
     |          Mulliken Center for Theoretical Chemistry        |     
     |                    University of Bonn                     |     
     |                Version 6.1 RC1 (SAW190329)                |     
      -----------------------------------------------------------      

   This program is distributed in the hope that it will be useful,
   but WITHOUT ANY WARRANTY; without even the implied warranty of
   MERCHANTABILITY or FITNESS FOR A PARTICULAR PURPOSE.
   
   FOR NON-COMMERCIAL, ACADEMIA USE ONLY.
   
   Cite this work as:
   S. Grimme, C. Bannwarth, P. Shushkov, J. Comput. Theory Chem., 2017,
   13, 1989-2009. DOI: 10.1021/acs.jctc.7b00118
   C. Bannwarth, S. Ehlert and S. Grimme., J. Comput. Theory Chem., 2019,
   just accepted. DOI: 10.1021/acs.jctc.8b01176
   
   for sTDA-xTB:
   S. Grimme and C. Bannwarth, J. Chem. Phys., 2016, 145, 054103.
   DOI: 10.1063/1.4959605
   
   in the mass-spec context:
   V. Asgeirsson, C. Bauer and S. Grimme, Chem. Sci., 2017, 8, 4879.
   DOI: 10.1039/c7sc00601b
   
   for metadynamics refer to:
   S. Grimme, ChemRxiv, Preprint. DOI: 10.26434/chemrxiv.7660532.v1
   
   with help from (in alphabetical order)
   C. Bannwarth, F. Bohle, G. Brandenburg, E. Caldeweyher, M. Checinski,
   S. Dohm, S. Ehlert, S. Ehrlich, F. März, H. Neugebauer, J. Pisarek,
   P. Pracht, P. Shushkov, and S. Spicher.
   
 * started run on 2019/05/31 at 02:07:10.937     

           -------------------------------------------------
          |                Calculation Setup                |
           -------------------------------------------------

          program call               : /home/lum/qr/xtb-190329/bin/xtb xtb_tmp.xyz --chrg -1 --grad --gfn 2 --etemp 500 --acc 0.1 --gbsa h2o --parallel 4
          hostname                   : cu39
          coordinate file            : xtb_tmp.xyz
          omp threads                :                     4
          number of atoms            :                   260
          number of electrons        :                   728
          charge                     :                    -1
          spin                       :                   0.0
          first test random number   :      0.34298317374362


molecular fragmentation (1/2 indicates fragments):
111111111111111111111111111111111111111111111111111111111111111111111111
111111111111111111111111111111111111111111111111111111111111111111111111
111111111111111111111111111111111111111111111111111111111111111111111112
22222222222222222222222222222222222222112222
# atoms in fragment 1/2:   217    43
 fragment masses (1/2) :     1536.71      304.32
CMA distance (Bohr)    :  16.891
constraining FC (au)   :  0.0500

########################################################################
# WARNING! Please study the warnings concerning your input carefully
#  - XTBPATH is not set, using XTBHOME instead
#  - Process number higher than OMP_NUM_THREADS, I hope you know what you are doing.
########################################################################

           ------------------------------------------------- 
          |                 G F N 2 - x T B                 |
          | Geometry, Frequencies, Noncovalent interactions |
          |            JCTC 2018 parametrisation            |
           ------------------------------------------------- 
 
             k(s)              :                1.8500
             k(p)              :                2.2300
             k(d)              :                2.2300
             k(f)              :                2.0000
             kEN (H0ij)        :               -2.0000
             D4 a1             :                0.5200
             D4 a2             :                5.0000
             D4 s6             :                1.0000
             D4 s8             :                2.7000
             D4 s9             :                5.0000
             alphaj            :                2.0000

  Z AO/shell   Hii/eV     exponent
  1     Wed Apr 25 08:07:45 CEST 2018   EN: 2.200 GM2: 0.406  GM3: 0.0800  RAES: 1.40
     1s    -10.707211    1.230000
  6     Wed Apr 25 08:07:45 CEST 2018   EN: 2.550 GM2: 0.538  GM3: 0.1500  RAES: 3.00
     2s    -13.970922    2.096432
     2p    -10.063292    1.800000
  7     Wed Apr 25 08:07:45 CEST 2018   EN: 3.040 GM2: 0.461  GM3:-0.0640  RAES: 1.90
     2s    -16.686243    2.339881
     2p    -12.523956    2.014332
  8     Wed Apr 25 08:07:45 CEST 2018   EN: 3.440 GM2: 0.452  GM3:-0.0517  RAES: 1.80
     2s    -20.229985    2.439742
     2p    -15.503117    2.137023

 Solvent             : h2o
 Using internal parameter file: .param_gbsa2_h2o
 Gsolv ref. state (COSMO-RS): gsolv [1 M gas/solution]
 temperature (mdtemp)       :    298.150000000000     
 dielectric constant        :    80.2000000000000     
 rho                        :    1.00000000000000     
 mass                       :    18.0000000000000     
 surface tension            :    15.5689454083859     
 probe radius               :   0.975313790000000     
 vdW radii scaling          :    1.00000000000000     
 Gshift (Eh)                :   1.857443126794793E-003
 c1                         :    1.55243817000000     
 soset                      :   0.130326360000000     
 HB correction              :  T
 Number of grid points      :          230

            Z     q(EN)     CN     RAES       Cart. coordinates
     1  N   5.0   -0.68    3.00    1.93    51.85237    93.45466    35.84744
     2  C   4.0    0.07    3.98    3.59    52.28569    94.50027    33.36027
     3  C   4.0    0.29    3.01    3.02    53.02999    97.28012    33.63870
     4  O   6.0   -0.38    1.00    1.80    52.64923    98.44312    35.59682
     5  C   4.0   -0.15    3.98    3.59    49.82412    94.43468    31.78073
     6  C   4.0   -0.17    3.98    3.59    48.54599    91.83713    31.74591
     7  C   4.0   -0.05    3.98    3.59    49.97905    89.84942    30.22924
     8  N   5.0   -0.48    3.02    1.93    49.71454    90.34148    27.53495
     9  C   4.0    0.36    3.00    3.02    50.22422    88.71651    25.69567
    10  N   5.0   -0.65    3.02    1.93    51.21635    86.45963    26.18634
    11  N   5.0   -0.66    3.02    1.93    49.80743    89.38808    23.30339
    12  H   1.0    0.27    1.00    1.43    50.46770    94.27296    36.87325
    13  H   1.0    0.12    0.99    1.43    53.79188    93.38601    32.48473
    14  H   1.0    0.11    0.99    1.43    48.49808    95.78660    32.59774
    15  H   1.0    0.10    0.99    1.43    50.28778    95.03567    29.86824
    16  H   1.0    0.09    0.99    1.43    48.33395    91.13127    33.66992
    17  H   1.0    0.10    0.99    1.43    46.64244    92.03217    30.98094
    18  H   1.0    0.11    0.99    1.43    51.97469    89.87673    30.75959
    19  H   1.0    0.10    0.99    1.43    49.18036    88.00098    30.68922
    20  H   1.0    0.22    1.00    1.43    48.94131    92.02127    27.06601
    21  H   1.0    0.25    1.00    1.43    51.50799    85.86620    27.97205
    22  H   1.0    0.25    1.00    1.43    51.40629    85.18080    24.79267
    23  H   1.0    0.25    1.00    1.43    49.06283    91.08381    22.86486
    24  H   1.0    0.26    1.00    1.43    50.18854    88.18894    21.87788
    25  N   5.0   -0.50    3.00    1.93    53.78561    98.40659    31.48540
    26  C   4.0    0.07    3.99    3.61    54.40252   101.07443    31.39340
    27  C   4.0    0.25    3.01    3.02    53.17610   102.34540    29.07229
    28  O   6.0   -0.45    1.00    1.80    54.15782   104.09977    27.94481
    29  C   4.0   -0.09    3.99    3.60    57.27196   101.52555    31.40621
    30  C   4.0    0.29    3.00    3.02    58.39799   100.55805    33.86720
    31  O   6.0   -0.36    1.00    1.80    58.72319    98.31845    34.26895
    32  N   5.0   -0.64    3.00    1.93    58.82865   102.35743    35.61715
    33  H   1.0    0.23    1.00    1.43    54.54092    97.32113    30.10431
    34  H   1.0    0.14    0.99    1.43    53.57334   101.94102    33.08717
    35  H   1.0    0.12    0.99    1.43    58.14256   100.50636    29.83782
    36  H   1.0    0.11    0.99    1.43    57.64585   103.53283    31.14744
    37  H   1.0    0.30    1.00    1.43    59.74646   101.89594    37.22565
    38  H   1.0    0.25    1.00    1.43    58.75928   104.20250    35.16569
    39  N   5.0   -0.49    3.01    1.93    50.93083   101.38571    28.42700
    40  C   4.0    0.06    3.99    3.60    49.59646   102.16291    26.15442
    41  C   4.0    0.30    3.01    3.02    49.97713   104.99226    25.63917
    42  O   6.0   -0.45    1.00    1.80    50.71135   105.73673    23.58955
    43  C   4.0   -0.17    3.98    3.59    46.77388   101.52834    26.42501
    44  C   4.0   -0.16    3.98    3.59    45.12619   102.67814    24.34488
    45  C   4.0   -0.04    3.98    3.59    45.70344   101.61595    21.72315
    46  N   5.0   -0.49    3.02    1.93    43.99586   102.77717    19.90861
    47  C   4.0    0.36    3.01    3.02    43.87408   102.20075    17.46637
    48  N   5.0   -0.66    3.02    1.93    45.18937   100.27372    16.53120
    49  N   5.0   -0.66    3.02    1.93    42.29678   103.47307    15.97378
    50  H   1.0    0.23    1.00    1.43    50.21060    99.93955    29.45035
    51  H   1.0    0.11    0.99    1.43    50.43385   101.18157    24.53048
    52  H   1.0    0.09    0.99    1.43    46.56001    99.47987    26.41513
    53  H   1.0    0.10    0.99    1.43    46.11276   102.24256    28.24091
    54  H   1.0    0.10    0.99    1.43    43.15782   102.29129    24.81437
    55  H   1.0    0.11    0.99    1.43    45.39890   104.72187    24.31636
    56  H   1.0    0.11    0.99    1.43    47.66442   102.04306    21.22001
    57  H   1.0    0.11    0.99    1.43    45.39555    99.57332    21.72561
    58  H   1.0    0.22    1.00    1.43    43.06341   104.32551    20.51837
    59  H   1.0    0.25    1.00    1.43    46.54801    99.43820    17.56528
    60  H   1.0    0.25    1.00    1.43    45.12580    99.87868    14.66924
    61  H   1.0    0.25    1.00    1.43    41.27781   104.93370    16.63819
    62  H   1.0    0.25    1.00    1.43    42.18487   103.08407    14.11421
    63  N   5.0   -0.49    3.01    1.93    49.08971   106.52633    27.47206
    64  C   4.0    0.07    4.00    3.61    49.05213   109.25495    27.16353
    65  C   4.0    0.29    3.01    3.02    51.67876   110.21174    26.40423
    66  O   6.0   -0.43    1.00    1.80    52.06609   111.15753    24.33159
    67  C   4.0   -0.10    3.98    3.58    48.04617   110.58387    29.53654
    68  C   4.0   -0.16    3.98    3.58    45.45068   109.56462    30.37400
    69  C   4.0   -0.22    3.98    3.59    47.97273   113.43460    29.06652
    70  C   4.0   -0.24    3.98    3.58    43.41864   109.57368    28.33144
    71  H   1.0    0.24    1.00    1.43    48.91409   105.85343    29.24697
    72  H   1.0    0.12    0.99    1.43    47.83127   109.71312    25.55160
    73  H   1.0    0.10    0.99    1.43    49.38144   110.25887    31.08991
    74  H   1.0    0.10    0.99    1.43    45.66995   107.64816    31.10421
    75  H   1.0    0.10    0.99    1.43    44.83605   110.74032    31.95254
    76  H   1.0    0.10    0.99    1.43    47.19223   114.42139    30.69141
    77  H   1.0    0.14    0.99    1.43    49.86269   114.19977    28.75627
    78  H   1.0    0.10    0.99    1.43    46.84441   113.89731    27.41387
    79  H   1.0    0.09    0.99    1.43    41.63753   108.96136    29.14710
    80  H   1.0    0.10    0.99    1.43    43.16010   111.46185    27.57016
    81  H   1.0    0.10    0.99    1.43    43.91694   108.30871    26.79711
    82  N   5.0   -0.46    3.01    1.93    53.51696   109.71914    28.08171
    83  C   4.0    0.08    4.00    3.62    56.02882   110.75183    27.72124
    84  C   4.0    0.30    3.02    3.02    56.90492   110.09730    25.05430
    85  O   6.0   -0.42    1.00    1.80    57.92771   111.62893    23.63407
    86  C   4.0   -0.08    3.98    3.59    57.92694   109.68791    29.64459
    87  C   4.0   -0.16    3.98    3.58    57.01752   109.90088    32.39302
    88  C   4.0   -0.21    3.98    3.59    60.45679   111.02947    29.28984
    89  C   4.0   -0.22    3.98    3.58    56.58145   112.59843    33.31633
    90  H   1.0    0.23    1.00    1.43    53.03075   109.32730    29.88213
    91  H   1.0    0.15    0.99    1.43    55.97363   112.82189    27.86474
    92  H   1.0    0.13    0.99    1.43    58.20787   107.67918    29.20691
    93  H   1.0    0.10    0.99    1.43    55.29186   108.79703    32.65781
    94  H   1.0    0.09    0.99    1.43    58.47031   109.03529    33.57039
    95  H   1.0    0.10    0.99    1.43    61.77762   110.50927    30.77272
    96  H   1.0    0.14    0.99    1.43    61.28730   110.51939    27.47888
    97  H   1.0    0.11    0.99    1.43    60.19818   113.07084    29.31184
    98  H   1.0    0.11    0.99    1.43    55.74438   112.58893    35.19429
    99  H   1.0    0.11    0.99    1.43    58.35339   113.63260    33.43719
   100  H   1.0    0.14    0.99    1.43    55.35296   113.67209    32.06261
   101  N   5.0   -0.47    3.01    1.93    56.49564   107.70156    24.37518
   102  C   4.0    0.09    4.00    3.62    57.62794   106.70791    22.09994
   103  C   4.0    0.28    3.01    3.02    56.59080   107.99385    19.74129
   104  O   6.0   -0.40    1.00    1.80    57.90434   108.28152    17.85399
   105  C   4.0   -0.14    3.98    3.59    57.20443   103.85623    21.91395
   106  C   4.0   -0.11    3.98    3.58    58.66186   102.44270    23.96340
   107  C   4.0    0.31    2.99    3.02    61.50812   103.22275    23.93022
   108  O   6.0   -0.38    1.00    1.80    62.81900   102.36016    22.16652
   109  O   6.0   -0.40    1.00    1.80    62.23658   104.63526    25.67545
   110  H   1.0    0.30    1.00    1.43    55.77473   106.46651    25.64529
   111  H   1.0    0.16    0.99    1.43    59.67157   107.10320    22.11733
   112  H   1.0    0.13    0.99    1.43    55.17678   103.49973    22.06823
   113  H   1.0    0.13    0.99    1.43    57.87936   103.24972    20.06250
   114  H   1.0    0.13    0.99    1.43    57.91944   102.89991    25.82706
   115  H   1.0    0.11    0.99    1.43    58.55535   100.41342    23.62199
   116  N   5.0   -0.48    3.00    1.93    54.11994   108.54317    19.79299
   117  C   4.0    0.09    4.00    3.62    52.90436   109.64981    17.62470
   118  C   4.0    0.27    3.00    3.02    52.91419   112.52985    17.57307
   119  O   6.0   -0.46    1.00    1.80    51.74577   113.64288    15.89053
   120  C   4.0   -0.08    3.98    3.58    50.21587   108.60687    17.20564
   121  C   4.0   -0.21    3.98    3.59    50.27376   105.72564    17.08944
   122  C   4.0   -0.20    3.98    3.59    48.40279   109.49572    19.26554
   123  H   1.0    0.31    1.00    1.43    53.18101   108.54292    21.45966
   124  H   1.0    0.14    0.99    1.43    54.09635   109.11731    16.00238
   125  H   1.0    0.12    0.99    1.43    49.60098   109.38904    15.39337
   126  H   1.0    0.11    0.99    1.43    48.42660   105.03116    16.53500
   127  H   1.0    0.11    0.99    1.43    51.67905   105.09071    15.73450
   128  H   1.0    0.14    0.99    1.43    50.77812   105.00092    18.94216
   129  H   1.0    0.10    0.99    1.43    46.48500   108.94239    18.79338
   130  H   1.0    0.15    0.99    1.43    48.93737   108.67908    21.06954
   131  H   1.0    0.13    0.99    1.43    48.46779   111.54255    19.45505
   132  N   5.0   -0.46    3.00    1.93    54.34387   113.72609    19.26835
   133  C   4.0    0.07    3.99    3.60    54.47851   116.45441    19.56908
   134  C   4.0    0.28    3.00    3.02    56.10797   117.73570    17.51423
   135  O   6.0   -0.42    1.00    1.80    57.66263   119.38690    18.02087
   136  C   4.0   -0.12    3.99    3.60    55.50425   117.09244    22.18489
   137  C   4.0   -0.12    3.97    3.58    53.51544   117.19649    24.25219
   138  C   4.0    0.31    2.99    3.02    54.80897   117.71847    26.85155
   139  O   6.0   -0.40    1.00    1.80    56.52658   119.32850    26.90037
   140  O   6.0   -0.43    1.00    1.80    54.03379   116.43557    28.67970
   141  H   1.0    0.30    1.00    1.43    55.27485   112.72699    20.60589
   142  H   1.0    0.13    0.99    1.43    52.56148   117.22716    19.33179
   143  H   1.0    0.16    0.99    1.43    56.92688   115.68582    22.70190
   144  H   1.0    0.14    0.99    1.43    56.48862   118.90509    22.12127
   145  H   1.0    0.11    0.99    1.43    52.16119   118.72020    23.91341
   146  H   1.0    0.15    0.99    1.43    52.50327   115.40757    24.38663
   147  N   5.0   -0.46    3.01    1.93    55.56602   116.97311    15.18762
   148  C   4.0    0.08    3.99    3.60    56.93835   117.67016    12.91912
   149  C   4.0    0.30    3.00    3.02    58.20157   120.27946    13.12687
   150  O   6.0   -0.40    1.00    1.80    60.48290   120.51330    12.84044
   151  C   4.0   -0.11    3.99    3.60    55.18012   117.44980    10.62028
   152  C   4.0    0.28    2.99    3.02    52.60718   118.72996    10.88562
   153  O   6.0   -0.42    1.00    1.80    52.00683   120.09406    12.65969
   154  N   5.0   -0.65    3.01    1.93    51.02412   118.22555     8.98966
   155  H   1.0    0.31    1.00    1.43    54.02294   115.81760    14.98413
   156  H   1.0    0.13    0.99    1.43    58.51118   116.33198    12.67449
   157  H   1.0    0.11    0.99    1.43    56.14763   118.24583     8.98105
   158  H   1.0    0.11    0.99    1.43    54.83365   115.44277    10.29206
   159  H   1.0    0.28    1.00    1.43    49.29888   119.03120     9.00468
   160  H   1.0    0.25    1.00    1.43    51.53068   117.13158     7.51859
   161  N   5.0   -0.48    3.01    1.93    56.59700   122.20052    13.44775
   162  C   4.0    0.07    3.99    3.60    57.36891   124.81379    13.43380
   163  C   4.0    0.27    3.01    3.02    56.57363   126.19893    15.84376
   164  O   6.0   -0.41    1.00    1.80    56.50528   128.50405    15.96162
   165  C   4.0   -0.12    3.98    3.59    56.26601   126.12697    11.08439
   166  C   4.0   -0.11    3.98    3.59    57.59332   128.60600    10.45824
   167  C   4.0    0.27    3.00    3.02    56.32508   129.95024     8.26237
   168  O   6.0   -0.40    1.00    1.80    54.59699   129.05292     7.02836
   169  N   5.0   -0.65    3.00    1.93    57.30237   132.24175     7.75834
   170  H   1.0    0.30    1.00    1.43    54.71362   121.79576    13.58783
   171  H   1.0    0.14    0.99    1.43    59.44189   124.82391    13.33721
   172  H   1.0    0.14    0.99    1.43    56.43333   124.83886     9.48300
   173  H   1.0    0.14    0.99    1.43    54.25813   126.48153    11.39560
   174  H   1.0    0.14    0.99    1.43    57.54146   129.82905    12.11716
   175  H   1.0    0.11    0.99    1.43    59.56621   128.24591     9.97114
   176  H   1.0    0.26    1.00    1.43    58.65306   132.98746     8.86114
   177  H   1.0    0.28    1.00    1.43    56.52659   133.29529     6.37466
   178  N   5.0   -0.48    3.00    1.93    55.85046   124.72182    17.78235
   179  C   4.0    0.08    4.00    3.62    54.99363   125.88248    20.11132
   180  C   4.0    0.30    3.00    3.02    57.18594   127.03860    21.62719
   181  O   6.0   -0.38    1.00    1.80    57.01972   129.13862    22.54595
   182  C   4.0   -0.20    3.98    3.59    53.53464   124.01249    21.73438
   183  H   1.0    0.29    1.00    1.43    56.30273   122.85884    17.78241
   184  H   1.0    0.15    0.99    1.43    53.77457   127.47535    19.58595
   185  H   1.0    0.13    0.99    1.43    52.70460   124.98310    23.34389
   186  H   1.0    0.11    0.99    1.43    52.05070   123.12514    20.62522
   187  H   1.0    0.12    0.99    1.43    54.77606   122.55181    22.47878
   188  N   5.0   -0.47    3.01    1.93    59.25745   125.55797    21.68347
   189  C   4.0    0.08    3.99    3.60    61.55906   126.07675    23.09068
   190  C   4.0    0.28    3.02    3.02    61.13000   125.60862    25.93156
   191  O   6.0   -0.35    1.00    1.80    59.99482   127.16055    27.24196
   192  C   4.0   -0.07    3.99    3.60    62.48697   128.78585    22.72888
   193  C   4.0    0.28    3.00    3.02    65.19282   128.99649    23.67496
   194  O   6.0   -0.39    1.00    1.80    66.59249   127.17174    23.87748
   195  N   5.0   -0.64    3.00    1.93    65.95552   131.36577    24.15823
   196  H   1.0    0.25    1.00    1.43    59.05363   123.75567    21.09049
   197  H   1.0    0.12    0.99    1.43    62.99806   124.78297    22.38147
   198  H   1.0    0.13    0.99    1.43    62.41885   129.27494    20.72555
   199  H   1.0    0.16    0.99    1.43    61.24596   130.06050    23.76747
   200  H   1.0    0.29    1.00    1.43    67.69106   131.63883    24.89682
   201  H   1.0    0.27    1.00    1.43    64.71262   132.79860    24.13067
   202  N   5.0   -0.31    3.03    1.93    61.99200   123.45420    26.90495
   203  C   4.0    0.08    4.03    3.68    61.39672   122.89228    29.52708
   204  C   4.0    0.09    3.00    3.02    62.64227   124.83828    31.25044
   205  O   6.0   -0.37    1.00    1.80    64.83981   125.51213    30.99724
   206  C   4.0   -0.13    4.01    3.64    62.48976   120.24972    29.94895
   207  C   4.0   -0.12    4.01    3.64    64.68328   120.16295    28.08119
   208  C   4.0   -0.04    4.01    3.65    63.63296   121.56265    25.78662
   209  H   1.0    0.15    0.99    1.43    59.34172   122.94719    29.79523
   210  H   1.0    0.12    0.99    1.43    63.08607   119.95710    31.89718
   211  H   1.0    0.12    0.99    1.43    61.03222   118.87395    29.46392
   212  H   1.0    0.14    0.99    1.43    66.26564   121.21779    28.87046
   213  H   1.0    0.10    0.99    1.43    65.26441   118.24574    27.63303
   214  H   1.0    0.13    0.99    1.43    65.12742   122.46678    24.69149
   215  H   1.0    0.12    0.99    1.43    62.51856   120.29163    24.58969
   216  N   5.0   -0.71    3.00    1.93    58.79977   121.66794    40.84742
   217  C   4.0    0.06    3.99    3.60    57.98532   119.46700    39.44212
   218  C   4.0    0.28    3.01    3.02    60.10007   117.50493    39.30208
   219  O   6.0   -0.47    1.00    1.80    59.67628   115.24186    39.54510
   220  C   4.0   -0.14    3.98    3.59    57.17559   120.23204    36.77610
   221  C   4.0   -0.12    3.98    3.58    54.63511   121.59464    36.77776
   222  C   4.0    0.31    2.99    3.02    54.26289   123.13160    34.30044
   223  O   6.0   -0.39    1.00    1.80    55.93150   124.77073    33.85412
   224  O   6.0   -0.37    1.00    1.80    52.36326   122.72873    33.00847
   225  H   1.0    0.26    1.00    1.43    58.74454   123.36115    39.95436
   226  H   1.0    0.11    0.99    1.43    56.40072   118.55598    40.43123
   227  H   1.0    0.13    0.99    1.43    58.62778   121.46288    35.96888
   228  H   1.0    0.11    0.99    1.43    57.05555   118.55916    35.57080
   229  H   1.0    0.11    0.99    1.43    53.08236   120.25454    36.96490
   230  H   1.0    0.11    0.99    1.43    54.54545   122.94509    38.33817
   231  N   5.0   -0.48    3.01    1.93    62.39215   118.45746    38.86284
   232  C   4.0    0.07    3.99    3.60    64.58343   116.85508    38.51011
   233  C   4.0    0.07    3.00    3.02    65.06597   115.32549    40.91589
   234  O   6.0   -0.41    1.00    1.80    65.22344   113.01841    40.87915
   235  C   4.0    0.03    3.98    3.58    66.91179   118.47407    37.81602
   236  O   6.0   -0.48    1.99    1.82    66.49515   119.83504    35.55889
   237  C   4.0   -0.20    3.98    3.59    69.22765   116.80625    37.42411
   238  H   1.0    0.24    1.00    1.43    62.58812   120.33534    38.55723
   239  H   1.0    0.13    0.99    1.43    64.19094   115.50224    36.98528
   240  H   1.0    0.11    0.99    1.43    67.24293   119.79493    39.38610
   241  H   1.0    0.25    0.99    1.43    65.32766   121.20640    35.88311
   242  H   1.0    0.11    0.99    1.43    70.88028   117.98854    37.14772
   243  H   1.0    0.11    0.99    1.43    69.50163   115.57169    39.03916
   244  H   1.0    0.12    0.99    1.43    68.95216   115.65823    35.74593
   245  N   5.0   -0.68    3.00    1.93    60.47733   110.40151    42.18164
   246  C   4.0    0.07    3.98    3.58    60.75255   108.29466    40.46331
   247  C   4.0    0.09    3.00    3.02    62.77315   106.49940    41.48546
   248  O   6.0   -0.41    1.00    1.80    62.37575   104.23209    41.74916
   249  C   4.0   -0.20    3.99    3.60    61.48995   109.28460    37.86715
   250  H   1.0    0.32    1.00    1.43    60.23940   112.12123    41.37513
   251  H   1.0    0.12    0.99    1.43    58.95504   107.25691    40.38513
   252  H   1.0    0.10    0.99    1.43    61.77537   107.73230    36.55613
   253  H   1.0    0.11    0.99    1.43    60.01150   110.53752    37.18909
   254  H   1.0    0.15    0.99    1.43    63.23098   110.36134    38.01234
   255  H   1.0    0.28    1.00    1.43    51.42609    91.81418    35.70725
   256  H   1.0    0.14    1.00    1.43    61.65604   125.62119    32.65951
   257  H   1.0    0.29    1.00    1.43    57.82022   121.85648    42.22491
   258  H   1.0    0.13    1.00    1.43    65.26149   116.20976    42.57447
   259  H   1.0    0.30    1.00    1.43    59.11572   110.15375    43.17018
   260  H   1.0    0.15    1.00    1.43    64.47641   107.16600    41.96047

           ------------------------------------------------- 
          |        Self-Consistent Charge Iterations        |
           ------------------------------------------------- 

          ...................................................
          :                      SETUP                      :
          :.................................................:
          :  # basis functions                 647          :
          :  # atomic orbitals                 647          :
          :  # shells                          389          :
          :  # electrons                       728          :
          :  max. iterations                   250          :
          :  Hamiltonian                  GFN2-xTB          :
          :  restarted?                      false          :
          :  GBSA solvation                   true          :
          :  PC potential                    false          :
          :  electronic temp.          500.0000000     K    :
          :  accuracy                    0.1000000          :
          :  -> integral cutoff          0.3500000E+02      :
          :  -> integral neglect         0.1000000E-08      :
          :  -> SCF convergence          0.1000000E-06 Eh   :
          :  -> wf. convergence          0.1000000E-04 e    :
          :  Broyden damping             0.4000000          :
          ...................................................

 iter      E             dE          RMSdq      gap      omega  full diag
   1   -419.6711646 -0.419671E+03  0.439E+00    1.95       0.0  T
   2   -420.8649022 -0.119374E+01  0.225E+00    1.68       1.0  T
   3   -420.9143095 -0.494073E-01  0.119E+00    2.13       1.0  T
   4   -420.9284275 -0.141179E-01  0.289E-01    1.46       1.0  T
   5   -420.9373588 -0.893132E-02  0.141E-01    1.67       1.0  T
   6   -420.9379780 -0.619183E-03  0.608E-02    1.66       1.0  T
   7   -420.9380769 -0.989586E-04  0.271E-02    1.68       1.0  T
   8   -420.9381107 -0.337845E-04  0.113E-02    1.68       1.0  T
   9   -420.9381165 -0.573645E-05  0.503E-03    1.67       1.2  T
  10   -420.9381172 -0.729541E-06  0.178E-03    1.67       3.5  T
  11   -420.9381174 -0.224481E-06  0.633E-04    1.66       9.8  T
  12   -420.9381174 -0.148187E-07  0.305E-04    1.66      20.3  T
  13   -420.9381174 -0.349394E-08  0.106E-04    1.66      58.3  T
  14   -420.9381174 -0.506589E-09  0.422E-05    1.66     147.1  T
  15   -420.9381174 -0.533760E-10  0.168E-05    1.66     370.2  T

   *** convergence criteria satisfied after 15 iterations ***

         #    Occupation            Energy/Eh            Energy/eV
      -------------------------------------------------------------
         1        2.0000           -0.7406866             -20.1551
       ...           ...                  ...                  ...
       358        2.0000           -0.3790883             -10.3155
       359        2.0000           -0.3748632             -10.2005
       360        2.0000           -0.3638621              -9.9012
       361        2.0000           -0.3620159              -9.8510
       362        2.0000           -0.3607316              -9.8160
       363        2.0000           -0.3598794              -9.7928
       364        2.0000           -0.3551372              -9.6638 (HOMO)
       365                         -0.2939814              -7.9996 (LUMO)
       366                         -0.2934580              -7.9854
       367                         -0.2819598              -7.6725
       368                         -0.2481159              -6.7516
       369                         -0.2433853              -6.6229
       ...                                ...                  ...
       647                          0.6327954              17.2192
      -------------------------------------------------------------
                  HL-Gap            0.0611558 Eh            1.6641 eV
             Fermi-level           -0.3249154 Eh           -8.8414 eV

 SCC (total)                   0 d,  0 h,  0 min,  3.518 sec
 SCC setup                      ...        0 min,  0.037 sec (  1.062%)
 Dispersion                     ...        0 min,  0.022 sec (  0.612%)
 integral evaluation            ...        0 min,  0.094 sec (  2.662%)
 zeroth order Hamiltonian       ...        0 min,  0.004 sec (  0.117%)
 iterations                     ...        0 min,  3.106 sec ( 88.280%)
 molecular gradient             ...        0 min,  0.245 sec (  6.951%)
 printout                       ...        0 min,  0.011 sec (  0.313%)

         :::::::::::::::::::::::::::::::::::::::::::::::::::::
         ::                     SUMMARY                     ::
         :::::::::::::::::::::::::::::::::::::::::::::::::::::
         :: total energy             -416.124720960424 Eh   ::
         :: total w/o Gsasa/hb       -416.061154838885 Eh   ::
         :: gradient norm               0.385195867900 Eh/α ::
         :: HOMO-LUMO gap               1.664134185801 eV   ::
         ::.................................................::
         :: SCC energy               -420.948821881774 Eh   ::
         :: -> isotropic ES             1.962621968216 Eh   ::
         :: -> anisotropic ES          -0.100959993497 Eh   ::
         :: -> anisotropic XC           0.117624301790 Eh   ::
         :: -> dispersion              -0.321813007475 Eh   ::
         :: -> Gsolv                   -0.757340678027 Eh   ::
         ::    -> Gborn                -0.693774556488 Eh   ::
         ::    -> Gsasa                -0.012561893381 Eh   ::
         ::    -> Ghb                  -0.052861671285 Eh   ::
         ::    -> Gshift                0.001857443127 Eh   ::
         :: repulsion energy            4.804343085828 Eh   ::
         :: add. restraining            0.000000000000 Eh   ::
         :::::::::::::::::::::::::::::::::::::::::::::::::::::

           -------------------------------------------------
          |                Property Printout                |
           -------------------------------------------------

    * Orbital Energies and Occupations

         #    Occupation            Energy/Eh            Energy/eV
      -------------------------------------------------------------
         1        2.0000           -0.7406866             -20.1551
       ...           ...                  ...                  ...
       352        2.0000           -0.3971496             -10.8070
       353        2.0000           -0.3950738             -10.7505
       354        2.0000           -0.3945241             -10.7355
       355        2.0000           -0.3905606             -10.6277
       356        2.0000           -0.3852459             -10.4831
       357        2.0000           -0.3843772             -10.4594
       358        2.0000           -0.3790883             -10.3155
       359        2.0000           -0.3748632             -10.2005
       360        2.0000           -0.3638621              -9.9012
       361        2.0000           -0.3620159              -9.8510
       362        2.0000           -0.3607316              -9.8160
       363        2.0000           -0.3598794              -9.7928
       364        2.0000           -0.3551372              -9.6638 (HOMO)
       365                         -0.2939814              -7.9996 (LUMO)
       366                         -0.2934580              -7.9854
       367                         -0.2819598              -7.6725
       368                         -0.2481159              -6.7516
       369                         -0.2433853              -6.6229
       370                         -0.2411224              -6.5613
       371                         -0.2373629              -6.4590
       372                         -0.2364544              -6.4343
       373                         -0.2338992              -6.3647
       374                         -0.2337921              -6.3618
       375                         -0.2306784              -6.2771
       ...                                ...                  ...
       647                          0.6327954              17.2192
      -------------------------------------------------------------
                  HL-Gap            0.0611558 Eh            1.6641 eV
             Fermi-level           -0.3249154 Eh           -8.8414 eV

   #   Z        covCN         q      C6AA      α(0)
   1   7 N      2.637    -0.390    30.103     8.149
   2   6 C      3.785     0.022    20.217     6.405
   3   6 C      2.760     0.279    22.273     7.728
   4   8 O      0.858    -0.477    23.273     6.468
   5   6 C      3.806    -0.091    22.236     6.713
   6   6 C      3.803    -0.083    22.091     6.692
   7   6 C      3.738    -0.028    21.163     6.564
   8   7 N      2.701    -0.140    24.039     7.282
   9   6 C      2.736     0.231    23.142     7.876
  10   7 N      2.651    -0.249    26.491     7.644
  11   7 N      2.654    -0.260    26.756     7.682
  12   1 H      0.860     0.157     1.353     1.822
  13   1 H      0.924     0.062     2.171     2.304
  14   1 H      0.924     0.054     2.266     2.354
  15   1 H      0.925     0.061     2.190     2.314
  16   1 H      0.924     0.068     2.112     2.273
  17   1 H      0.924     0.087     1.909     2.161
  18   1 H      0.924     0.078     2.004     2.214
  19   1 H      0.924     0.087     1.904     2.158
  20   1 H      0.860     0.235     0.944     1.522
  21   1 H      0.860     0.242     0.916     1.499
  22   1 H      0.860     0.251     0.880     1.470
  23   1 H      0.860     0.257     0.858     1.451
  24   1 H      0.860     0.252     0.874     1.464
  25   7 N      2.688    -0.196    25.257     7.464
  26   6 C      3.796     0.020    20.248     6.407
  27   6 C      2.752     0.265    22.529     7.772
  28   8 O      0.859    -0.493    23.626     6.517
  29   6 C      3.808    -0.091    22.226     6.711
  30   6 C      2.745     0.294    22.013     7.682
  31   8 O      0.859    -0.473    23.189     6.456
  32   7 N      2.638    -0.276    27.143     7.738
  33   1 H      0.860     0.218     1.020     1.582
  34   1 H      0.923     0.090     1.877     2.142
  35   1 H      0.924     0.067     2.124     2.279
  36   1 H      0.925     0.050     2.324     2.384
  37   1 H      0.860     0.224     0.991     1.560
  38   1 H      0.860     0.198     1.117     1.656
  39   7 N      2.690    -0.170    24.678     7.378
  40   6 C      3.794     0.000    20.586     6.461
  41   6 C      2.753     0.285    22.180     7.712
  42   8 O      0.858    -0.468    23.092     6.443
  43   6 C      3.805    -0.099    22.378     6.734
  44   6 C      3.804    -0.088    22.184     6.705
  45   6 C      3.738    -0.037    21.318     6.588
  46   7 N      2.703    -0.136    23.944     7.268
  47   6 C      2.737     0.228    23.213     7.888
  48   7 N      2.651    -0.245    26.382     7.628
  49   7 N      2.653    -0.257    26.674     7.670
  50   1 H      0.860     0.233     0.952     1.528
  51   1 H      0.924     0.100     1.781     2.087
  52   1 H      0.925     0.110     1.698     2.038
  53   1 H      0.924     0.081     1.968     2.194
  54   1 H      0.924     0.102     1.769     2.080
  55   1 H      0.924     0.049     2.333     2.388
  56   1 H      0.924     0.076     2.017     2.221
  57   1 H      0.924     0.113     1.674     2.023
  58   1 H      0.860     0.222     1.002     1.568
  59   1 H      0.860     0.251     0.878     1.468
  60   1 H      0.860     0.254     0.867     1.459
  61   1 H      0.860     0.242     0.914     1.497
  62   1 H      0.860     0.255     0.864     1.456
  63   7 N      2.688    -0.180    24.896     7.411
  64   6 C      3.799     0.017    20.284     6.413
  65   6 C      2.757     0.289    22.102     7.699
  66   8 O      0.858    -0.494    23.645     6.520
  67   6 C      3.851    -0.020    20.889     6.501
  68   6 C      3.801    -0.069    21.830     6.652
  69   6 C      3.755    -0.100    22.475     6.760
  70   6 C      3.751    -0.124    22.936     6.830
  71   1 H      0.860     0.208     1.068     1.619
  72   1 H      0.924     0.089     1.890     2.150
  73   1 H      0.924     0.022     2.710     2.574
  74   1 H      0.924     0.059     2.209     2.324
  75   1 H      0.924     0.048     2.340     2.392
  76   1 H      0.925     0.042     2.428     2.437
  77   1 H      0.924     0.005     2.979     2.699
  78   1 H      0.925     0.045     2.377     2.411
  79   1 H      0.925     0.070     2.080     2.255
  80   1 H      0.925     0.038     2.480     2.463
  81   1 H      0.925     0.061     2.193     2.316
  82   7 N      2.691    -0.194    25.200     7.456
  83   6 C      3.804     0.045    19.819     6.338
  84   6 C      2.764     0.299    21.928     7.669
  85   8 O      0.859    -0.549    24.887     6.688
  86   6 C      3.853    -0.013    20.779     6.483
  87   6 C      3.802    -0.061    21.665     6.627
  88   6 C      3.757    -0.097    22.411     6.750
  89   6 C      3.750    -0.096    22.391     6.748
  90   1 H      0.860     0.203     1.092     1.637
  91   1 H      0.923     0.038     2.477     2.461
  92   1 H      0.923     0.040     2.448     2.447
  93   1 H      0.924     0.044     2.395     2.420
  94   1 H      0.924     0.059     2.206     2.323
  95   1 H      0.925     0.061     2.193     2.316
  96   1 H      0.925     0.021     2.720     2.579
  97   1 H      0.925     0.022     2.708     2.574
  98   1 H      0.925     0.045     2.378     2.411
  99   1 H      0.925     0.020     2.729     2.583
 100   1 H      0.925     0.028     2.618     2.530
 101   7 N      2.692    -0.191    25.141     7.447
 102   6 C      3.803     0.054    19.675     6.315
 103   6 C      2.761     0.276    22.333     7.739
 104   8 O      0.859    -0.517    24.159     6.590
 105   6 C      3.808    -0.056    21.580     6.613
 106   6 C      3.799    -0.100    22.418     6.742
 107   6 C      2.684     0.370    20.733     7.451
 108   8 O      0.856    -0.651    27.409     7.019
 109   8 O      0.856    -0.664    27.741     7.062
 110   1 H      0.860     0.237     0.936     1.516
 111   1 H      0.923     0.018     2.764     2.600
 112   1 H      0.924     0.072     2.068     2.249
 113   1 H      0.924     0.054     2.268     2.355
 114   1 H      0.925     0.031     2.569     2.507
 115   1 H      0.924     0.049     2.334     2.389
 116   7 N      2.688    -0.171    24.706     7.382
 117   6 C      3.802     0.020    20.232     6.404
 118   6 C      2.750     0.270    22.447     7.758
 119   8 O      0.859    -0.482    23.385     6.484
 120   6 C      3.852    -0.021    20.910     6.504
 121   6 C      3.757    -0.138    23.209     6.869
 122   6 C      3.755    -0.122    22.898     6.823
 123   1 H      0.860     0.222     1.000     1.567
 124   1 H      0.923     0.088     1.901     2.156
 125   1 H      0.924     0.071     2.077     2.254
 126   1 H      0.925     0.087     1.903     2.157
 127   1 H      0.925     0.049     2.328     2.386
 128   1 H      0.925     0.065     2.136     2.286
 129   1 H      0.925     0.079     1.992     2.207
 130   1 H      0.925     0.060     2.202     2.321
 131   1 H      0.925     0.010     2.883     2.655
 132   7 N      2.688    -0.179    24.879     7.408
 133   6 C      3.792     0.031    20.063     6.379
 134   6 C      2.749     0.270    22.437     7.756
 135   8 O      0.858    -0.519    24.214     6.597
 136   6 C      3.809    -0.035    21.187     6.552
 137   6 C      3.798    -0.084    22.101     6.694
 138   6 C      2.685     0.371    20.709     7.447
 139   8 O      0.856    -0.652    27.425     7.021
 140   8 O      0.856    -0.644    27.234     6.997
 141   1 H      0.860     0.194     1.138     1.671
 142   1 H      0.923     0.063     2.159     2.298
 143   1 H      0.924     0.030     2.586     2.515
 144   1 H      0.924     0.031     2.572     2.508
 145   1 H      0.924     0.008     2.922     2.673
 146   1 H      0.925     0.030     2.582     2.513
 147   7 N      2.690    -0.187    25.059     7.435
 148   6 C      3.790     0.024    20.182     6.398
 149   6 C      2.751     0.286    22.160     7.708
 150   8 O      0.858    -0.498    23.748     6.534
 151   6 C      3.809    -0.123    22.857     6.805
 152   6 C      2.741     0.290    22.089     7.695
 153   8 O      0.859    -0.496    23.699     6.527
 154   7 N      2.640    -0.274    27.097     7.731
 155   1 H      0.859     0.245     0.905     1.490
 156   1 H      0.923     0.073     2.056     2.242
 157   1 H      0.924     0.104     1.749     2.068
 158   1 H      0.924     0.107     1.719     2.050
 159   1 H      0.860     0.252     0.876     1.466
 160   1 H      0.860     0.251     0.880     1.469
 161   7 N      2.690    -0.197    25.269     7.466
 162   6 C      3.794     0.017    20.293     6.415
 163   6 C      2.759     0.271    22.422     7.754
 164   8 O      0.859    -0.473    23.193     6.457
 165   6 C      3.807    -0.056    21.571     6.612
 166   6 C      3.807    -0.107    22.530     6.757
 167   6 C      2.744     0.292    22.041     7.687
 168   8 O      0.859    -0.496    23.699     6.527
 169   7 N      2.640    -0.297    27.653     7.810
 170   1 H      0.860     0.228     0.976     1.548
 171   1 H      0.923     0.085     1.932     2.174
 172   1 H      0.924     0.065     2.140     2.288
 173   1 H      0.924     0.057     2.234     2.337
 174   1 H      0.924     0.085     1.933     2.174
 175   1 H      0.924     0.073     2.058     2.243
 176   1 H      0.861     0.227     0.980     1.550
 177   1 H      0.860     0.238     0.932     1.512
 178   7 N      2.688    -0.193    25.187     7.454
 179   6 C      3.800     0.025    20.157     6.392
 180   6 C      2.749     0.282    22.219     7.718
 181   8 O      0.858    -0.460    22.917     6.418
 182   6 C      3.756    -0.110    22.657     6.787
 183   1 H      0.860     0.200     1.104     1.646
 184   1 H      0.924     0.091     1.874     2.141
 185   1 H      0.925     0.051     2.313     2.378
 186   1 H      0.925     0.072     2.060     2.244
 187   1 H      0.925     0.031     2.578     2.511
 188   7 N      2.688    -0.187    25.055     7.434
 189   6 C      3.792     0.037    19.966     6.363
 190   6 C      2.768     0.264    22.547     7.777
 191   8 O      0.859    -0.517    24.157     6.590
 192   6 C      3.811    -0.099    22.388     6.735
 193   6 C      2.746     0.288    22.119     7.701
 194   8 O      0.859    -0.496    23.689     6.526
 195   7 N      2.639    -0.289    27.463     7.783
 196   1 H      0.860     0.188     1.170     1.694
 197   1 H      0.924     0.069     2.098     2.265
 198   1 H      0.924     0.089     1.888     2.149
 199   1 H      0.925     0.088     1.900     2.156
 200   1 H      0.860     0.250     0.885     1.474
 201   1 H      0.861     0.235     0.942     1.521
 202   7 N      2.762    -0.073    22.651     7.069
 203   6 C      3.834     0.049    19.734     6.320
 204   6 C      2.766     0.211    23.528     7.944
 205   8 O      0.856    -0.345    20.620     6.088
 206   6 C      3.833    -0.048    21.416     6.584
 207   6 C      3.835    -0.070    21.809     6.644
 208   6 C      3.767    -0.004    20.694     6.483
 209   1 H      0.924     0.039     2.459     2.452
 210   1 H      0.925     0.063     2.165     2.301
 211   1 H      0.924     0.043     2.404     2.425
 212   1 H      0.925     0.090     1.875     2.141
 213   1 H      0.925     0.076     2.025     2.225
 214   1 H      0.924     0.087     1.904     2.158
 215   1 H      0.924     0.046     2.372     2.409
 216   7 N      2.636    -0.389    30.055     8.142
 217   6 C      3.788     0.033    20.030     6.374
 218   6 C      2.758     0.267    22.490     7.766
 219   8 O      0.858    -0.481    23.368     6.481
 220   6 C      3.807    -0.034    21.181     6.552
 221   6 C      3.799    -0.085    22.131     6.698
 222   6 C      2.685     0.372    20.693     7.444
 223   8 O      0.856    -0.668    27.854     7.076
 224   8 O      0.856    -0.648    27.334     7.010
 225   1 H      0.860     0.156     1.360     1.827
 226   1 H      0.923     0.042     2.420     2.433
 227   1 H      0.924     0.022     2.697     2.568
 228   1 H      0.924     0.007     2.947     2.685
 229   1 H      0.925     0.015     2.815     2.624
 230   1 H      0.924     0.031     2.571     2.508
 231   7 N      2.691    -0.166    24.602     7.367
 232   6 C      3.792     0.013    20.367     6.427
 233   6 C      2.765     0.198    23.784     7.987
 234   8 O      0.856    -0.327    20.282     6.038
 235   6 C      3.726     0.114    18.810     6.192
 236   8 O      1.655    -0.454    21.935     6.322
 237   6 C      3.754    -0.133    23.123     6.857
 238   1 H      0.860     0.203     1.093     1.638
 239   1 H      0.923     0.079     1.994     2.208
 240   1 H      0.923     0.047     2.353     2.399
 241   1 H      0.804     0.302     0.716     1.329
 242   1 H      0.925     0.084     1.935     2.175
 243   1 H      0.925     0.064     2.149     2.293
 244   1 H      0.925     0.069     2.091     2.261
 245   7 N      2.639    -0.392    30.152     8.155
 246   6 C      3.782     0.049    19.768     6.334
 247   6 C      2.767     0.202    23.701     7.973
 248   8 O      0.856    -0.380    21.288     6.186
 249   6 C      3.758    -0.118    22.801     6.808
 250   1 H      0.860     0.175     1.246     1.748
 251   1 H      0.923     0.036     2.508     2.477
 252   1 H      0.925     0.035     2.510     2.477
 253   1 H      0.925     0.056     2.251     2.346
 254   1 H      0.925     0.070     2.085     2.258
 255   1 H      0.862     0.195     1.132     1.667
 256   1 H      0.930     0.059     2.210     2.325
 257   1 H      0.862     0.194     1.137     1.670
 258   1 H      0.930     0.089     1.886     2.147
 259   1 H      0.862     0.179     1.222     1.731
 260   1 H      0.930     0.078     1.996     2.209

 Mol. C6AA /au·bohr⁶  :     630330.971540
 Mol. C8AA /au·bohr⁸  :   13892747.750609
 Mol. α(0) /au        :       1180.563520


Wiberg/Mayer (AO) data.
largest (>0.10) Wiberg bond orders for each atom
          total WBO             WBO to atom ...
     1  N   3.003        C    2 1.031    H   12 0.958    H  255 0.944
     2  C   3.982        N    1 1.031    C    5 0.955    H   13 0.952    C    3 0.944
     3  C   3.928        O    4 1.682    N   25 1.228    C    2 0.944
     4  O   1.984        C    3 1.682    N   25 0.174
     5  C   3.991        C    6 1.007    H   14 0.975    H   15 0.970    C    2 0.955
     6  C   3.988        C    7 1.009    C    5 1.007    H   17 0.966    H   16 0.963
     7  C   3.959        C    6 1.009    N    8 0.983    H   19 0.960    H   18 0.959
     8  N   3.468        C    9 1.318    C    7 0.983    H   20 0.909    N   11 0.102    N   10 0.101
     9  C   3.978        N   10 1.318    N    8 1.318    N   11 1.312
    10  N   3.398        C    9 1.318    H   21 0.918    H   22 0.918    N    8 0.101    N   11 0.101
    11  N   3.385        C    9 1.312    H   24 0.917    H   23 0.915    N    8 0.102    N   10 0.101
    12  H   0.975        N    1 0.958
    13  H   0.996        C    2 0.952
    14  H   0.997        C    5 0.975
    15  H   0.996        C    5 0.970
    16  H   0.995        C    6 0.963
    17  H   0.992        C    6 0.966
    18  H   0.994        C    7 0.959
    19  H   0.992        C    7 0.960
    20  H   0.945        N    8 0.909
    21  H   0.942        N   10 0.918
    22  H   0.937        N   10 0.918
    23  H   0.934        N   11 0.915
    24  H   0.936        N   11 0.917
    25  N   3.406        C    3 1.228    C   26 0.997    H   33 0.920    O    4 0.174
    26  C   3.976        N   25 0.997    C   29 0.969    H   34 0.936    C   27 0.929
    27  C   3.948        O   28 1.620    N   39 1.314    C   26 0.929
    28  O   2.000        C   27 1.620    N   39 0.200
    29  C   3.993        C   26 0.969    H   36 0.967    H   35 0.964    C   30 0.964
    30  C   3.945        O   31 1.667    N   32 1.288    C   29 0.964
    31  O   1.966        C   30 1.667    N   32 0.199
    32  N   3.389        C   30 1.288    H   38 0.939    H   37 0.928    O   31 0.199
    33  H   0.953        N   25 0.920
    34  H   0.992        C   26 0.936
    35  H   0.996        C   29 0.964
    36  H   0.997        C   29 0.967
    37  H   0.949        N   32 0.928
    38  H   0.961        N   32 0.939
    39  N   3.465        C   27 1.314    C   40 0.967    H   50 0.907    O   28 0.200
    40  C   3.946        C   43 0.974    N   39 0.967    H   51 0.946    C   41 0.934
    41  C   3.937        O   42 1.659    N   63 1.253    C   40 0.934
    42  O   1.993        C   41 1.659    N   63 0.182
    43  C   3.974        C   44 1.006    C   40 0.974    H   53 0.969    H   52 0.964
    44  C   3.987        C   45 1.008    C   43 1.006    H   55 0.970    H   54 0.966
    45  C   3.952        C   44 1.008    N   46 0.982    H   56 0.959    H   57 0.957
    46  N   3.468        C   47 1.314    C   45 0.982    H   58 0.917    N   49 0.102    N   48 0.101
    47  C   3.978        N   48 1.321    N   46 1.314    N   49 1.312
    48  N   3.396        C   47 1.321    H   60 0.916    H   59 0.914    N   49 0.101    N   46 0.101
    49  N   3.391        C   47 1.312    H   61 0.922    H   62 0.915    N   46 0.102    N   48 0.101
    50  H   0.945        N   39 0.907
    51  H   0.990        C   40 0.946
    52  H   0.988        C   43 0.964
    53  H   0.993        C   43 0.969
    54  H   0.989        C   44 0.966
    55  H   0.998        C   44 0.970
    56  H   0.994        C   45 0.959
    57  H   0.987        C   45 0.957
    58  H   0.951        N   46 0.917
    59  H   0.937        N   48 0.914
    60  H   0.935        N   48 0.916
    61  H   0.941        N   49 0.922
    62  H   0.934        N   49 0.915
    63  N   3.428        C   41 1.253    C   64 0.985    H   71 0.919    O   42 0.182
    64  C   3.970        N   63 0.985    C   67 0.974    H   72 0.948    C   65 0.929
    65  C   3.926        O   66 1.632    N   82 1.276    C   64 0.929
    66  O   1.973        C   65 1.632    N   82 0.181
    67  C   3.985        C   69 1.007    C   68 0.987    C   64 0.974    H   73 0.961
    68  C   3.988        C   70 1.020    C   67 0.987    H   75 0.974    H   74 0.972
    69  C   3.992        C   67 1.007    H   76 0.984    H   78 0.983    H   77 0.981
    70  C   3.991        C   68 1.020    H   80 0.986    H   79 0.983    H   81 0.982
    71  H   0.957        N   63 0.919
    72  H   0.992        C   64 0.948
    73  H   0.999        C   67 0.961
    74  H   0.996        C   68 0.972
    75  H   0.997        C   68 0.974
    76  H   0.998        C   69 0.984
    77  H   1.000        C   69 0.981
    78  H   0.998        C   69 0.983
    79  H   0.995        C   70 0.983
    80  H   0.999        C   70 0.986
    81  H   0.996        C   70 0.982
    82  N   3.436        C   65 1.276    C   83 0.980    H   90 0.908    O   66 0.181
    83  C   3.971        N   82 0.980    C   86 0.965    C   84 0.944    H   91 0.944
    84  C   3.941        O   85 1.589    N  101 1.318    C   83 0.944
    85  O   1.912        C   84 1.589    N  101 0.184
    86  C   3.990        C   88 1.008    C   87 0.993    C   83 0.965    H   92 0.963
    87  C   3.996        C   89 1.020    C   86 0.993    H   94 0.966    H   93 0.966
    88  C   3.995        C   86 1.008    H   96 0.987    H   97 0.986    H   95 0.983
    89  C   3.994        C   87 1.020    H   99 0.986    H   98 0.985    H  100 0.982
    90  H   0.959        N   82 0.908
    91  H   0.998        C   83 0.944
    92  H   0.998        C   86 0.963
    93  H   0.998        C   87 0.966
    94  H   0.996        C   87 0.966
    95  H   0.996        C   88 0.983
    96  H   1.000        C   88 0.987
    97  H   0.999        C   88 0.986
    98  H   0.998        C   89 0.985
    99  H   1.000        C   89 0.986
   100  H   0.999        C   89 0.982
   101  N   3.461        C   84 1.318    C  102 0.977    H  110 0.885    O   85 0.184
   102  C   3.961        N  101 0.977    C  105 0.973    H  111 0.951    C  103 0.942
   103  C   3.950        O  104 1.618    N  116 1.305    C  102 0.942
   104  O   1.928        C  103 1.618    N  116 0.193
   105  C   3.985        C  106 1.000    H  113 0.974    C  102 0.973    H  112 0.969
   106  C   3.991        C  105 1.000    H  114 0.973    H  115 0.973    C  107 0.914
   107  C   3.928        O  108 1.499    O  109 1.494    C  106 0.914
   108  O   1.788        C  107 1.499    O  109 0.217
   109  O   1.786        C  107 1.494    O  108 0.217
   110  H   0.944        N  101 0.885
   111  H   0.999        C  102 0.951
   112  H   0.995        C  105 0.969
   113  H   0.996        C  105 0.974
   114  H   0.999        C  106 0.973
   115  H   0.997        C  106 0.973
   116  N   3.472        C  103 1.305    C  117 0.985    H  123 0.896    O  104 0.193
   117  C   3.947        N  116 0.985    C  120 0.952    C  118 0.948    H  124 0.927
   118  C   3.934        O  119 1.568    N  132 1.318    C  117 0.948
   119  O   1.957        C  118 1.568    N  132 0.184
   120  C   3.973        C  122 1.009    C  121 1.006    H  125 0.962    C  117 0.952
   121  C   3.985        C  120 1.006    H  127 0.986    H  128 0.980    H  126 0.979
   122  C   3.990        C  120 1.009    H  131 0.986    H  129 0.982    H  130 0.974
   123  H   0.951        N  116 0.896
   124  H   0.992        C  117 0.927
   125  H   0.994        C  120 0.962
   126  H   0.992        C  121 0.979
   127  H   0.998        C  121 0.986
   128  H   0.996        C  121 0.980
   129  H   0.993        C  122 0.982
   130  H   0.996        C  122 0.974
   131  H   1.000        C  122 0.986
   132  N   3.483        C  118 1.318    C  133 0.980    H  141 0.912    O  119 0.184
   133  C   3.971        C  136 0.996    N  132 0.980    H  142 0.941    C  134 0.923
   134  C   3.950        O  135 1.583    N  147 1.357    C  133 0.923
   135  O   1.946        C  134 1.583    N  147 0.198
   136  C   3.992        C  137 1.008    C  133 0.996    H  143 0.965    H  144 0.962
   137  C   3.991        C  136 1.008    H  146 0.973    H  145 0.968    C  138 0.914
   138  C   3.929        O  139 1.509    O  140 1.481    C  137 0.914
   139  O   1.798        C  138 1.509    O  140 0.212
   140  O   1.789        C  138 1.481    O  139 0.212
   141  H   0.962        N  132 0.912
   142  H   0.996        C  133 0.941
   143  H   0.999        C  136 0.965
   144  H   0.998        C  136 0.962
   145  H   1.000        C  137 0.968
   146  H   0.999        C  137 0.973
   147  N   3.482        C  134 1.357    C  148 0.971    H  155 0.849    O  135 0.198
   148  C   3.959        C  151 0.985    N  147 0.971    H  156 0.951    C  149 0.932
   149  C   3.950        O  150 1.632    N  161 1.307    C  148 0.932
   150  O   1.948        C  149 1.632    N  161 0.198
   151  C   3.985        C  148 0.985    C  152 0.968    H  158 0.953    H  157 0.951
   152  C   3.949        O  153 1.606    N  154 1.343    C  151 0.968
   153  O   1.986        C  152 1.606    N  154 0.197
   154  N   3.414        C  152 1.343    H  160 0.919    H  159 0.915    O  153 0.197
   155  H   0.940        N  147 0.849
   156  H   0.994        C  148 0.951
   157  H   0.989        C  151 0.951
   158  H   0.988        C  151 0.953
   159  H   0.936        N  154 0.915
   160  H   0.937        N  154 0.919
   161  N   3.468        C  149 1.307    C  162 0.989    H  170 0.865    O  150 0.198
   162  C   3.964        N  161 0.989    C  165 0.969    C  163 0.945    H  171 0.937
   163  C   3.944        O  164 1.647    N  178 1.274    C  162 0.945
   164  O   1.968        C  163 1.647    N  178 0.189
   165  C   3.987        C  166 1.009    H  173 0.975    H  172 0.973    C  162 0.969
   166  C   3.992        C  165 1.009    C  167 0.972    H  175 0.955    H  174 0.950
   167  C   3.947        O  168 1.650    N  169 1.296    C  166 0.972
   168  O   1.949        C  167 1.650    N  169 0.197
   169  N   3.379        C  167 1.296    H  176 0.931    H  177 0.922    O  168 0.197
   170  H   0.948        N  161 0.865
   171  H   0.993        C  162 0.937
   172  H   0.995        C  165 0.973
   173  H   0.997        C  165 0.975
   174  H   0.993        C  166 0.950
   175  H   0.995        C  166 0.955
   176  H   0.949        N  169 0.931
   177  H   0.943        N  169 0.922
   178  N   3.447        C  163 1.274    C  179 0.986    H  183 0.899    O  164 0.189
   179  C   3.969        C  182 0.997    N  178 0.986    H  184 0.952    C  180 0.925
   180  C   3.944        O  181 1.676    N  188 1.265    C  179 0.925
   181  O   1.986        C  180 1.676    N  188 0.190
   182  C   3.990        C  179 0.997    H  185 0.983    H  186 0.979    H  187 0.978
   183  H   0.960        N  178 0.899
   184  H   0.991        C  179 0.952
   185  H   0.997        C  182 0.983
   186  H   0.994        C  182 0.979
   187  H   0.999        C  182 0.978
   188  N   3.440        C  180 1.265    C  189 0.971    H  196 0.932    O  181 0.190
   189  C   3.963        C  192 0.988    N  188 0.971    H  197 0.955    C  190 0.924
   190  C   3.946        O  191 1.601    N  202 1.320    C  189 0.924
   191  O   1.941        C  190 1.601    N  202 0.200
   192  C   3.987        C  189 0.988    C  193 0.966    H  199 0.958    H  198 0.949
   193  C   3.951        O  194 1.645    N  195 1.312    C  192 0.966
   194  O   1.950        C  193 1.645    N  195 0.199
   195  N   3.388        C  193 1.312    H  201 0.926    H  200 0.917    O  194 0.199
   196  H   0.964        N  188 0.932
   197  H   0.995        C  189 0.955
   198  H   0.991        C  192 0.949
   199  H   0.992        C  192 0.958
   200  H   0.937        N  195 0.917
   201  H   0.945        N  195 0.926
   202  N   3.543        C  190 1.320    C  208 0.970    C  203 0.964    O  191 0.200
   203  C   3.973        C  204 0.978    N  202 0.964    C  206 0.962    H  209 0.960
   204  C   3.911        O  205 1.895    C  203 0.978    H  256 0.956
   205  O   2.044        C  204 1.895
   206  C   3.988        C  207 1.004    H  211 0.975    H  210 0.972    C  203 0.962
   207  C   3.986        C  206 1.004    C  208 1.003    H  213 0.973    H  212 0.972
   208  C   3.958        C  207 1.003    N  202 0.970    H  215 0.968    H  214 0.961
   209  H   0.998        C  203 0.960
   210  H   0.995        C  206 0.972
   211  H   0.998        C  206 0.975
   212  H   0.992        C  207 0.972
   213  H   0.993        C  207 0.973
   214  H   0.992        C  208 0.961
   215  H   0.998        C  208 0.968
   216  N   2.996        C  217 1.018    H  225 0.955    H  257 0.952
   217  C   3.987        N  216 1.018    C  220 0.973    H  226 0.962    C  218 0.938
   218  C   3.946        O  219 1.625    N  231 1.297    C  217 0.938
   219  O   1.961        C  218 1.625    N  231 0.192
   220  C   3.994        C  221 1.002    H  228 0.977    C  217 0.973    H  227 0.971
   221  C   3.994        C  220 1.002    H  229 0.983    H  230 0.968    C  222 0.915
   222  C   3.927        O  224 1.518    O  223 1.475    C  221 0.915
   223  O   1.763        C  222 1.475    O  224 0.214
   224  O   1.805        C  222 1.518    O  223 0.214
   225  H   0.976        N  216 0.955
   226  H   0.998        C  217 0.962
   227  H   0.999        C  220 0.971
   228  H   1.000        C  220 0.977
   229  H   1.000        C  221 0.983
   230  H   0.999        C  221 0.968
   231  N   3.467        C  218 1.297    C  232 0.972    H  238 0.919    O  219 0.192
   232  C   3.959        N  231 0.972    C  233 0.970    H  239 0.951    C  235 0.942
   233  C   3.911        O  234 1.915    C  232 0.970    H  258 0.951
   234  O   2.068        C  233 1.915
   235  C   3.946        C  237 1.004    O  236 0.991    H  240 0.960    C  232 0.942
   236  O   1.970        C  235 0.991    H  241 0.888
   237  C   3.984        C  235 1.004    H  244 0.982    H  242 0.980    H  243 0.979
   238  H   0.959        N  231 0.919
   239  H   0.994        C  232 0.951
   240  H   0.998        C  235 0.960
   241  H   0.909        O  236 0.888
   242  H   0.992        C  237 0.980
   243  H   0.996        C  237 0.979
   244  H   0.995        C  237 0.982
   245  N   3.001        C  246 1.011    H  259 0.957    H  250 0.930
   246  C   3.988        N  245 1.011    C  249 0.983    C  247 0.974    H  251 0.961
   247  C   3.889        O  248 1.889    C  246 0.974    H  260 0.954
   248  O   2.024        C  247 1.889
   249  C   3.990        C  246 0.983    H  252 0.983    H  254 0.976    H  253 0.974
   250  H   0.970        N  245 0.930
   251  H   0.998        C  246 0.961
   252  H   0.999        C  249 0.983
   253  H   0.997        C  249 0.974
   254  H   0.995        C  249 0.976
   255  H   0.961        N    1 0.944
   256  H   0.996        C  204 0.956
   257  H   0.962        N  216 0.952
   258  H   0.992        C  233 0.951
   259  H   0.968        N  245 0.957
   260  H   0.994        C  247 0.954
 
molecular dipole:
                 x           y           z       tot (Debye)
 q only:      -84.207    -159.721     -38.806
   full:      -84.780    -158.561     -37.615     466.917
molecular quadrupole (traceless):
                xx          xy          yy          xz          yz          zz
 q only:     5954.018  -17531.735  -19116.948   -4133.594   -8307.204   13162.930
  q+dip:     5725.011  -17554.780  -18853.102   -4085.818   -8024.108   13128.091
   full:     5724.781  -17555.997  -18854.029   -4087.120   -8025.603   13129.249


           -------------------------------------------------
          | TOTAL ENERGY             -416.124720960424 Eh   |
          | GRADIENT NORM               0.385195867900 Eh/α |
          | HOMO-LUMO GAP               1.664134185801 eV   |
           -------------------------------------------------

------------------------------------------------------------------------
 * finished run on 2019/05/31 at 02:07:14.686     
------------------------------------------------------------------------
 total:
 * wall-time:     0 d,  0 h,  0 min,  3.748 sec
 *  cpu-time:     0 d,  0 h,  0 min, 13.244 sec
 * ratio c/w:     3.534 speedup
 SCF:
 * wall-time:     0 d,  0 h,  0 min,  3.519 sec
 *  cpu-time:     0 d,  0 h,  0 min, 12.630 sec
 * ratio c/w:     3.590 speedup

