      -----------------------------------------------------------      
     |                   =====================                   |     
     |                           x T B                           |     
     |                   =====================                   |     
     |                         S. Grimme                         |     
     |          Mulliken Center for Theoretical Chemistry        |     
     |                    University of Bonn                     |     
     |                Version 6.1 RC1 (SAW190329)                |     
      -----------------------------------------------------------      

   This program is distributed in the hope that it will be useful,
   but WITHOUT ANY WARRANTY; without even the implied warranty of
   MERCHANTABILITY or FITNESS FOR A PARTICULAR PURPOSE.
   
   FOR NON-COMMERCIAL, ACADEMIA USE ONLY.
   
   Cite this work as:
   S. Grimme, C. Bannwarth, P. Shushkov, J. Comput. Theory Chem., 2017,
   13, 1989-2009. DOI: 10.1021/acs.jctc.7b00118
   C. Bannwarth, S. Ehlert and S. Grimme., J. Comput. Theory Chem., 2019,
   just accepted. DOI: 10.1021/acs.jctc.8b01176
   
   for sTDA-xTB:
   S. Grimme and C. Bannwarth, J. Chem. Phys., 2016, 145, 054103.
   DOI: 10.1063/1.4959605
   
   in the mass-spec context:
   V. Asgeirsson, C. Bauer and S. Grimme, Chem. Sci., 2017, 8, 4879.
   DOI: 10.1039/c7sc00601b
   
   for metadynamics refer to:
   S. Grimme, ChemRxiv, Preprint. DOI: 10.26434/chemrxiv.7660532.v1
   
   with help from (in alphabetical order)
   C. Bannwarth, F. Bohle, G. Brandenburg, E. Caldeweyher, M. Checinski,
   S. Dohm, S. Ehlert, S. Ehrlich, F. März, H. Neugebauer, J. Pisarek,
   P. Pracht, P. Shushkov, and S. Spicher.
   
 * started run on 2019/05/31 at 06:33:28.430     

           -------------------------------------------------
          |                Calculation Setup                |
           -------------------------------------------------

          program call               : /home/lum/qr/xtb-190329/bin/xtb xtb_tmp.xyz --chrg 1 --grad --gfn 2 --etemp 500 --acc 0.1 --gbsa h2o --parallel 2
          hostname                   : cu39
          coordinate file            : xtb_tmp.xyz
          omp threads                :                     2
          number of atoms            :                   534
          number of electrons        :                  1398
          charge                     :                     1
          spin                       :                   0.0
          first test random number   :      0.85680628140854


molecular fragmentation (1/2 indicates fragments):
111111111111111111111111122222222222222222222222222222222222222222222222
222222222222222222222222222222222222222222222222222222222222222222222222
222222222222222222222222222222222222222222222222222222222222222222222222
222222222222222222222222222222222222222222222222222222222222222222222222
222222222222222222222222222222222222222222222222222222222222222222222222
222222222222222222222222222222222222222222222222222222222222222222222222
222222222222222222222222222222222222222222222222222222222222222222222222
222222222211222222222222222222
# atoms in fragment 1/2:    27   507
 fragment masses (1/2) :      190.20     3340.23
CMA distance (Bohr)    :  29.092
constraining FC (au)   :  0.0500

########################################################################
# WARNING! Please study the warnings concerning your input carefully
#  - XTBPATH is not set, using XTBHOME instead
#  - Process number higher than OMP_NUM_THREADS, I hope you know what you are doing.
########################################################################

           ------------------------------------------------- 
          |                 G F N 2 - x T B                 |
          | Geometry, Frequencies, Noncovalent interactions |
          |            JCTC 2018 parametrisation            |
           ------------------------------------------------- 
 
             k(s)              :                1.8500
             k(p)              :                2.2300
             k(d)              :                2.2300
             k(f)              :                2.0000
             kEN (H0ij)        :               -2.0000
             D4 a1             :                0.5200
             D4 a2             :                5.0000
             D4 s6             :                1.0000
             D4 s8             :                2.7000
             D4 s9             :                5.0000
             alphaj            :                2.0000

  Z AO/shell   Hii/eV     exponent
  1     Wed Apr 25 08:07:45 CEST 2018   EN: 2.200 GM2: 0.406  GM3: 0.0800  RAES: 1.40
     1s    -10.707211    1.230000
  6     Wed Apr 25 08:07:45 CEST 2018   EN: 2.550 GM2: 0.538  GM3: 0.1500  RAES: 3.00
     2s    -13.970922    2.096432
     2p    -10.063292    1.800000
  7     Wed Apr 25 08:07:45 CEST 2018   EN: 3.040 GM2: 0.461  GM3:-0.0640  RAES: 1.90
     2s    -16.686243    2.339881
     2p    -12.523956    2.014332
  8     Wed Apr 25 08:07:45 CEST 2018   EN: 3.440 GM2: 0.452  GM3:-0.0517  RAES: 1.80
     2s    -20.229985    2.439742
     2p    -15.503117    2.137023
 16     Tue Apr 24 11:44:34 CEST 2018   EN: 2.580 GM2: 0.340  GM3:-0.0502  RAES: 3.10
     3s    -20.029654    1.981333
     3p    -11.377694    2.025643
     3d     -0.420282    1.702555

 Solvent             : h2o
 Using internal parameter file: .param_gbsa2_h2o
 Gsolv ref. state (COSMO-RS): gsolv [1 M gas/solution]
 temperature (mdtemp)       :    298.150000000000     
 dielectric constant        :    80.2000000000000     
 rho                        :    1.00000000000000     
 mass                       :    18.0000000000000     
 surface tension            :    15.5689454083859     
 probe radius               :   0.975313790000000     
 vdW radii scaling          :    1.00000000000000     
 Gshift (Eh)                :   1.857443126794793E-003
 c1                         :    1.55243817000000     
 soset                      :   0.130326360000000     
 HB correction              :  T
 Number of grid points      :          230

            Z     q(EN)     CN     RAES       Cart. coordinates
     1  N   5.0   -0.71    3.00    1.93    52.32229    62.36953    86.48123
     2  C   4.0    0.08    3.98    3.59    50.87952    64.16905    85.02932
     3  C   4.0    0.30    3.01    3.02    49.64351    62.81401    82.79950
     4  O   6.0   -0.39    1.00    1.80    50.79408    61.19624    81.62784
     5  C   4.0    0.03    3.97    3.58    52.64351    66.28379    83.96009
     6  O   6.0   -0.44    1.99    1.82    51.34895    67.64482    82.04325
     7  C   4.0   -0.17    3.98    3.59    55.08101    65.15484    82.91104
     8  H   1.0    0.29    1.00    1.43    53.18858    61.00091    85.47172
     9  H   1.0    0.11    0.99    1.43    49.47068    65.00353    86.28936
    10  H   1.0    0.10    0.99    1.43    53.12458    67.55935    85.52049
    11  H   1.0    0.25    0.99    1.43    50.17156    68.78843    82.83679
    12  H   1.0    0.13    0.99    1.43    56.27284    66.62152    82.11539
    13  H   1.0    0.10    0.99    1.43    56.12130    64.25641    84.43331
    14  H   1.0    0.16    0.99    1.43    54.66352    63.77021    81.45359
    15  N   5.0   -0.48    3.01    1.93    47.30173    63.57758    82.20699
    16  C   4.0    0.07    3.98    3.59    46.00438    62.69378    79.95657
    17  C   4.0    0.09    3.00    3.02    46.89934    64.30380    77.72032
    18  O   6.0   -0.36    1.00    1.80    48.44194    63.45999    76.18757
    19  C   4.0   -0.03    3.98    3.58    43.12100    62.71134    80.43479
    20  O   6.0   -0.48    1.99    1.82    42.30771    64.80578    81.84330
    21  H   1.0    0.25    1.00    1.43    46.33674    64.84578    83.26820
    22  H   1.0    0.14    0.99    1.43    46.61850    60.75321    79.56613
    23  H   1.0    0.11    0.99    1.43    42.12072    62.48261    78.63028
    24  H   1.0    0.12    0.99    1.43    42.67673    61.09387    81.64227
    25  H   1.0    0.26    0.99    1.43    42.28813    66.36222    80.87810
    26  N   5.0   -0.68    3.00    1.93    44.85878    21.06710    76.79387
    27  C   4.0    0.06    3.98    3.58    43.51980    22.11827    78.93768
    28  C   4.0    0.08    3.00    3.02    45.22814    22.01836    81.27314
    29  O   6.0   -0.37    1.00    1.80    46.19184    20.03209    81.96586
    30  C   4.0   -0.13    4.01    3.63    41.08936    20.57438    79.39531
    31  C   4.0   -0.14    3.98    3.58    38.88020    22.22973    80.17472
    32  S   6.0   -0.15    2.01    3.10    36.05175    20.40983    80.95635
    33  C   4.0   -0.19    3.98    3.58    35.47869    18.93580    77.91195
    34  H   1.0    0.29    1.00    1.43    45.31451    19.22165    76.94821
    35  H   1.0    0.11    0.99    1.43    43.07990    24.08092    78.49223
    36  H   1.0    0.12    0.99    1.43    40.60286    19.62146    77.62948
    37  H   1.0    0.14    0.99    1.43    41.45144    19.12887    80.82424
    38  H   1.0    0.11    0.99    1.43    39.30777    23.32672    81.85927
    39  H   1.0    0.12    0.99    1.43    38.36398    23.47256    78.62638
    40  H   1.0    0.12    0.99    1.43    33.54696    18.25049    77.93058
    41  H   1.0    0.14    0.99    1.43    35.73646    20.32485    76.42159
    42  H   1.0    0.12    0.99    1.43    36.75901    17.35051    77.65372
    43  N   5.0   -0.69    3.00    1.93    45.13834    25.33377    88.77387
    44  C   4.0    0.08    3.99    3.60    44.32050    27.06650    90.71966
    45  C   4.0    0.28    3.01    3.02    44.84728    25.93318    93.30492
    46  O   6.0   -0.38    1.00    1.80    45.26698    23.68615    93.62717
    47  C   4.0   -0.13    3.99    3.60    41.50249    27.80239    90.44833
    48  C   4.0   -0.03    3.03    3.02    39.71879    26.28694    92.04281
    49  C   4.0   -0.09    3.03    3.02    38.95950    27.22266    94.37793
    50  C   4.0   -0.09    3.03    3.02    38.75121    23.99113    91.23156
    51  C   4.0   -0.08    3.03    3.02    37.30999    25.88539    95.88685
    52  C   4.0   -0.09    3.03    3.02    37.07815    22.64367    92.71970
    53  C   4.0    0.11    3.03    3.02    36.36149    23.57254    95.06899
    54  O   6.0   -0.47    1.99    1.83    34.73023    22.32376    96.61468
    55  H   1.0    0.31    1.00    1.43    45.81479    23.65523    89.39757
    56  H   1.0    0.15    0.99    1.43    45.43608    28.80552    90.53039
    57  H   1.0    0.11    0.99    1.43    41.32732    29.77137    91.01290
    58  H   1.0    0.11    0.99    1.43    41.02522    27.62901    88.45201
    59  H   1.0    0.13    1.00    1.43    39.68193    29.01927    95.02357
    60  H   1.0    0.12    1.00    1.43    39.30372    23.24879    89.41356
    61  H   1.0    0.12    1.00    1.43    36.74020    26.60032    97.70595
    62  H   1.0    0.12    0.99    1.43    36.33540    20.85908    92.06032
    63  H   1.0    0.26    0.99    1.43    34.23280    20.73248    95.87020
    64  N   5.0   -0.49    3.02    1.93    44.68541    27.65584    95.14829
    65  C   4.0    0.07    3.99    3.61    45.16784    27.14230    97.76991
    66  C   4.0    0.26    3.01    3.02    43.81060    29.16386    99.30078
    67  O   6.0   -0.45    1.00    1.80    43.30265    31.24864    98.43075
    68  C   4.0   -0.12    3.98    3.59    48.02098    27.12583    98.36534
    69  C   4.0   -0.09    3.97    3.58    49.32747    29.61627    97.77397
    70  C   4.0    0.32    2.99    3.02    52.25256    29.22425    97.64656
    71  O   6.0   -0.34    1.00    1.80    53.56730    30.56488    99.07118
    72  O   6.0   -0.35    1.00    1.80    53.02371    27.61328    96.10969
    73  H   1.0    0.28    1.00    1.43    44.48581    29.50504    94.69479
    74  H   1.0    0.14    0.99    1.43    44.40904    25.26491    98.20455
    75  H   1.0    0.13    0.99    1.43    48.31979    26.64026   100.34994
    76  H   1.0    0.16    0.99    1.43    48.91256    25.67216    97.19713
    77  H   1.0    0.14    0.99    1.43    48.75301    30.28384    95.90681
    78  H   1.0    0.14    0.99    1.43    48.91019    31.06623    99.18024
    79  N   5.0   -0.48    3.01    1.93    43.13675    28.40120   101.60719
    80  C   4.0    0.07    3.99    3.60    42.03515    30.05310   103.48143
    81  C   4.0    0.07    3.00    3.02    43.83505    30.16345   105.73095
    82  O   6.0   -0.38    1.00    1.80    44.92619    28.26639   106.47589
    83  C   4.0   -0.14    3.98    3.59    39.48306    28.99991   104.40673
    84  C   4.0   -0.17    3.98    3.59    37.69069    31.12597   105.16812
    85  C   4.0   -0.16    3.98    3.59    35.36744    30.10445   106.54624
    86  C   4.0   -0.05    3.98    3.59    33.40143    32.18880   106.85216
    87  N   5.0   -0.73    3.98    2.82    31.33905    31.36523   108.57185
    88  H   1.0    0.26    1.00    1.43    43.82271    26.75096   102.28241
    89  H   1.0    0.14    0.99    1.43    41.81411    31.91025   102.60867
    90  H   1.0    0.12    0.99    1.43    38.66050    27.88370   102.88051
    91  H   1.0    0.13    0.99    1.43    39.83669    27.73136   105.99577
    92  H   1.0    0.12    0.99    1.43    38.69471    32.46210   106.37405
    93  H   1.0    0.10    0.99    1.43    37.11600    32.12738   103.46201
    94  H   1.0    0.11    0.99    1.43    34.59304    28.53073   105.46431
    95  H   1.0    0.12    0.99    1.43    35.96570    29.39253   108.38506
    96  H   1.0    0.13    0.99    1.43    34.25874    33.89222   107.63674
    97  H   1.0    0.10    0.99    1.43    32.59379    32.65433   105.01605
    98  H   1.0    0.26    1.00    1.43    30.08395    32.82921   108.83533
    99  H   1.0    0.24    1.00    1.43    30.40977    29.81982   107.83111
   100  H   1.0    0.25    1.00    1.43    32.08224    30.87246   110.30226
   101  N   5.0   -0.70    3.00    1.93    39.85214    44.47842   113.12506
   102  C   4.0    0.07    3.98    3.59    39.36894    42.43930   111.35873
   103  C   4.0    0.27    3.00    3.02    40.18402    43.24712   108.70243
   104  O   6.0   -0.40    1.00    1.80    39.77633    45.35747   107.85499
   105  C   4.0   -0.14    3.98    3.59    36.58259    41.55942   111.57746
   106  C   4.0   -0.11    3.98    3.59    35.07940    41.46697   109.10302
   107  C   4.0    0.27    3.00    3.02    32.60139    40.13622   109.70582
   108  O   6.0   -0.43    1.00    1.80    32.29596    37.87302   109.39289
   109  N   5.0   -0.65    3.00    1.93    30.82000    41.61774   110.72412
   110  H   1.0    0.28    1.00    1.43    39.32686    46.26178   112.65481
   111  H   1.0    0.11    0.99    1.43    40.60831    40.89296   111.95001
   112  H   1.0    0.12    0.99    1.43    36.57233    39.67532   112.40887
   113  H   1.0    0.12    0.99    1.43    35.63447    42.82427   112.90394
   114  H   1.0    0.12    0.99    1.43    34.72820    43.36729   108.39242
   115  H   1.0    0.13    0.99    1.43    36.11046    40.38696   107.68142
   116  H   1.0    0.26    1.00    1.43    31.09628    43.47870   111.00116
   117  H   1.0    0.28    1.00    1.43    29.16921    40.84781   111.28319
   118  N   5.0   -0.50    3.01    1.93    41.35540    41.40266   107.42979
   119  C   4.0    0.08    3.99    3.61    42.52444    41.70195   104.97425
   120  C   4.0    0.26    3.02    3.02    41.75986    39.42285   103.35766
   121  O   6.0   -0.44    1.00    1.80    42.14607    37.24320   104.03755
   122  C   4.0   -0.08    3.98    3.59    45.43570    41.70152   105.22250
   123  C   4.0   -0.14    3.98    3.58    46.37070    43.86382   106.90497
   124  C   4.0   -0.21    3.98    3.59    46.64234    41.79171   102.60502
   125  C   4.0   -0.22    3.98    3.58    49.09468    43.48237   107.77564
   126  H   1.0    0.24    1.00    1.43    41.86774    39.77952   108.31464
   127  H   1.0    0.16    0.99    1.43    41.84290    43.46137   104.13545
   128  H   1.0    0.13    0.99    1.43    45.93143    39.91463   106.13735
   129  H   1.0    0.12    0.99    1.43    46.19171    45.64682   105.88486
   130  H   1.0    0.14    0.99    1.43    45.16954    43.98583   108.57915
   131  H   1.0    0.11    0.99    1.43    48.68550    41.84972   102.76714
   132  H   1.0    0.13    0.99    1.43    46.15220    40.11493   101.52434
   133  H   1.0    0.12    0.99    1.43    46.00002    43.44064   101.56306
   134  H   1.0    0.12    0.99    1.43    49.62288    44.95130   109.11380
   135  H   1.0    0.12    0.99    1.43    49.28755    41.66267   108.71766
   136  H   1.0    0.11    0.99    1.43    50.40130    43.54134   106.19252
   137  N   5.0   -0.50    3.01    1.93    40.62912    40.00575   101.17343
   138  C   4.0    0.08    4.00    3.62    40.16003    38.10780    99.26422
   139  C   4.0    0.27    3.01    3.02    41.71273    38.81085    96.92750
   140  O   6.0   -0.43    1.00    1.80    41.76035    40.96294    96.08899
   141  C   4.0   -0.09    3.98    3.58    37.33640    37.82500    98.59782
   142  C   4.0   -0.24    3.98    3.59    36.97351    35.34474    97.16914
   143  C   4.0   -0.22    3.98    3.59    35.73310    37.87155   100.99586
   144  H   1.0    0.29    1.00    1.43    40.45170    41.83908   100.64895
   145  H   1.0    0.14    0.99    1.43    40.85068    36.32345   100.05149
   146  H   1.0    0.11    0.99    1.43    36.78553    39.40501    97.38210
   147  H   1.0    0.09    0.99    1.43    34.98666    35.04675    96.76430
   148  H   1.0    0.12    0.99    1.43    38.01261    35.36151    95.39778
   149  H   1.0    0.11    0.99    1.43    37.66930    33.77123    98.29363
   150  H   1.0    0.09    0.99    1.43    33.75689    37.60249   100.51377
   151  H   1.0    0.11    0.99    1.43    36.33519    36.37575   102.26706
   152  H   1.0    0.12    0.99    1.43    35.93763    39.66742   101.97325
   153  N   5.0   -0.50    3.02    1.93    42.93947    36.84388    95.90292
   154  C   4.0    0.08    3.99    3.60    44.87429    37.04726    93.96673
   155  C   4.0    0.27    3.01    3.02    44.15116    35.09135    91.94059
   156  O   6.0   -0.47    1.00    1.80    44.87028    32.89373    92.12011
   157  C   4.0   -0.09    3.99    3.60    47.43340    36.39591    95.19156
   158  C   4.0    0.27    3.00    3.02    49.72870    37.66266    94.03493
   159  O   6.0   -0.39    1.00    1.80    51.17915    38.92931    95.31116
   160  N   5.0   -0.64    3.00    1.93    50.02167    37.34267    91.53997
   161  H   1.0    0.26    1.00    1.43    42.92865    35.15964    96.81801
   162  H   1.0    0.15    0.99    1.43    44.83742    38.97777    93.22357
   163  H   1.0    0.13    0.99    1.43    47.39721    36.94532    97.17903
   164  H   1.0    0.13    0.99    1.43    47.70604    34.34761    95.11713
   165  H   1.0    0.32    1.00    1.43    51.49238    38.19804    90.66819
   166  H   1.0    0.29    1.00    1.43    48.96458    36.08954    90.58536
   167  N   5.0   -0.48    3.00    1.93    42.61653    35.90731    90.11221
   168  C   4.0    0.07    4.00    3.61    41.76027    34.21821    88.12240
   169  C   4.0    0.27    3.01    3.02    42.81731    35.07870    85.57899
   170  O   6.0   -0.46    1.00    1.80    42.86163    37.29188    84.91396
   171  C   4.0   -0.13    3.99    3.60    38.84396    34.06500    88.02117
   172  C   4.0   -0.04    3.03    3.02    37.93756    32.11298    86.15794
   173  C   4.0   -0.08    3.03    3.02    38.06328    32.56466    83.57266
   174  C   4.0   -0.11    3.03    3.02    36.93819    29.82995    86.98572
   175  C   4.0   -0.09    3.03    3.02    37.29900    30.73758    81.86486
   176  C   4.0   -0.11    3.03    3.02    36.17487    28.00082    85.27659
   177  C   4.0   -0.11    3.03    3.02    36.37076    28.43814    82.70519
   178  H   1.0    0.29    1.00    1.43    42.16915    37.77399    89.96072
   179  H   1.0    0.13    0.99    1.43    42.52964    32.35720    88.56445
   180  H   1.0    0.10    0.99    1.43    38.14584    33.61796    89.90886
   181  H   1.0    0.11    0.99    1.43    38.12943    35.92394    87.49989
   182  H   1.0    0.13    1.00    1.43    38.74979    34.36283    82.90061
   183  H   1.0    0.11    1.00    1.43    36.74960    29.46987    88.98360
   184  H   1.0    0.12    1.00    1.43    37.44307    31.11702    79.86979
   185  H   1.0    0.11    1.00    1.43    35.43214    26.22967    85.96498
   186  H   1.0    0.11    1.00    1.43    35.77991    26.98916    81.39753
   187  N   5.0   -0.49    3.01    1.93    43.62586    33.21131    84.08977
   188  C   4.0    0.07    3.99    3.61    44.59648    33.67730    81.57338
   189  C   4.0    0.26    3.01    3.02    43.94960    31.49788    79.79544
   190  O   6.0   -0.43    1.00    1.80    44.12353    29.28181    80.41934
   191  C   4.0   -0.14    3.98    3.59    47.50384    33.89165    81.64073
   192  C   4.0   -0.16    3.98    3.58    48.67426    34.18983    79.00492
   193  C   4.0   -0.15    3.98    3.58    51.15315    35.68555    79.02507
   194  C   4.0   -0.05    3.98    3.58    53.09080    34.69586    80.92574
   195  N   5.0   -0.73    3.98    2.81    54.91300    36.73784    81.57054
   196  H   1.0    0.25    1.00    1.43    43.83508    31.41475    84.73171
   197  H   1.0    0.14    0.99    1.43    43.76410    35.43929    80.88952
   198  H   1.0    0.12    0.99    1.43    47.96881    35.49942    82.84416
   199  H   1.0    0.13    0.99    1.43    48.20077    32.18077    82.55530
   200  H   1.0    0.13    0.99    1.43    48.98423    32.32683    78.18080
   201  H   1.0    0.13    0.99    1.43    47.35267    35.20311    77.78995
   202  H   1.0    0.10    0.99    1.43    51.94136    35.65871    77.12329
   203  H   1.0    0.12    0.99    1.43    50.72534    37.64140    79.49979
   204  H   1.0    0.12    0.99    1.43    52.14826    34.13286    82.66687
   205  H   1.0    0.12    0.99    1.43    54.11162    33.07566    80.16681
   206  H   1.0    0.26    1.00    1.43    56.08279    36.20113    83.02146
   207  H   1.0    0.25    1.00    1.43    56.00016    37.22456    80.03705
   208  H   1.0    0.31    0.99    1.43    53.90757    38.35286    82.19165
   209  N   5.0   -0.49    3.01    1.93    43.33881    32.22812    77.44335
   210  C   4.0    0.06    3.99    3.61    43.35533    30.45223    75.36894
   211  C   4.0    0.05    3.00    3.02    44.75932    31.51029    73.07349
   212  O   6.0   -0.43    1.00    1.80    44.92648    33.77156    72.62989
   213  C   4.0   -0.13    3.98    3.59    40.66928    29.66962    74.53870
   214  C   4.0   -0.12    3.99    3.60    39.89824    27.27172    75.95223
   215  C   4.0    0.25    3.00    3.02    37.55674    25.99391    74.90148
   216  O   6.0   -0.42    1.00    1.80    37.61354    23.85853    74.01217
   217  N   5.0   -0.66    3.00    1.93    35.43387    27.36282    75.05403
   218  H   1.0    0.28    1.00    1.43    43.12811    34.09021    77.02174
   219  H   1.0    0.13    0.99    1.43    44.36645    28.77192    76.02667
   220  H   1.0    0.13    0.99    1.43    39.39227    31.23914    74.91265
   221  H   1.0    0.12    0.99    1.43    40.66266    29.26909    72.51734
   222  H   1.0    0.11    0.99    1.43    41.43155    25.92314    75.71765
   223  H   1.0    0.11    0.99    1.43    39.66707    27.68175    77.95965
   224  H   1.0    0.27    1.00    1.43    35.42676    29.06866    75.89107
   225  H   1.0    0.28    1.00    1.43    33.82918    26.66178    74.30700
   226  N   5.0   -0.70    3.00    1.93    41.87976    38.78191    71.98653
   227  C   4.0    0.07    3.98    3.59    40.64913    40.41945    73.79124
   228  C   4.0    0.27    3.01    3.02    41.81780    39.95057    76.38078
   229  O   6.0   -0.46    1.00    1.80    42.14456    37.82042    77.21103
   230  C   4.0   -0.16    3.98    3.59    37.76804    39.96341    73.85518
   231  C   4.0   -0.14    3.98    3.58    36.98792    37.17996    73.96371
   232  C   4.0   -0.05    3.99    3.60    34.09154    37.05605    73.93832
   233  N   5.0   -0.48    3.01    1.93    33.08630    34.50418    73.64942
   234  C   4.0    0.35    3.01    3.02    32.16976    33.12438    75.55820
   235  N   5.0   -0.65    3.02    1.93    30.73545    31.12151    75.08788
   236  N   5.0   -0.66    3.02    1.93    32.98999    33.52902    77.91213
   237  H   1.0    0.32    1.00    1.43    42.54231    37.10490    72.63327
   238  H   1.0    0.14    0.99    1.43    40.99395    42.36783    73.18355
   239  H   1.0    0.10    0.99    1.43    36.96066    41.00089    75.44567
   240  H   1.0    0.09    0.99    1.43    36.98869    40.77083    72.12864
   241  H   1.0    0.12    0.99    1.43    37.72717    36.22134    72.29563
   242  H   1.0    0.13    0.99    1.43    37.76234    36.29543    75.65498
   243  H   1.0    0.10    0.99    1.43    33.33337    37.92138    75.65287
   244  H   1.0    0.10    0.99    1.43    33.38085    38.18432    72.36397
   245  H   1.0    0.23    1.00    1.43    32.36897    34.09115    71.92458
   246  H   1.0    0.26    1.00    1.43    29.99401    30.81376    73.33602
   247  H   1.0    0.28    1.00    1.43    29.70922    30.37563    76.51810
   248  H   1.0    0.25    1.00    1.43    34.04149    35.06862    78.31050
   249  H   1.0    0.26    1.00    1.43    32.10888    32.67559    79.37254
   250  N   5.0   -0.50    3.01    1.93    42.48117    42.04225    77.64070
   251  C   4.0    0.07    4.00    3.61    43.48198    41.97354    80.17957
   252  C   4.0    0.27    3.01    3.02    41.64193    43.40661    81.89687
   253  O   6.0   -0.46    1.00    1.80    40.76531    45.46922    81.28631
   254  C   4.0   -0.15    3.98    3.58    46.16668    43.09431    80.30801
   255  C   4.0   -0.12    3.98    3.59    47.85888    41.43777    81.94888
   256  C   4.0    0.25    3.00    3.02    50.62910    42.10641    81.95037
   257  O   6.0   -0.50    1.01    1.80    52.15350    40.75336    83.09892
   258  N   5.0   -0.66    3.00    1.93    51.40869    44.11282    80.66115
   259  H   1.0    0.25    1.00    1.43    42.18589    43.75932    76.86772
   260  H   1.0    0.14    0.99    1.43    43.52320    39.98067    80.72625
   261  H   1.0    0.11    0.99    1.43    46.90871    43.15287    78.38119
   262  H   1.0    0.11    0.99    1.43    46.06199    45.00913    81.06754
   263  H   1.0    0.13    0.99    1.43    47.21012    41.45069    83.91096
   264  H   1.0    0.11    0.99    1.43    47.69818    39.47877    81.31151
   265  H   1.0    0.24    1.00    1.43    50.21458    45.38328    79.89797
   266  H   1.0    0.28    1.00    1.43    53.27147    44.53389    80.65482
   267  N   5.0   -0.49    3.01    1.93    41.07564    42.17722    84.00435
   268  C   4.0    0.08    4.00    3.62    39.23671    42.99734    85.84733
   269  C   4.0    0.28    3.01    3.02    40.61501    43.21294    88.37814
   270  O   6.0   -0.43    1.00    1.80    41.53940    41.37150    89.43164
   271  C   4.0   -0.08    3.98    3.59    37.12704    41.00725    86.07643
   272  C   4.0   -0.23    3.98    3.59    35.21417    41.82284    88.06932
   273  C   4.0   -0.22    3.98    3.59    35.86162    40.52242    83.53405
   274  H   1.0    0.30    1.00    1.43    41.88198    40.47460    84.40055
   275  H   1.0    0.14    0.99    1.43    38.48491    44.83260    85.26240
   276  H   1.0    0.13    0.99    1.43    38.05238    39.27157    86.71285
   277  H   1.0    0.10    0.99    1.43    33.67275    40.46936    88.17256
   278  H   1.0    0.12    0.99    1.43    36.10773    41.93094    89.91675
   279  H   1.0    0.10    0.99    1.43    34.44153    43.67330    87.62361
   280  H   1.0    0.09    0.99    1.43    34.48639    39.01196    83.73042
   281  H   1.0    0.10    0.99    1.43    34.89570    42.21747    82.89214
   282  H   1.0    0.13    0.99    1.43    37.25559    39.97659    82.12755
   283  N   5.0   -0.48    3.01    1.93    40.75085    45.56816    89.26533
   284  C   4.0    0.08    4.00    3.62    41.82015    46.19694    91.69324
   285  C   4.0    0.26    3.01    3.02    39.76782    47.46533    93.26932
   286  O   6.0   -0.46    1.00    1.80    38.67198    49.34746    92.50393
   287  C   4.0   -0.12    3.99    3.60    44.04135    48.05665    91.37493
   288  C   4.0   -0.02    3.03    3.02    46.34267    46.61387    90.57476
   289  C   4.0   -0.09    3.04    3.02    47.64384    45.18554    92.35530
   290  C   4.0   -0.09    3.03    3.02    47.13788    46.53775    88.08370
   291  C   4.0   -0.05    3.03    3.02    49.60155    43.61813    91.65753
   292  C   4.0   -0.09    3.03    3.02    49.11649    44.98717    87.36430
   293  C   4.0    0.12    3.03    3.02    50.29762    43.43736    89.12434
   294  O   6.0   -0.46    1.99    1.83    52.11093    41.73630    88.48016
   295  H   1.0    0.27    1.00    1.43    39.91822    47.00890    88.31618
   296  H   1.0    0.15    0.99    1.43    42.47079    44.44429    92.57719
   297  H   1.0    0.12    0.99    1.43    43.50803    49.46629    89.97226
   298  H   1.0    0.11    0.99    1.43    44.38005    49.02175    93.16490
   299  H   1.0    0.13    0.99    1.43    47.09278    45.28380    94.31873
   300  H   1.0    0.12    1.00    1.43    46.20342    47.69643    86.69074
   301  H   1.0    0.17    1.00    1.43    50.59343    42.52105    93.05711
   302  H   1.0    0.13    1.00    1.43    49.76269    45.00971    85.43406
   303  H   1.0    0.30    0.99    1.43    52.32311    41.64354    86.64767
   304  N   5.0   -0.48    3.01    1.93    39.33842    46.38037    95.50793
   305  C   4.0    0.06    3.99    3.60    37.63050    47.42516    97.38148
   306  C   4.0    0.06    3.00    3.02    39.02410    47.37275    99.91389
   307  O   6.0   -0.45    1.00    1.80    39.98887    45.42576   100.71783
   308  C   4.0   -0.13    3.98    3.59    35.18558    45.87306    97.58742
   309  C   4.0   -0.10    3.97    3.58    33.36013    46.90843    99.59233
   310  C   4.0   -0.22    3.98    3.59    32.31389    49.49437    98.84628
   311  C   4.0   -0.23    3.98    3.59    31.17132    45.06525   100.00209
   312  H   1.0    0.28    1.00    1.43    40.19959    44.72338    95.94672
   313  H   1.0    0.12    0.99    1.43    37.20966    49.36357    96.80882
   314  H   1.0    0.11    0.99    1.43    34.26366    45.85927    95.74107
   315  H   1.0    0.12    0.99    1.43    35.71213    43.93706    98.07862
   316  H   1.0    0.12    0.99    1.43    34.39639    47.09694   101.37812
   317  H   1.0    0.11    0.99    1.43    30.99609    50.16686   100.27220
   318  H   1.0    0.10    0.99    1.43    33.80509    50.89518    98.67978
   319  H   1.0    0.12    0.99    1.43    31.31532    49.39515    97.04923
   320  H   1.0    0.11    0.99    1.43    30.03487    45.64665   101.61220
   321  H   1.0    0.10    0.99    1.43    29.95401    45.05059    98.34644
   322  H   1.0    0.10    0.99    1.43    31.85839    43.16210   100.35323
   323  N   5.0   -0.70    3.00    1.93    37.61564    56.83141    94.69545
   324  C   4.0    0.08    3.98    3.59    37.35922    54.84204    92.83789
   325  C   4.0    0.27    3.01    3.02    38.15181    55.88635    90.26808
   326  O   6.0   -0.41    1.00    1.80    37.85619    58.11689    89.74119
   327  C   4.0   -0.20    3.99    3.60    34.59955    53.97751    92.60411
   328  H   1.0    0.30    1.00    1.43    37.42419    58.60026    93.99036
   329  H   1.0    0.15    0.99    1.43    38.50855    53.22948    93.41140
   330  H   1.0    0.13    0.99    1.43    34.47879    52.34159    91.37127
   331  H   1.0    0.10    0.99    1.43    33.86595    53.45294    94.44812
   332  H   1.0    0.12    0.99    1.43    33.42751    55.49541    91.86631
   333  N   5.0   -0.49    3.01    1.93    39.10697    54.16058    88.67617
   334  C   4.0    0.08    3.99    3.61    39.38954    54.61088    85.99547
   335  C   4.0    0.26    3.01    3.02    38.41859    52.27239    84.59157
   336  O   6.0   -0.44    1.00    1.80    38.36906    50.19001    85.58920
   337  C   4.0   -0.08    3.98    3.58    42.14741    55.17694    85.17341
   338  C   4.0   -0.20    3.98    3.59    43.09145    57.62541    86.37226
   339  C   4.0   -0.21    3.98    3.59    43.91695    52.99572    85.81976
   340  H   1.0    0.27    1.00    1.43    39.12663    52.32576    89.23516
   341  H   1.0    0.13    0.99    1.43    38.23558    56.26846    85.52529
   342  H   1.0    0.11    0.99    1.43    42.10486    55.42283    83.11761
   343  H   1.0    0.11    0.99    1.43    44.97862    58.07075    85.68720
   344  H   1.0    0.13    0.99    1.43    41.83000    59.19064    85.94389
   345  H   1.0    0.14    0.99    1.43    43.17229    57.43892    88.41697
   346  H   1.0    0.10    0.99    1.43    45.78231    53.34437    85.03456
   347  H   1.0    0.11    0.99    1.43    44.10884    52.84954    87.85850
   348  H   1.0    0.13    0.99    1.43    43.19252    51.22072    85.07817
   349  N   5.0   -0.50    3.01    1.93    37.71840    52.71265    82.19885
   350  C   4.0    0.08    3.99    3.61    36.83082    50.79010    80.46406
   351  C   4.0    0.26    3.01    3.02    38.35809    51.15337    78.03005
   352  O   6.0   -0.43    1.00    1.80    38.14751    53.00234    76.65738
   353  C   4.0   -0.08    3.98    3.58    33.94053    50.96505    80.09992
   354  C   4.0   -0.16    3.98    3.58    33.00634    48.82829    78.37119
   355  C   4.0   -0.21    3.98    3.59    33.13469    53.56140    79.12554
   356  C   4.0   -0.25    3.98    3.58    32.26975    46.46168    79.83590
   357  H   1.0    0.24    1.00    1.43    37.77241    54.48958    81.51366
   358  H   1.0    0.14    0.99    1.43    37.30921    48.96496    81.31379
   359  H   1.0    0.12    0.99    1.43    33.10778    50.70593    81.98104
   360  H   1.0    0.10    0.99    1.43    31.35884    49.47096    77.31258
   361  H   1.0    0.11    0.99    1.43    34.45423    48.34736    76.97783
   362  H   1.0    0.10    0.99    1.43    31.11024    53.57678    78.78713
   363  H   1.0    0.12    0.99    1.43    33.55482    55.01995    80.50976
   364  H   1.0    0.14    0.99    1.43    34.10081    54.01699    77.37187
   365  H   1.0    0.09    0.99    1.43    31.63746    45.01599    78.52074
   366  H   1.0    0.10    0.99    1.43    33.86968    45.74325    80.90640
   367  H   1.0    0.09    0.99    1.43    30.73066    46.87981    81.13487
   368  N   5.0   -0.51    3.01    1.93    40.05012    49.31489    77.59023
   369  C   4.0    0.07    3.99    3.61    41.82338    49.44300    75.50188
   370  C   4.0    0.26    3.00    3.02    41.05811    47.58852    73.40295
   371  O   6.0   -0.44    1.00    1.80    42.57701    46.32315    72.23153
   372  C   4.0   -0.13    3.99    3.60    44.51746    49.00984    76.46348
   373  C   4.0   -0.10    3.97    3.58    46.63502    50.05247    74.77702
   374  C   4.0   -0.21    3.98    3.59    46.68967    52.93546    74.78795
   375  C   4.0   -0.23    3.99    3.59    49.16293    49.02658    75.73558
   376  H   1.0    0.28    1.00    1.43    40.25649    47.85156    78.82448
   377  H   1.0    0.14    0.99    1.43    41.63691    51.33553    74.68228
   378  H   1.0    0.11    0.99    1.43    44.66294    49.86746    78.33517
   379  H   1.0    0.11    0.99    1.43    44.80017    46.98006    76.65164
   380  H   1.0    0.14    0.99    1.43    46.33054    49.37381    72.84440
   381  H   1.0    0.12    0.99    1.43    48.24235    53.61683    73.62883
   382  H   1.0    0.12    0.99    1.43    44.94763    53.72320    74.03661
   383  H   1.0    0.11    0.99    1.43    46.95631    53.64662    76.69902
   384  H   1.0    0.11    0.99    1.43    50.69057    49.62103    74.49861
   385  H   1.0    0.10    0.99    1.43    49.54614    49.73752    77.62711
   386  H   1.0    0.09    0.99    1.43    49.12615    46.97289    75.76173
   387  N   5.0   -0.48    3.01    1.93    38.52958    47.41522    73.13210
   388  C   4.0   -0.00    3.98    3.59    37.27555    46.10265    71.08490
   389  C   4.0    0.06    3.00    3.02    35.72310    48.00121    69.55428
   390  O   6.0   -0.36    1.00    1.80    36.42100    48.81901    67.49409
   391  H   1.0    0.25    1.00    1.43    37.43166    48.62252    74.12777
   392  H   1.0    0.15    0.99    1.43    38.69715    45.20945    69.87853
   393  H   1.0    0.09    0.99    1.43    35.97982    44.69447    71.86697
   394  N   5.0   -0.71    3.00    1.93    22.80095    47.70582    88.40829
   395  C   4.0    0.07    3.98    3.59    25.39175    47.35785    89.21887
   396  C   4.0    0.08    3.00    3.02    26.42282    49.81355    90.38125
   397  O   6.0   -0.43    1.00    1.80    27.54974    49.83566    92.39816
   398  C   4.0   -0.09    3.98    3.59    27.03595    46.50337    86.99802
   399  C   4.0   -0.22    3.99    3.60    29.80907    46.41356    87.76407
   400  C   4.0   -0.23    3.98    3.59    26.21103    43.90630    86.05974
   401  H   1.0    0.26    1.00    1.43    22.45384    47.66965    86.53117
   402  H   1.0    0.12    0.99    1.43    25.43911    45.92199    90.71409
   403  H   1.0    0.11    0.99    1.43    26.80147    47.87375    85.46239
   404  H   1.0    0.09    0.99    1.43    30.92033    45.95051    86.10455
   405  H   1.0    0.12    0.99    1.43    30.42430    48.22707    88.50070
   406  H   1.0    0.11    0.99    1.43    30.11697    44.97603    89.20146
   407  H   1.0    0.09    0.99    1.43    27.34625    43.38415    84.43259
   408  H   1.0    0.11    0.99    1.43    26.48717    42.47843    87.51429
   409  H   1.0    0.10    0.99    1.43    24.23009    43.88295    85.50532
   410  N   5.0   -0.69    3.00    1.93    21.18532    36.14364    94.11450
   411  C   4.0    0.07    3.98    3.59    23.25632    37.60126    93.04258
   412  C   4.0    0.30    3.01    3.02    24.70986    35.83125    91.27277
   413  O   6.0   -0.43    1.00    1.80    24.29552    35.82828    88.99695
   414  C   4.0   -0.15    4.00    3.63    24.76589    38.92856    95.12644
   415  C   4.0   -0.14    3.98    3.58    26.26488    41.15549    94.09878
   416  S   6.0   -0.16    2.01    3.10    28.91784    40.19949    92.13367
   417  C   4.0   -0.22    3.98    3.58    31.33503    39.95207    94.57845
   418  H   1.0    0.25    1.00    1.43    21.51192    35.11754    95.72186
   419  H   1.0    0.12    0.99    1.43    22.36618    39.01058    91.80619
   420  H   1.0    0.10    0.99    1.43    23.42051    39.62063    96.53641
   421  H   1.0    0.10    0.99    1.43    26.00480    37.60857    96.10967
   422  H   1.0    0.10    0.99    1.43    25.04630    42.30189    92.89702
   423  H   1.0    0.10    0.99    1.43    27.00494    42.30722    95.63741
   424  H   1.0    0.10    0.99    1.43    33.03060    39.30778    93.62741
   425  H   1.0    0.10    0.99    1.43    31.64673    41.79633    95.42157
   426  H   1.0    0.09    0.99    1.43    30.74812    38.59617    96.00260
   427  N   5.0   -0.49    3.00    1.93    26.33102    34.22579    92.37509
   428  C   4.0    0.08    4.00    3.62    27.63418    32.35875    90.86417
   429  C   4.0    0.29    3.01    3.02    25.75360    30.53418    89.65361
   430  O   6.0   -0.44    1.00    1.80    25.92846    29.94047    87.43724
   431  C   4.0   -0.10    3.98    3.58    29.74226    30.97840    92.32562
   432  C   4.0   -0.23    3.98    3.59    31.91143    32.81547    92.84081
   433  C   4.0   -0.22    3.98    3.59    28.83621    29.77864    94.79029
   434  H   1.0    0.22    1.00    1.43    26.50030    34.15174    94.27079
   435  H   1.0    0.13    0.99    1.43    28.49216    33.35452    89.25965
   436  H   1.0    0.11    0.99    1.43    30.41553    29.47591    91.07363
   437  H   1.0    0.09    0.99    1.43    33.46194    31.82141    93.75111
   438  H   1.0    0.10    0.99    1.43    32.58539    33.64004    91.08519
   439  H   1.0    0.10    0.99    1.43    31.27046    34.33150    94.06868
   440  H   1.0    0.10    0.99    1.43    30.38156    28.71431    95.62426
   441  H   1.0    0.09    0.99    1.43    28.25536    31.20168    96.15482
   442  H   1.0    0.12    0.99    1.43    27.27596    28.48466    94.46473
   443  N   5.0   -0.49    3.01    1.93    23.99301    29.52566    91.19707
   444  C   4.0    0.07    3.99    3.61    22.10461    27.81822    90.16735
   445  C   4.0    0.12    3.00    3.02    20.94363    28.93540    87.75556
   446  O   6.0   -0.38    1.00    1.80    20.98422    27.78924    85.75231
   447  C   4.0   -0.15    3.98    3.59    20.08630    27.20409    92.13914
   448  C   4.0   -0.11    3.97    3.58    17.65667    26.25302    90.91795
   449  C   4.0    0.32    2.99    3.02    15.90409    28.49375    90.10276
   450  O   6.0   -0.38    1.00    1.80    15.99023    30.45222    91.43308
   451  O   6.0   -0.35    1.00    1.80    14.53802    28.12940    88.22364
   452  H   1.0    0.24    1.00    1.43    23.61502    30.34675    92.87662
   453  H   1.0    0.13    0.99    1.43    23.05631    26.07387    89.56869
   454  H   1.0    0.10    0.99    1.43    20.82662    25.81788    93.47205
   455  H   1.0    0.14    0.99    1.43    19.59454    28.92232    93.18423
   456  H   1.0    0.14    0.99    1.43    18.02961    25.09710    89.25099
   457  H   1.0    0.12    0.99    1.43    16.54917    25.14086    92.25860
   458  N   5.0   -0.69    3.00    1.93    22.34608    33.32386    83.62226
   459  C   4.0    0.08    3.98    3.58    23.69133    33.89627    81.29687
   460  C   4.0    0.28    3.01    3.02    25.04710    31.53585    80.29340
   461  O   6.0   -0.46    1.00    1.80    25.81440    31.45973    78.10453
   462  C   4.0   -0.14    3.98    3.59    25.28460    36.29411    81.66240
   463  C   4.0   -0.11    3.97    3.58    25.63078    37.92803    79.28247
   464  C   4.0   -0.24    3.99    3.60    26.39547    40.59681    80.07189
   465  C   4.0   -0.21    3.98    3.59    27.62288    36.89364    77.47917
   466  H   1.0    0.30    1.00    1.43    22.90260    34.19328    85.22800
   467  H   1.0    0.12    0.99    1.43    22.22967    34.31743    79.87168
   468  H   1.0    0.11    0.99    1.43    24.23160    37.42984    83.03183
   469  H   1.0    0.12    0.99    1.43    27.10681    35.83047    82.50122
   470  H   1.0    0.11    0.99    1.43    23.79844    38.02098    78.31979
   471  H   1.0    0.10    0.99    1.43    26.81195    41.73312    78.41265
   472  H   1.0    0.10    0.99    1.43    24.87117    41.51583    81.09696
   473  H   1.0    0.09    0.99    1.43    28.06680    40.53128    81.26469
   474  H   1.0    0.10    0.99    1.43    27.87778    38.20718    75.91570
   475  H   1.0    0.11    0.99    1.43    29.38017    36.71570    78.51938
   476  H   1.0    0.15    0.99    1.43    27.03796    35.06814    76.75708
   477  N   5.0   -0.48    3.00    1.93    25.31946    29.57524    81.85899
   478  C   4.0    0.08    3.99    3.60    26.06059    27.11065    80.90398
   479  C   4.0    0.09    3.00    3.02    23.78076    25.38352    80.48322
   480  O   6.0   -0.40    1.00    1.80    23.93890    23.08839    80.42593
   481  C   4.0   -0.07    3.98    3.58    28.24952    25.92964    82.42346
   482  C   4.0   -0.15    3.98    3.59    29.66532    23.89197    80.91437
   483  C   4.0   -0.20    3.98    3.59    27.35687    24.82017    84.93193
   484  C   4.0   -0.22    3.98    3.58    30.73624    24.78647    78.39582
   485  H   1.0    0.32    1.00    1.43    24.64515    29.67424    83.64412
   486  H   1.0    0.14    0.99    1.43    26.73071    27.47678    78.96951
   487  H   1.0    0.12    0.99    1.43    29.55162    27.48619    82.83295
   488  H   1.0    0.11    0.99    1.43    31.22121    23.23566    82.09856
   489  H   1.0    0.14    0.99    1.43    28.39803    22.30014    80.61118
   490  H   1.0    0.10    0.99    1.43    28.97473    24.18042    86.02226
   491  H   1.0    0.16    0.99    1.43    26.34016    26.22533    86.02609
   492  H   1.0    0.14    0.99    1.43    26.10212    23.22765    84.60744
   493  H   1.0    0.12    0.99    1.43    31.87415    23.28148    77.58717
   494  H   1.0    0.12    0.99    1.43    29.23498    25.23481    77.06375
   495  H   1.0    0.11    0.99    1.43    31.91949    26.43606    78.69513
   496  N   5.0   -0.69    3.00    1.93    52.93340    43.48420    66.69542
   497  C   4.0    0.07    3.98    3.59    53.71281    42.81101    69.22929
   498  C   4.0    0.08    3.00    3.02    56.60426    42.65204    69.33829
   499  O   6.0   -0.38    1.00    1.80    57.86628    44.09287    70.62627
   500  C   4.0   -0.09    3.98    3.58    52.53224    40.28529    70.07621
   501  C   4.0   -0.15    3.98    3.58    49.64318    40.46824    70.29500
   502  C   4.0   -0.22    3.98    3.59    53.74128    39.36815    72.53221
   503  C   4.0   -0.22    3.98    3.58    48.67614    42.11181    72.45464
   504  H   1.0    0.27    1.00    1.43    52.98987    42.06710    65.40855
   505  H   1.0    0.13    0.99    1.43    53.13908    44.36261    70.47348
   506  H   1.0    0.11    0.99    1.43    52.92775    38.90602    68.58289
   507  H   1.0    0.11    0.99    1.43    48.91617    41.24260    68.53203
   508  H   1.0    0.12    0.99    1.43    48.90773    38.55089    70.51344
   509  H   1.0    0.10    0.99    1.43    52.84133    37.61529    73.10537
   510  H   1.0    0.12    0.99    1.43    55.74879    39.02455    72.27390
   511  H   1.0    0.11    0.99    1.43    53.51847    40.77833    74.00334
   512  H   1.0    0.14    0.99    1.43    46.62115    42.12928    72.42341
   513  H   1.0    0.11    0.99    1.43    49.31176    41.39918    74.26989
   514  H   1.0    0.10    0.99    1.43    49.30916    44.05123    72.20960
   515  H   1.0    0.29    1.00    1.43    53.54839    63.18181    87.33530
   516  H   1.0    0.14    1.00    1.43    46.23269    66.05719    77.49176
   517  H   1.0    0.30    1.00    1.43    43.89894    21.21373    75.39753
   518  H   1.0    0.14    1.00    1.43    45.57243    23.59272    82.26001
   519  H   1.0    0.30    1.00    1.43    43.83009    24.97254    87.74890
   520  H   1.0    0.14    1.00    1.43    44.13732    31.80357   106.61961
   521  H   1.0    0.29    1.00    1.43    39.04025    44.16763   114.58684
   522  H   1.0    0.13    1.00    1.43    45.59436    30.33463    71.85219
   523  H   1.0    0.30    1.00    1.43    40.78986    38.38835    70.74162
   524  H   1.0    0.13    1.00    1.43    39.16193    48.94756   100.94929
   525  H   1.0    0.30    1.00    1.43    36.42500    56.64455    95.89546
   526  H   1.0    0.13    1.00    1.43    34.06938    48.62604    70.22201
   527  H   1.0    0.30    1.00    1.43    21.82933    46.47624    89.06910
   528  H   1.0    0.14    1.00    1.43    26.17978    51.45860    89.48359
   529  H   1.0    0.30    1.00    1.43    19.90614    37.18844    94.52031
   530  H   1.0    0.17    1.00    1.43    20.12934    30.64009    87.80087
   531  H   1.0    0.31    1.00    1.43    20.70635    33.73982    83.44666
   532  H   1.0    0.17    1.00    1.43    22.06199    26.13015    80.23937
   533  H   1.0    0.30    1.00    1.43    51.32605    44.03930    66.72448
   534  H   1.0    0.14    1.00    1.43    57.51679    41.33700    68.33380

           ------------------------------------------------- 
          |        Self-Consistent Charge Iterations        |
           ------------------------------------------------- 

          ...................................................
          :                      SETUP                      :
          :.................................................:
          :  # basis functions                1284          :
          :  # atomic orbitals                1282          :
          :  # shells                          782          :
          :  # electrons                      1398          :
          :  max. iterations                   250          :
          :  Hamiltonian                  GFN2-xTB          :
          :  restarted?                      false          :
          :  GBSA solvation                   true          :
          :  PC potential                    false          :
          :  electronic temp.          500.0000000     K    :
          :  accuracy                    0.1000000          :
          :  -> integral cutoff          0.3500000E+02      :
          :  -> integral neglect         0.1000000E-08      :
          :  -> SCF convergence          0.1000000E-06 Eh   :
          :  -> wf. convergence          0.1000000E-04 e    :
          :  Broyden damping             0.4000000          :
          ...................................................

 iter      E             dE          RMSdq      gap      omega  full diag
   1   -794.8823050 -0.794882E+03  0.415E+00    1.73       0.0  T
   2   -796.9587271 -0.207642E+01  0.213E+00    1.34       1.0  T
   3   -797.0374452 -0.787181E-01  0.116E+00    1.64       1.0  T
   4   -797.0717594 -0.343141E-01  0.292E-01    0.98       1.0  T
   5   -797.0934983 -0.217389E-01  0.121E-01    1.14       1.0  T
   6   -797.0944089 -0.910572E-03  0.552E-02    1.15       1.0  T
   7   -797.0945719 -0.163076E-03  0.269E-02    1.15       1.0  T
   8   -797.0946824 -0.110428E-03  0.120E-02    1.15       1.0  T
   9   -797.0946946 -0.121875E-04  0.629E-03    1.14       1.0  T
  10   -797.0946987 -0.414180E-05  0.282E-03    1.14       1.5  T
  11   -797.0946994 -0.676457E-06  0.133E-03    1.14       3.2  T
  12   -797.0946995 -0.174583E-06  0.639E-04    1.14       6.8  T
  13   -797.0946996 -0.501129E-07  0.303E-04    1.14      14.3  T
  14   -797.0946996 -0.796035E-08  0.134E-04    1.14      32.3  T
  15   -797.0946996 -0.186185E-08  0.586E-05    1.14      73.8  T
  16   -797.0946996 -0.370505E-09  0.276E-05    1.14     157.1  T

   *** convergence criteria satisfied after 16 iterations ***

         #    Occupation            Energy/Eh            Energy/eV
      -------------------------------------------------------------
         1        2.0000           -0.7436028             -20.2345
       ...           ...                  ...                  ...
       693        2.0000           -0.3590028              -9.7690
       694        2.0000           -0.3577676              -9.7354
       695        2.0000           -0.3568280              -9.7098
       696        2.0000           -0.3558185              -9.6823
       697        2.0000           -0.3527530              -9.5989
       698        2.0000           -0.3471164              -9.4455
       699        2.0000           -0.3466871              -9.4338 (HOMO)
       700        0.0000           -0.3047314              -8.2922 (LUMO)
       701        0.0000           -0.3004235              -8.1749
       702        0.0000           -0.2992533              -8.1431
       703                         -0.2952972              -8.0354
       704                         -0.2837305              -7.7207
       ...                                ...                  ...
      1282                          0.6726722              18.3043
      -------------------------------------------------------------
                  HL-Gap            0.0419558 Eh            1.1417 eV
             Fermi-level           -0.3253233 Eh           -8.8525 eV

 SCC (total)                   0 d,  0 h,  0 min, 12.602 sec
 SCC setup                      ...        0 min,  0.401 sec (  3.178%)
 Dispersion                     ...        0 min,  0.274 sec (  2.170%)
 integral evaluation            ...        0 min,  0.998 sec (  7.918%)
 zeroth order Hamiltonian       ...        0 min,  0.026 sec (  0.206%)
 iterations                     ...        0 min,  9.144 sec ( 72.559%)
 molecular gradient             ...        0 min,  1.711 sec ( 13.581%)
 printout                       ...        0 min,  0.049 sec (  0.385%)

         :::::::::::::::::::::::::::::::::::::::::::::::::::::
         ::                     SUMMARY                     ::
         :::::::::::::::::::::::::::::::::::::::::::::::::::::
         :: total energy             -787.150795295465 Eh   ::
         :: total w/o Gsasa/hb       -787.056714624246 Eh   ::
         :: gradient norm               0.706971824206 Eh/α ::
         :: HOMO-LUMO gap               1.141674534020 eV   ::
         ::.................................................::
         :: SCC energy               -797.116709481342 Eh   ::
         :: -> isotropic ES             2.297250761957 Eh   ::
         :: -> anisotropic ES          -0.079917437909 Eh   ::
         :: -> anisotropic XC           0.296802096562 Eh   ::
         :: -> dispersion              -0.656854870762 Eh   ::
         :: -> Gsolv                   -0.651829416691 Eh   ::
         ::    -> Gborn                -0.557748745472 Eh   ::
         ::    -> Gsasa                -0.023867315392 Eh   ::
         ::    -> Ghb                  -0.072070798954 Eh   ::
         ::    -> Gshift                0.001857443127 Eh   ::
         :: repulsion energy            9.901573545152 Eh   ::
         :: add. restraining            0.000000000000 Eh   ::
         :::::::::::::::::::::::::::::::::::::::::::::::::::::

           -------------------------------------------------
          |                Property Printout                |
           -------------------------------------------------

    * Orbital Energies and Occupations

         #    Occupation            Energy/Eh            Energy/eV
      -------------------------------------------------------------
         1        2.0000           -0.7436028             -20.2345
       ...           ...                  ...                  ...
       687        2.0000           -0.3707500             -10.0886
       688        2.0000           -0.3702839             -10.0759
       689        2.0000           -0.3692790             -10.0486
       690        2.0000           -0.3678118             -10.0087
       691        2.0000           -0.3615975              -9.8396
       692        2.0000           -0.3594256              -9.7805
       693        2.0000           -0.3590028              -9.7690
       694        2.0000           -0.3577676              -9.7354
       695        2.0000           -0.3568280              -9.7098
       696        2.0000           -0.3558185              -9.6823
       697        2.0000           -0.3527530              -9.5989
       698        2.0000           -0.3471164              -9.4455
       699        2.0000           -0.3466871              -9.4338 (HOMO)
       700        0.0000           -0.3047314              -8.2922 (LUMO)
       701        0.0000           -0.3004235              -8.1749
       702        0.0000           -0.2992533              -8.1431
       703                         -0.2952972              -8.0354
       704                         -0.2837305              -7.7207
       705                         -0.2834943              -7.7143
       706                         -0.2833815              -7.7112
       707                         -0.2793684              -7.6020
       708                         -0.2738997              -7.4532
       709                         -0.2706193              -7.3639
       710                         -0.2394497              -6.5158
       ...                                ...                  ...
      1282                          0.6726722              18.3043
      -------------------------------------------------------------
                  HL-Gap            0.0419558 Eh            1.1417 eV
             Fermi-level           -0.3253233 Eh           -8.8525 eV

   #   Z        covCN         q      C6AA      α(0)
   1   7 N      2.637    -0.388    30.037     8.140
   2   6 C      3.784     0.014    20.352     6.426
   3   6 C      2.758     0.283    22.210     7.718
   4   8 O      0.859    -0.475    23.235     6.463
   5   6 C      3.724     0.113    18.824     6.195
   6   8 O      1.654    -0.501    22.905     6.461
   7   6 C      3.752    -0.117    22.800     6.809
   8   1 H      0.860     0.172     1.262     1.760
   9   1 H      0.924     0.043     2.407     2.426
  10   1 H      0.924     0.020     2.739     2.588
  11   1 H      0.805     0.336     0.623     1.240
  12   1 H      0.925     0.052     2.294     2.369
  13   1 H      0.925     0.053     2.287     2.365
  14   1 H      0.925     0.057     2.229     2.335
  15   7 N      2.691    -0.171    24.703     7.382
  16   6 C      3.788     0.011    20.398     6.433
  17   6 C      2.765     0.199    23.770     7.984
  18   8 O      0.856    -0.359    20.888     6.128
  19   6 C      3.675     0.063    19.739     6.366
  20   8 O      1.655    -0.464    22.125     6.350
  21   1 H      0.860     0.220     1.011     1.575
  22   1 H      0.924     0.097     1.816     2.107
  23   1 H      0.923     0.053     2.287     2.365
  24   1 H      0.924     0.081     1.968     2.194
  25   1 H      0.804     0.341     0.611     1.228
  26   7 N      2.637    -0.381    29.854     8.115
  27   6 C      3.782     0.033    20.045     6.378
  28   6 C      2.766     0.205    23.636     7.962
  29   8 O      0.856    -0.380    21.284     6.185
  30   6 C      3.829    -0.061    21.642     6.619
  31   6 C      3.796    -0.020    20.932     6.515
  32  16 S      1.964    -0.226   150.735    20.664
  33   6 C      3.744    -0.055    21.640     6.636
  34   1 H      0.860     0.155     1.366     1.831
  35   1 H      0.925     0.075     2.034     2.231
  36   1 H      0.924     0.052     2.296     2.370
  37   1 H      0.924     0.034     2.530     2.487
  38   1 H      0.925     0.060     2.201     2.320
  39   1 H      0.925     0.070     2.081     2.256
  40   1 H      0.925     0.054     2.276     2.359
  41   1 H      0.925     0.073     2.058     2.243
  42   1 H      0.925     0.035     2.510     2.477
  43   7 N      2.636    -0.388    30.029     8.139
  44   6 C      3.791     0.029    20.102     6.385
  45   6 C      2.756     0.280    22.263     7.727
  46   8 O      0.858    -0.512    24.050     6.575
  47   6 C      3.810    -0.081    22.029     6.681
  48   6 C      2.968    -0.003    28.100     8.695
  49   6 C      2.926    -0.048    29.184     8.859
  50   6 C      2.924    -0.036    28.907     8.817
  51   6 C      2.919    -0.064    29.584     8.919
  52   6 C      2.918    -0.075    29.877     8.963
  53   6 C      2.847     0.142    24.906     8.179
  54   8 O      1.659    -0.431    21.466     6.255
  55   1 H      0.860     0.149     1.409     1.859
  56   1 H      0.924     0.053     2.279     2.361
  57   1 H      0.925     0.064     2.152     2.294
  58   1 H      0.925     0.066     2.126     2.280
  59   1 H      0.926     0.041     2.430     2.438
  60   1 H      0.926     0.034     2.525     2.485
  61   1 H      0.926     0.058     2.222     2.331
  62   1 H      0.926     0.034     2.534     2.490
  63   1 H      0.805     0.342     0.607     1.223
  64   7 N      2.699    -0.182    24.950     7.419
  65   6 C      3.797     0.026    20.146     6.391
  66   6 C      2.760     0.270    22.434     7.756
  67   8 O      0.858    -0.471    23.160     6.452
  68   6 C      3.804    -0.045    21.382     6.583
  69   6 C      3.797    -0.084    22.112     6.696
  70   6 C      2.684     0.371    20.715     7.448
  71   8 O      0.856    -0.654    27.492     7.030
  72   8 O      0.856    -0.647    27.296     7.005
  73   1 H      0.860     0.218     1.017     1.579
  74   1 H      0.924     0.059     2.208     2.324
  75   1 H      0.924     0.021     2.715     2.577
  76   1 H      0.924     0.043     2.416     2.431
  77   1 H      0.924     0.027     2.632     2.537
  78   1 H      0.924     0.008     2.923     2.674
  79   7 N      2.696    -0.164    24.541     7.357
  80   6 C      3.792     0.022    20.214     6.403
  81   6 C      2.771     0.203    23.687     7.971
  82   8 O      0.856    -0.373    21.144     6.165
  83   6 C      3.807    -0.076    21.942     6.668
  84   6 C      3.805    -0.076    21.957     6.671
  85   6 C      3.803    -0.095    22.313     6.725
  86   6 C      3.733    -0.052    21.603     6.634
  87   7 N      3.483    -0.145    24.120     7.294
  88   1 H      0.860     0.202     1.093     1.638
  89   1 H      0.924     0.099     1.795     2.095
  90   1 H      0.924     0.081     1.972     2.196
  91   1 H      0.924     0.065     2.144     2.290
  92   1 H      0.924     0.057     2.230     2.335
  93   1 H      0.925     0.068     2.110     2.272
  94   1 H      0.924     0.084     1.935     2.175
  95   1 H      0.924     0.075     2.027     2.227
  96   1 H      0.924     0.123     1.591     1.972
  97   1 H      0.925     0.123     1.588     1.971
  98   1 H      0.859     0.300     0.712     1.322
  99   1 H      0.859     0.300     0.715     1.324
 100   1 H      0.859     0.294     0.732     1.340
 101   7 N      2.635    -0.395    30.246     8.168
 102   6 C      3.786     0.025    20.165     6.396
 103   6 C      2.751     0.278    22.289     7.731
 104   8 O      0.858    -0.483    23.417     6.488
 105   6 C      3.808    -0.071    21.851     6.654
 106   6 C      3.805    -0.096    22.334     6.728
 107   6 C      2.750     0.285    22.177     7.711
 108   8 O      0.859    -0.477    23.276     6.468
 109   7 N      2.639    -0.288    27.425     7.778
 110   1 H      0.860     0.159     1.341     1.814
 111   1 H      0.924     0.043     2.404     2.425
 112   1 H      0.925     0.056     2.243     2.342
 113   1 H      0.924     0.051     2.311     2.377
 114   1 H      0.925     0.053     2.283     2.363
 115   1 H      0.924     0.060     2.200     2.320
 116   1 H      0.860     0.215     1.034     1.593
 117   1 H      0.860     0.234     0.947     1.525
 118   7 N      2.694    -0.178    24.856     7.405
 119   6 C      3.795     0.007    20.459     6.441
 120   6 C      2.761     0.270    22.444     7.758
 121   8 O      0.858    -0.487    23.490     6.498
 122   6 C      3.855    -0.019    20.880     6.499
 123   6 C      3.802    -0.060    21.646     6.624
 124   6 C      3.755    -0.106    22.588     6.777
 125   6 C      3.751    -0.109    22.652     6.787
 126   1 H      0.860     0.205     1.081     1.629
 127   1 H      0.924     0.082     1.963     2.191
 128   1 H      0.924     0.042     2.416     2.431
 129   1 H      0.924     0.040     2.442     2.444
 130   1 H      0.924     0.037     2.492     2.469
 131   1 H      0.925     0.050     2.323     2.384
 132   1 H      0.925     0.021     2.718     2.578
 133   1 H      0.925     0.044     2.390     2.418
 134   1 H      0.925     0.043     2.409     2.427
 135   1 H      0.925     0.037     2.490     2.467
 136   1 H      0.925     0.037     2.494     2.470
 137   7 N      2.692    -0.173    24.754     7.389
 138   6 C      3.805     0.010    20.411     6.432
 139   6 C      2.754     0.271    22.428     7.755
 140   8 O      0.858    -0.472    23.165     6.453
 141   6 C      3.851    -0.022    20.923     6.506
 142   6 C      3.757    -0.131    23.073     6.848
 143   6 C      3.756    -0.125    22.953     6.831
 144   1 H      0.860     0.221     1.005     1.570
 145   1 H      0.924     0.073     2.058     2.243
 146   1 H      0.924     0.048     2.344     2.394
 147   1 H      0.925     0.079     1.989     2.205
 148   1 H      0.925     0.036     2.504     2.475
 149   1 H      0.925     0.052     2.293     2.368
 150   1 H      0.925     0.069     2.099     2.266
 151   1 H      0.925     0.058     2.221     2.331
 152   1 H      0.925     0.039     2.462     2.454
 153   7 N      2.698    -0.176    24.808     7.397
 154   6 C      3.789     0.022    20.224     6.405
 155   6 C      2.761     0.265    22.522     7.772
 156   8 O      0.858    -0.494    23.656     6.521
 157   6 C      3.809    -0.094    22.279     6.719
 158   6 C      2.742     0.291    22.070     7.692
 159   8 O      0.859    -0.504    23.880     6.552
 160   7 N      2.638    -0.285    27.346     7.766
 161   1 H      0.860     0.214     1.039     1.597
 162   1 H      0.924     0.082     1.954     2.186
 163   1 H      0.924     0.052     2.291     2.367
 164   1 H      0.924     0.068     2.110     2.271
 165   1 H      0.860     0.249     0.887     1.475
 166   1 H      0.861     0.219     1.013     1.577
 167   7 N      2.688    -0.166    24.582     7.364
 168   6 C      3.799     0.008    20.440     6.437
 169   6 C      2.757     0.267    22.490     7.766
 170   8 O      0.859    -0.457    22.850     6.409
 171   6 C      3.809    -0.081    22.048     6.684
 172   6 C      2.968     0.003    27.967     8.674
 173   6 C      2.924    -0.051    29.254     8.870
 174   6 C      2.925    -0.041    29.022     8.835
 175   6 C      2.920    -0.046    29.139     8.852
 176   6 C      2.919    -0.031    28.783     8.798
 177   6 C      2.918    -0.041    29.022     8.834
 178   1 H      0.860     0.241     0.919     1.502
 179   1 H      0.924     0.072     2.060     2.245
 180   1 H      0.924     0.061     2.186     2.312
 181   1 H      0.925     0.077     2.006     2.215
 182   1 H      0.926     0.055     2.263     2.352
 183   1 H      0.926     0.036     2.500     2.473
 184   1 H      0.926     0.064     2.148     2.292
 185   1 H      0.926     0.029     2.602     2.522
 186   1 H      0.926     0.052     2.293     2.368
 187   7 N      2.691    -0.151    24.276     7.318
 188   6 C      3.797    -0.003    20.639     6.469
 189   6 C      2.761     0.268    22.475     7.764
 190   8 O      0.858    -0.476    23.264     6.467
 191   6 C      3.807    -0.088    22.172     6.703
 192   6 C      3.800    -0.079    22.010     6.680
 193   6 C      3.802    -0.094    22.288     6.721
 194   6 C      3.730    -0.049    21.549     6.627
 195   7 N      3.481    -0.168    24.616     7.369
 196   1 H      0.860     0.199     1.112     1.652
 197   1 H      0.924     0.104     1.751     2.069
 198   1 H      0.924     0.074     2.045     2.236
 199   1 H      0.924     0.058     2.228     2.334
 200   1 H      0.924     0.050     2.321     2.382
 201   1 H      0.924     0.072     2.066     2.248
 202   1 H      0.925     0.079     1.992     2.207
 203   1 H      0.925     0.079     1.988     2.205
 204   1 H      0.925     0.107     1.720     2.051
 205   1 H      0.925     0.107     1.722     2.052
 206   1 H      0.859     0.282     0.769     1.374
 207   1 H      0.859     0.285     0.760     1.366
 208   1 H      0.856     0.305     0.699     1.310
 209   7 N      2.689    -0.164    24.554     7.359
 210   6 C      3.795     0.015    20.326     6.420
 211   6 C      2.766     0.191    23.912     8.008
 212   8 O      0.856    -0.343    20.570     6.081
 213   6 C      3.804    -0.075    21.936     6.668
 214   6 C      3.809    -0.111    22.611     6.769
 215   6 C      2.743     0.285    22.163     7.708
 216   8 O      0.859    -0.511    24.033     6.573
 217   7 N      2.639    -0.269    26.954     7.711
 218   1 H      0.860     0.236     0.938     1.517
 219   1 H      0.924     0.095     1.835     2.118
 220   1 H      0.925     0.093     1.854     2.129
 221   1 H      0.924     0.068     2.106     2.270
 222   1 H      0.925     0.067     2.119     2.277
 223   1 H      0.924     0.087     1.911     2.162
 224   1 H      0.860     0.226     0.983     1.553
 225   1 H      0.860     0.223     0.996     1.563
 226   7 N      2.637    -0.387    30.011     8.136
 227   6 C      3.786     0.018    20.285     6.415
 228   6 C      2.758     0.267    22.500     7.768
 229   8 O      0.859    -0.463    22.975     6.427
 230   6 C      3.806    -0.087    22.145     6.699
 231   6 C      3.800    -0.084    22.105     6.694
 232   6 C      3.741    -0.035    21.267     6.580
 233   7 N      2.697    -0.142    24.066     7.286
 234   6 C      2.737     0.218    23.393     7.919
 235   7 N      2.651    -0.237    26.198     7.602
 236   7 N      2.651    -0.226    25.946     7.565
 237   1 H      0.860     0.172     1.259     1.758
 238   1 H      0.924     0.048     2.349     2.397
 239   1 H      0.924     0.047     2.359     2.402
 240   1 H      0.925     0.051     2.313     2.378
 241   1 H      0.924     0.072     2.064     2.247
 242   1 H      0.925     0.076     2.026     2.226
 243   1 H      0.924     0.082     1.959     2.189
 244   1 H      0.924     0.087     1.909     2.161
 245   1 H      0.860     0.236     0.938     1.517
 246   1 H      0.860     0.244     0.907     1.492
 247   1 H      0.860     0.237     0.936     1.516
 248   1 H      0.860     0.244     0.907     1.492
 249   1 H      0.860     0.232     0.955     1.531
 250   7 N      2.693    -0.165    24.565     7.361
 251   6 C      3.799    -0.003    20.632     6.467
 252   6 C      2.755     0.265    22.531     7.773
 253   8 O      0.858    -0.493    23.630     6.517
 254   6 C      3.802    -0.088    22.180     6.705
 255   6 C      3.806    -0.116    22.717     6.785
 256   6 C      2.743     0.278    22.301     7.732
 257   8 O      0.861    -0.509    23.993     6.567
 258   7 N      2.637    -0.252    26.559     7.654
 259   1 H      0.860     0.188     1.170     1.694
 260   1 H      0.924     0.101     1.773     2.082
 261   1 H      0.924     0.082     1.956     2.187
 262   1 H      0.924     0.062     2.179     2.308
 263   1 H      0.924     0.091     1.870     2.139
 264   1 H      0.924     0.111     1.692     2.034
 265   1 H      0.860     0.221     1.003     1.569
 266   1 H      0.860     0.245     0.904     1.489
 267   7 N      2.697    -0.170    24.675     7.378
 268   6 C      3.800     0.007    20.456     6.440
 269   6 C      2.760     0.271    22.427     7.755
 270   8 O      0.858    -0.476    23.251     6.465
 271   6 C      3.855    -0.023    20.955     6.511
 272   6 C      3.756    -0.123    22.912     6.825
 273   6 C      3.755    -0.127    22.993     6.837
 274   1 H      0.860     0.247     0.894     1.481
 275   1 H      0.924     0.073     2.054     2.241
 276   1 H      0.924     0.057     2.233     2.337
 277   1 H      0.925     0.066     2.129     2.282
 278   1 H      0.925     0.029     2.606     2.524
 279   1 H      0.925     0.046     2.368     2.407
 280   1 H      0.925     0.065     2.139     2.287
 281   1 H      0.925     0.049     2.327     2.385
 282   1 H      0.925     0.052     2.300     2.372
 283   7 N      2.695    -0.164    24.549     7.359
 284   6 C      3.801     0.017    20.293     6.414
 285   6 C      2.759     0.267    22.500     7.768
 286   8 O      0.858    -0.474    23.208     6.459
 287   6 C      3.814    -0.071    21.851     6.653
 288   6 C      2.973    -0.001    28.056     8.688
 289   6 C      2.928    -0.040    28.996     8.831
 290   6 C      2.924    -0.046    29.146     8.853
 291   6 C      2.919    -0.064    29.587     8.920
 292   6 C      2.920    -0.082    30.061     8.991
 293   6 C      2.846     0.142    24.894     8.177
 294   8 O      1.658    -0.437    21.570     6.270
 295   1 H      0.860     0.216     1.030     1.590
 296   1 H      0.924     0.080     1.975     2.198
 297   1 H      0.925     0.065     2.144     2.290
 298   1 H      0.924     0.045     2.382     2.414
 299   1 H      0.926     0.022     2.700     2.570
 300   1 H      0.926     0.051     2.307     2.375
 301   1 H      0.926     0.042     2.428     2.436
 302   1 H      0.926     0.059     2.206     2.322
 303   1 H      0.803     0.357     0.573     1.189
 304   7 N      2.693    -0.171    24.710     7.383
 305   6 C      3.790     0.026    20.152     6.393
 306   6 C      2.770     0.203    23.688     7.971
 307   8 O      0.856    -0.351    20.728     6.104
 308   6 C      3.807    -0.073    21.889     6.660
 309   6 C      3.849    -0.011    20.744     6.478
 310   6 C      3.756    -0.116    22.776     6.805
 311   6 C      3.756    -0.119    22.825     6.812
 312   1 H      0.860     0.221     1.005     1.571
 313   1 H      0.924     0.084     1.934     2.175
 314   1 H      0.924     0.070     2.088     2.260
 315   1 H      0.924     0.065     2.143     2.289
 316   1 H      0.924     0.028     2.617     2.530
 317   1 H      0.925     0.043     2.406     2.426
 318   1 H      0.925     0.029     2.607     2.525
 319   1 H      0.925     0.050     2.322     2.383
 320   1 H      0.925     0.046     2.365     2.405
 321   1 H      0.925     0.045     2.387     2.416
 322   1 H      0.925     0.054     2.275     2.359
 323   7 N      2.637    -0.401    30.389     8.187
 324   6 C      3.786     0.027    20.131     6.391
 325   6 C      2.761     0.275    22.355     7.743
 326   8 O      0.858    -0.500    23.792     6.540
 327   6 C      3.758    -0.111    22.673     6.789
 328   1 H      0.860     0.157     1.357     1.825
 329   1 H      0.924     0.063     2.167     2.302
 330   1 H      0.925     0.048     2.349     2.397
 331   1 H      0.925     0.050     2.322     2.383
 332   1 H      0.925     0.031     2.566     2.505
 333   7 N      2.691    -0.178    24.847     7.403
 334   6 C      3.796     0.017    20.296     6.415
 335   6 C      2.755     0.268    22.475     7.763
 336   8 O      0.858    -0.467    23.060     6.438
 337   6 C      3.850    -0.016    20.823     6.491
 338   6 C      3.755    -0.112    22.705     6.794
 339   6 C      3.755    -0.118    22.813     6.810
 340   1 H      0.860     0.214     1.038     1.596
 341   1 H      0.924     0.056     2.246     2.344
 342   1 H      0.924     0.039     2.469     2.457
 343   1 H      0.925     0.050     2.321     2.382
 344   1 H      0.925     0.041     2.432     2.439
 345   1 H      0.925     0.043     2.407     2.426
 346   1 H      0.925     0.058     2.218     2.329
 347   1 H      0.925     0.048     2.343     2.394
 348   1 H      0.925     0.046     2.364     2.405
 349   7 N      2.695    -0.169    24.658     7.375
 350   6 C      3.795     0.008    20.445     6.439
 351   6 C      2.758     0.270    22.438     7.757
 352   8 O      0.858    -0.492    23.605     6.514
 353   6 C      3.851    -0.023    20.950     6.510
 354   6 C      3.802    -0.067    21.788     6.645
 355   6 C      3.754    -0.119    22.846     6.816
 356   6 C      3.752    -0.119    22.834     6.814
 357   1 H      0.860     0.194     1.137     1.671
 358   1 H      0.924     0.092     1.864     2.135
 359   1 H      0.924     0.049     2.337     2.391
 360   1 H      0.924     0.051     2.313     2.378
 361   1 H      0.924     0.030     2.588     2.516
 362   1 H      0.925     0.045     2.384     2.414
 363   1 H      0.925     0.030     2.591     2.517
 364   1 H      0.925     0.057     2.230     2.335
 365   1 H      0.925     0.061     2.187     2.313
 366   1 H      0.925     0.046     2.376     2.410
 367   1 H      0.925     0.041     2.430     2.438
 368   7 N      2.690    -0.199    25.334     7.475
 369   6 C      3.796     0.012    20.385     6.429
 370   6 C      2.749     0.265    22.535     7.773
 371   8 O      0.858    -0.438    22.463     6.355
 372   6 C      3.809    -0.079    21.997     6.676
 373   6 C      3.848    -0.013    20.774     6.483
 374   6 C      3.756    -0.114    22.727     6.797
 375   6 C      3.758    -0.125    22.944     6.829
 376   1 H      0.860     0.240     0.922     1.504
 377   1 H      0.924     0.077     2.006     2.215
 378   1 H      0.924     0.058     2.219     2.330
 379   1 H      0.925     0.068     2.105     2.269
 380   1 H      0.924     0.045     2.378     2.412
 381   1 H      0.925     0.037     2.489     2.467
 382   1 H      0.925     0.024     2.668     2.554
 383   1 H      0.925     0.040     2.445     2.445
 384   1 H      0.925     0.043     2.406     2.425
 385   1 H      0.925     0.047     2.362     2.403
 386   1 H      0.925     0.056     2.252     2.347
 387   7 N      2.690    -0.166    24.592     7.365
 388   6 C      3.736    -0.033    21.252     6.579
 389   6 C      2.764     0.197    23.792     7.988
 390   8 O      0.856    -0.363    20.963     6.138
 391   1 H      0.860     0.187     1.174     1.697
 392   1 H      0.924     0.116     1.643     2.004
 393   1 H      0.924     0.110     1.700     2.039
 394   7 N      2.636    -0.395    30.234     8.166
 395   6 C      3.786     0.040    19.917     6.357
 396   6 C      2.764     0.202    23.707     7.974
 397   8 O      0.856    -0.376    21.208     6.174
 398   6 C      3.854    -0.016    20.815     6.489
 399   6 C      3.758    -0.117    22.790     6.806
 400   6 C      3.757    -0.112    22.694     6.792
 401   1 H      0.860     0.166     1.299     1.785
 402   1 H      0.924     0.045     2.381     2.413
 403   1 H      0.924     0.038     2.473     2.459
 404   1 H      0.925     0.058     2.219     2.329
 405   1 H      0.925     0.024     2.666     2.553
 406   1 H      0.925     0.060     2.197     2.318
 407   1 H      0.925     0.066     2.133     2.284
 408   1 H      0.925     0.045     2.387     2.416
 409   1 H      0.925     0.028     2.615     2.529
 410   7 N      2.637    -0.404    30.482     8.200
 411   6 C      3.786     0.036    19.990     6.368
 412   6 C      2.761     0.278    22.304     7.734
 413   8 O      0.859    -0.499    23.768     6.536
 414   6 C      3.827    -0.074    21.883     6.656
 415   6 C      3.796    -0.011    20.783     6.491
 416  16 S      1.965    -0.216   150.271    20.632
 417   6 C      3.744    -0.072    21.956     6.684
 418   1 H      0.859     0.160     1.337     1.811
 419   1 H      0.923     0.039     2.459     2.452
 420   1 H      0.924     0.048     2.350     2.397
 421   1 H      0.925     0.053     2.283     2.363
 422   1 H      0.925     0.031     2.577     2.510
 423   1 H      0.925     0.059     2.216     2.328
 424   1 H      0.926     0.083     1.952     2.185
 425   1 H      0.925     0.064     2.149     2.293
 426   1 H      0.925     0.064     2.157     2.297
 427   7 N      2.688    -0.169    24.653     7.374
 428   6 C      3.802     0.012    20.366     6.425
 429   6 C      2.757     0.278    22.303     7.734
 430   8 O      0.859    -0.458    22.872     6.412
 431   6 C      3.850    -0.024    20.964     6.512
 432   6 C      3.756    -0.129    23.029     6.842
 433   6 C      3.754    -0.131    23.081     6.851
 434   1 H      0.860     0.207     1.073     1.622
 435   1 H      0.924     0.096     1.826     2.113
 436   1 H      0.924     0.057     2.236     2.338
 437   1 H      0.925     0.065     2.136     2.286
 438   1 H      0.925     0.057     2.229     2.335
 439   1 H      0.925     0.059     2.216     2.328
 440   1 H      0.925     0.072     2.060     2.244
 441   1 H      0.925     0.053     2.288     2.365
 442   1 H      0.925     0.039     2.461     2.453
 443   7 N      2.688    -0.184    24.982     7.423
 444   6 C      3.795     0.036    19.983     6.366
 445   6 C      2.764     0.228    23.206     7.889
 446   8 O      0.856    -0.369    21.071     6.154
 447   6 C      3.805    -0.065    21.746     6.639
 448   6 C      3.798    -0.094    22.304     6.724
 449   6 C      2.683     0.367    20.771     7.458
 450   8 O      0.856    -0.642    27.186     6.991
 451   8 O      0.856    -0.658    27.592     7.043
 452   1 H      0.860     0.205     1.079     1.627
 453   1 H      0.923     0.079     1.990     2.206
 454   1 H      0.924     0.066     2.127     2.281
 455   1 H      0.924     0.064     2.148     2.292
 456   1 H      0.924     0.014     2.826     2.629
 457   1 H      0.924     0.029     2.602     2.523
 458   7 N      2.635    -0.399    30.342     8.181
 459   6 C      3.782     0.038    19.953     6.363
 460   6 C      2.755     0.261    22.600     7.785
 461   8 O      0.859    -0.486    23.473     6.496
 462   6 C      3.806    -0.069    21.812     6.649
 463   6 C      3.848    -0.012    20.752     6.480
 464   6 C      3.759    -0.120    22.842     6.814
 465   6 C      3.757    -0.141    23.272     6.878
 466   1 H      0.860     0.156     1.360     1.827
 467   1 H      0.923     0.032     2.557     2.501
 468   1 H      0.924     0.038     2.482     2.464
 469   1 H      0.925     0.054     2.275     2.359
 470   1 H      0.924     0.015     2.808     2.621
 471   1 H      0.925     0.051     2.313     2.378
 472   1 H      0.925     0.024     2.676     2.558
 473   1 H      0.925     0.053     2.288     2.365
 474   1 H      0.925     0.051     2.303     2.373
 475   1 H      0.925     0.054     2.270     2.356
[...]
   193  C   3.986        C  194 1.007    C  192 1.005    H  202 0.970    H  203 0.962
   194  C   3.918        C  193 1.007    H  205 0.968    H  204 0.963    N  195 0.960
   195  N   3.646        C  194 0.960    H  206 0.906    H  207 0.905    H  208 0.811
   196  H   0.960        N  187 0.925
   197  H   0.989        C  188 0.945
   198  H   0.994        C  191 0.965
   199  H   0.997        C  191 0.975
   200  H   0.997        C  192 0.978
   201  H   0.995        C  192 0.969
   202  H   0.993        C  193 0.970
   203  H   0.994        C  193 0.962
   204  H   0.988        C  194 0.963
   205  H   0.988        C  194 0.968
   206  H   0.920        N  195 0.906
   207  H   0.919        N  195 0.905
   208  H   0.907        N  195 0.811
   209  N   3.467        C  189 1.289    C  210 0.997    H  218 0.893    O  190 0.201
   210  C   3.971        N  209 0.997    C  211 0.980    C  213 0.946    H  219 0.939
   211  C   3.906        O  212 1.900    C  210 0.980    H  522 0.953
   212  O   2.061        C  211 1.900
   213  C   3.984        C  214 0.993    H  221 0.971    H  220 0.966    C  210 0.946
   214  C   3.990        C  213 0.993    C  215 0.965    H  222 0.961    H  223 0.952
   215  C   3.943        O  216 1.635    N  217 1.310    C  214 0.965
   216  O   1.945        C  215 1.635    N  217 0.201
   217  N   3.405        C  215 1.310    H  225 0.927    H  224 0.926    O  216 0.201
   218  H   0.944        N  209 0.893
   219  H   0.991        C  210 0.939
   220  H   0.991        C  213 0.966
   221  H   0.995        C  213 0.971
   222  H   0.995        C  214 0.961
   223  H   0.992        C  214 0.952
   224  H   0.949        N  217 0.926
   225  H   0.950        N  217 0.927
   226  N   2.994        C  227 1.021    H  523 0.950    H  237 0.940
   227  C   3.986        N  226 1.021    C  230 0.962    C  228 0.951    H  238 0.951
   228  C   3.943        O  229 1.632    N  250 1.285    C  227 0.951
   229  O   1.976        C  228 1.632    N  250 0.191
   230  C   3.993        C  231 1.007    H  239 0.975    H  240 0.968    C  227 0.962
   231  C   3.988        C  230 1.007    C  232 0.995    H  242 0.971    H  241 0.969
   232  C   3.948        C  231 0.995    N  233 0.977    H  244 0.966    H  243 0.960
   233  N   3.455        C  234 1.308    C  232 0.977    H  245 0.916    N  235 0.101
   234  C   3.977        N  235 1.321    N  236 1.313    N  233 1.308
   235  N   3.399        C  234 1.321    H  246 0.918    H  247 0.909    N  233 0.101    N  236 0.100
   236  N   3.402        C  234 1.313    H  249 0.925    H  248 0.914    N  235 0.100
   237  H   0.970        N  226 0.940
   238  H   0.997        C  227 0.951
   239  H   0.998        C  230 0.975
   240  H   0.997        C  230 0.968
   241  H   0.995        C  231 0.969
   242  H   0.994        C  231 0.971
   243  H   0.993        C  232 0.960
   244  H   0.992        C  232 0.966
   245  H   0.944        N  233 0.916
   246  H   0.940        N  235 0.918
   247  H   0.944        N  235 0.909
   248  H   0.940        N  236 0.914
   249  H   0.946        N  236 0.925
   250  N   3.471        C  228 1.285    C  251 0.987    H  259 0.925    O  229 0.191
   251  C   3.962        N  250 0.987    C  254 0.968    H  260 0.944    C  252 0.932
   252  C   3.949        O  253 1.588    N  267 1.344    C  251 0.932
   253  O   1.968        C  252 1.588    N  267 0.201
   254  C   3.988        C  255 1.010    H  262 0.972    C  251 0.968    H  261 0.963
   255  C   3.988        C  254 1.010    C  256 0.991    H  263 0.943    H  264 0.931
   256  C   3.943        O  257 1.520    N  258 1.368    C  255 0.991
   257  O   1.936        C  256 1.520    N  258 0.180
   258  N   3.452        C  256 1.368    H  265 0.922    H  266 0.918    O  257 0.180
   259  H   0.964        N  250 0.925
   260  H   0.989        C  251 0.944
   261  H   0.993        C  254 0.963
   262  H   0.996        C  254 0.972
   263  H   0.992        C  255 0.943
   264  H   0.988        C  255 0.931
   265  H   0.951        N  258 0.922
   266  H   0.940        N  258 0.918
   267  N   3.503        C  252 1.344    C  268 0.981    H  274 0.867    O  253 0.201
   268  C   3.964        N  267 0.981    C  271 0.956    H  275 0.956    C  269 0.932
   269  C   3.944        O  270 1.622    N  283 1.305    C  268 0.932
   270  O   1.976        C  269 1.622    N  283 0.196
   271  C   3.985        C  273 1.009    C  272 1.008    C  268 0.956    H  276 0.945
   272  C   3.992        C  271 1.008    H  278 0.985    H  279 0.982    H  277 0.981
   273  C   3.991        C  271 1.009    H  282 0.984    H  280 0.982    H  281 0.980
   274  H   0.938        N  267 0.867
   275  H   0.994        C  268 0.956
   276  H   0.996        C  271 0.945
   277  H   0.995        C  272 0.981
   278  H   0.999        C  272 0.985
   279  H   0.998        C  272 0.982
   280  H   0.995        C  273 0.982
   281  H   0.997        C  273 0.980
   282  H   0.997        C  273 0.984
   283  N   3.485        C  269 1.305    C  284 0.987    H  295 0.914    O  270 0.196
   284  C   3.966        N  283 0.987    H  296 0.953    C  287 0.952    C  285 0.933
   285  C   3.949        O  286 1.631    N  304 1.301    C  284 0.933
   286  O   1.973        C  285 1.631    N  304 0.198
   287  C   3.989        C  288 1.010    H  298 0.967    H  297 0.964    C  284 0.952
   288  C   3.986        C  290 1.418    C  289 1.392    C  287 1.010
   289  C   3.992        C  291 1.472    C  288 1.392    H  299 0.970    C  292 0.104
   290  C   3.989        C  292 1.440    C  288 1.418    H  300 0.966    C  291 0.106
   291  C   3.990        C  289 1.472    C  293 1.355    H  301 0.963    C  290 0.106
   292  C   3.983        C  290 1.440    C  293 1.375    H  302 0.958    C  289 0.104
   293  C   3.943        C  292 1.375    C  291 1.355    O  294 1.081
   294  O   2.098        C  293 1.081    H  303 0.826
   295  H   0.953        N  283 0.914
   296  H   0.993        C  284 0.953
   297  H   0.995        C  287 0.964
   298  H   0.997        C  287 0.967
   299  H   0.999        C  289 0.970
   300  H   0.997        C  290 0.966
   301  H   0.998        C  291 0.963
   302  H   0.996        C  292 0.958
   303  H   0.873        O  294 0.826
   304  N   3.474        C  285 1.301    C  305 0.974    H  312 0.906    O  286 0.198
   305  C   3.961        N  304 0.974    C  306 0.974    C  308 0.954    H  313 0.954
   306  C   3.890        O  307 1.888    C  305 0.974    H  524 0.954
   307  O   2.075        C  306 1.888
   308  C   3.982        C  309 0.993    H  315 0.969    H  314 0.969    C  305 0.954
   309  C   3.994        C  310 1.009    C  311 1.007    C  308 0.993    H  316 0.965
   310  C   3.994        C  309 1.009    H  317 0.985    H  319 0.984    H  318 0.983
   311  C   3.993        C  309 1.007    H  320 0.985    H  322 0.984    H  321 0.983
   312  H   0.951        N  304 0.906
   313  H   0.993        C  305 0.954
   314  H   0.995        C  308 0.969
   315  H   0.996        C  308 0.969
   316  H   0.999        C  309 0.965
   317  H   0.998        C  310 0.985
   318  H   0.999        C  310 0.983
   319  H   0.997        C  310 0.984
   320  H   0.997        C  311 0.985
   321  H   0.998        C  311 0.983
   322  H   0.997        C  311 0.984
   323  N   2.988        C  324 1.019    H  525 0.953    H  328 0.953
   324  C   3.983        N  323 1.019    C  327 0.977    C  325 0.949    H  329 0.946
   325  C   3.942        O  326 1.637    N  333 1.288    C  324 0.949
   326  O   1.952        C  325 1.637    N  333 0.189
   327  C   3.994        H  332 0.988    H  330 0.985    H  331 0.980    C  324 0.977
   328  H   0.975        N  323 0.953
   329  H   0.996        C  324 0.946
   330  H   0.998        C  327 0.985
   331  H   0.997        C  327 0.980
   332  H   0.999        C  327 0.988
   333  N   3.456        C  325 1.288    C  334 0.990    H  340 0.909    O  326 0.189
   334  C   3.968        N  333 0.990    H  341 0.951    C  337 0.946    C  335 0.941
   335  C   3.952        O  336 1.636    N  349 1.297    C  334 0.941
   336  O   1.973        C  335 1.636    N  349 0.196
   337  C   3.990        C  339 1.010    C  338 1.009    H  342 0.966    C  334 0.946
   338  C   3.993        C  337 1.009    H  345 0.985    H  344 0.984    H  343 0.983
   339  C   3.993        C  337 1.010    H  346 0.984    H  348 0.983    H  347 0.979
   340  H   0.954        N  333 0.909
   341  H   0.997        C  334 0.951
   342  H   0.998        C  337 0.966
   343  H   0.997        C  338 0.983
   344  H   0.998        C  338 0.984
   345  H   0.998        C  338 0.985
   346  H   0.996        C  339 0.984
   347  H   0.998        C  339 0.979
   348  H   0.998        C  339 0.983
   349  N   3.475        C  335 1.297    C  350 0.969    H  357 0.928    O  336 0.196
   350  C   3.951        N  349 0.969    C  353 0.961    H  358 0.951    C  351 0.934
   351  C   3.949        O  352 1.631    N  368 1.302    C  350 0.934
   352  O   1.966        C  351 1.631    N  368 0.206
   353  C   3.988        C  355 1.011    C  354 0.992    H  359 0.964    C  350 0.961
   354  C   3.994        C  356 1.020    C  353 0.992    H  360 0.975    H  361 0.971
   355  C   3.994        C  353 1.011    H  363 0.984    H  362 0.983    H  364 0.980
   356  C   3.994        C  354 1.020    H  367 0.986    H  365 0.984    H  366 0.981
   357  H   0.962        N  349 0.928
   358  H   0.992        C  350 0.951
   359  H   0.997        C  353 0.964
   360  H   0.997        C  354 0.975
   361  H   0.999        C  354 0.971
   362  H   0.998        C  355 0.983
   363  H   0.999        C  355 0.984
   364  H   0.997        C  355 0.980
   365  H   0.996        C  356 0.984
   366  H   0.998        C  356 0.981
   367  H   0.998        C  356 0.986
   368  N   3.466        C  351 1.302    C  369 0.980    H  376 0.872    O  352 0.206
   369  C   3.962        C  372 0.985    N  368 0.980    H  377 0.931    C  370 0.930
   370  C   3.950        O  371 1.675    N  387 1.260    C  369 0.930
   371  O   2.009        C  370 1.675    N  387 0.194
   372  C   3.987        C  373 0.993    C  369 0.985    H  378 0.971    H  379 0.964
   373  C   3.993        C  374 1.011    C  375 1.007    C  372 0.993    H  380 0.967
   374  C   3.995        C  373 1.011    H  381 0.986    H  383 0.985    H  382 0.983
   375  C   3.993        C  373 1.007    H  384 0.986    H  385 0.985    H  386 0.980
   376  H   0.942        N  368 0.872
   377  H   0.994        C  369 0.931
   378  H   0.996        C  372 0.971
   379  H   0.995        C  372 0.964
   380  H   0.998        C  373 0.967
   381  H   0.998        C  374 0.986
   382  H   0.999        C  374 0.983
   383  H   0.998        C  374 0.985
   384  H   0.998        C  375 0.986
   385  H   0.998        C  375 0.985
   386  H   0.997        C  375 0.980
   387  N   3.447        C  370 1.260    C  388 0.982    H  391 0.924    O  371 0.194
   388  C   3.955        N  387 0.982    C  389 0.977    H  392 0.959    H  393 0.942
   389  C   3.893        O  390 1.915    C  388 0.977    H  526 0.952
   390  O   2.045        C  389 1.915
   391  H   0.965        N  387 0.924
   392  H   0.986        C  388 0.959
   393  H   0.988        C  388 0.942
   394  N   2.998        C  395 1.010    H  527 0.957    H  401 0.952
   395  C   3.981        N  394 1.010    C  396 0.971    H  402 0.957    C  398 0.951
   396  C   3.890        O  397 1.894    C  395 0.971    H  528 0.955
   397  O   2.031        C  396 1.894
   398  C   3.992        C  399 1.007    C  400 1.007    H  403 0.966    C  395 0.951
   399  C   3.993        C  398 1.007    H  405 0.983    H  406 0.981    H  404 0.981
   400  C   3.993        C  398 1.007    H  408 0.983    H  409 0.983    H  407 0.976
   401  H   0.972        N  394 0.952
   402  H   0.998        C  395 0.957
   403  H   0.998        C  398 0.966
   404  H   0.997        C  399 0.981
   405  H   0.999        C  399 0.983
   406  H   0.996        C  399 0.981
   407  H   0.994        C  400 0.976
   408  H   0.998        C  400 0.983
   409  H   0.999        C  400 0.983
   410  N   2.994        C  411 1.001    H  418 0.956    H  529 0.956
   411  C   3.977        N  410 1.001    C  414 0.983    H  419 0.964    C  412 0.937
   412  C   3.944        O  413 1.641    N  427 1.290    C  411 0.937
   413  O   1.955        C  412 1.641    N  427 0.194
   414  C   3.995        C  415 1.014    C  411 0.983    H  421 0.967    H  420 0.966
   415  C   3.984        C  414 1.014    S  416 0.989    H  423 0.971    H  422 0.970
   416  S   2.091        C  417 1.010    C  415 0.989
   417  C   3.970        S  416 1.010    H  426 0.980    H  425 0.978    H  424 0.976
   418  H   0.974        N  410 0.956
   419  H   0.998        C  411 0.964
   420  H   0.997        C  414 0.966
   421  H   0.997        C  414 0.967
   422  H   0.999        C  415 0.970
   423  H   0.997        C  415 0.971
   424  H   0.993        C  417 0.976
   425  H   0.996        C  417 0.978
   426  H   0.996        C  417 0.980
   427  N   3.462        C  412 1.290    C  428 0.980    H  434 0.913    O  413 0.194
   428  C   3.957        N  427 0.980    C  431 0.959    H  435 0.946    C  429 0.937
   429  C   3.936        O  430 1.654    N  443 1.256    C  428 0.937
   430  O   2.005        C  429 1.654    N  443 0.184
   431  C   3.983        C  433 1.010    C  432 1.005    H  436 0.964    C  428 0.959
   432  C   3.989        C  431 1.005    H  438 0.984    H  437 0.981    H  439 0.980
   433  C   3.992        C  431 1.010    H  442 0.982    H  440 0.980    H  441 0.978
   434  H   0.957        N  427 0.913
   435  H   0.991        C  428 0.946
   436  H   0.996        C  431 0.964
   437  H   0.995        C  432 0.981
   438  H   0.997        C  432 0.984
   439  H   0.997        C  432 0.980
   440  H   0.995        C  433 0.980
   441  H   0.997        C  433 0.978
   442  H   0.998        C  433 0.982
   443  N   3.432        C  429 1.256    C  444 0.981    H  452 0.920    O  430 0.184
   444  C   3.972        N  443 0.981    C  447 0.977    C  445 0.963    H  453 0.953
   445  C   3.895        O  446 1.892    C  444 0.963    H  530 0.956
   446  O   2.039        C  445 1.892
   447  C   3.989        C  448 1.009    C  444 0.977    H  454 0.972    H  455 0.964
   448  C   3.990        C  447 1.009    H  456 0.979    H  457 0.966    C  449 0.910
   449  C   3.931        O  451 1.503    O  450 1.494    C  448 0.910
   450  O   1.793        C  449 1.494    O  451 0.215
   451  O   1.793        C  449 1.503    O  450 0.215
   452  H   0.958        N  443 0.920
   453  H   0.994        C  444 0.953
   454  H   0.996        C  447 0.972
   455  H   0.996        C  447 0.964
   456  H   1.000        C  448 0.979
   457  H   0.999        C  448 0.966
   458  N   2.999        C  459 1.008    H  531 0.965    H  466 0.950
   459  C   3.974        N  458 1.008    C  462 0.974    H  467 0.951    C  460 0.946
   460  C   3.947        O  461 1.597    N  477 1.323    C  459 0.946
   461  O   1.937        C  460 1.597    N  477 0.191
   462  C   3.988        C  463 0.992    H  469 0.975    C  459 0.974    H  468 0.970
   463  C   3.993        C  465 1.010    C  464 1.007    C  462 0.992    H  470 0.968
   464  C   3.995        C  463 1.007    H  472 0.986    H  471 0.984    H  473 0.983
   465  C   3.991        C  463 1.010    H  474 0.984    H  475 0.982    H  476 0.975
   466  H   0.976        N  458 0.950
   467  H   0.999        C  459 0.951
   468  H   0.998        C  462 0.970
   469  H   0.997        C  462 0.975
   470  H   1.000        C  463 0.968
   471  H   0.997        C  464 0.984
   472  H   0.999        C  464 0.986
   473  H   0.997        C  464 0.983
   474  H   0.997        C  465 0.984
   475  H   0.997        C  465 0.982
   476  H   0.996        C  465 0.975
   477  N   3.491        C  460 1.323    C  478 0.983    H  485 0.907    O  461 0.191
   478  C   3.959        C  479 0.988    N  477 0.983    C  481 0.961    H  486 0.892
   479  C   3.901        O  480 1.879    C  478 0.988    H  532 0.956
   480  O   2.039        C  479 1.879
   481  C   3.984        C  483 1.010    C  482 0.993    H  487 0.963    C  478 0.961
   482  C   3.991        C  484 1.019    C  481 0.993    H  489 0.975    H  488 0.972
   483  C   3.995        C  481 1.010    H  492 0.986    H  490 0.985    H  491 0.972
   484  C   3.994        C  482 1.019    H  493 0.983    H  495 0.980    H  494 0.980
   485  H   0.956        N  477 0.907
   486  H   0.985        C  478 0.892
   487  H   0.996        C  481 0.963
   488  H   0.996        C  482 0.972
   489  H   0.998        C  482 0.975
   490  H   0.997        C  483 0.985
   491  H   0.998        C  483 0.972
   492  H   0.999        C  483 0.986
   493  H   0.997        C  484 0.983
   494  H   0.999        C  484 0.980
   495  H   0.996        C  484 0.980
   496  N   2.999        C  497 1.007    H  504 0.958    H  533 0.947
   497  C   3.977        N  496 1.007    C  498 0.972    H  505 0.959    C  500 0.949
   498  C   3.888        O  499 1.896    C  497 0.972    H  534 0.955
   499  O   2.029        C  498 1.896
   500  C   3.991        C  502 1.008    C  501 0.993    H  506 0.966    C  497 0.949
   501  C   3.995        C  503 1.020    C  500 0.993    H  507 0.973    H  508 0.973
   502  C   3.994        C  500 1.008    H  511 0.983    H  509 0.981    H  510 0.981
   503  C   3.995        C  501 1.020    H  512 0.984    H  513 0.984    H  514 0.983
   504  H   0.976        N  496 0.958
   505  H   0.996        C  497 0.959
   506  H   0.999        C  500 0.966
   507  H   0.999        C  501 0.973
   508  H   0.996        C  501 0.973
   509  H   0.996        C  502 0.981
   510  H   0.999        C  502 0.981
   511  H   0.996        C  502 0.983
   512  H   0.997        C  503 0.984
   513  H   0.997        C  503 0.984
   514  H   0.999        C  503 0.983
   515  H   0.966        N    1 0.950
   516  H   0.993        C   17 0.952
   517  H   0.964        N   26 0.948
   518  H   0.994        C   28 0.954
   519  H   0.966        N   43 0.950
   520  H   0.993        C   81 0.952
   521  H   0.965        N  101 0.949
   522  H   0.993        C  211 0.953
   523  H   0.967        N  226 0.950
   524  H   0.993        C  306 0.954
   525  H   0.967        N  323 0.953
   526  H   0.992        C  389 0.952
   527  H   0.969        N  394 0.957
   528  H   0.996        C  396 0.955
   529  H   0.969        N  410 0.956
   530  H   0.998        C  445 0.956
   531  H   0.976        N  458 0.965
   532  H   0.998        C  479 0.956
   533  H   0.964        N  496 0.947
   534  H   0.996        C  498 0.955
 
molecular dipole:
                 x           y           z       tot (Debye)
 q only:       40.147      46.444      80.763
   full:       37.414      47.930      82.960     261.440
molecular quadrupole (traceless):
                xx          xy          yy          xz          yz          zz
 q only:    -3349.899    2726.591   -2174.179    4335.882    5769.566    5524.078
  q+dip:    -3822.032    2639.149   -2103.707    4107.044    6086.910    5925.739
   full:    -3806.297    2645.618   -2115.702    4105.568    6088.693    5922.000


           -------------------------------------------------
          | TOTAL ENERGY             -787.150795295465 Eh   |
          | GRADIENT NORM               0.706971824206 Eh/α |
          | HOMO-LUMO GAP               1.141674534020 eV   |
           -------------------------------------------------

------------------------------------------------------------------------
 * finished run on 2019/05/31 at 06:33:42.035     
------------------------------------------------------------------------
 total:
 * wall-time:     0 d,  0 h,  0 min, 13.603 sec
 *  cpu-time:     0 d,  0 h,  0 min, 25.911 sec
 * ratio c/w:     1.905 speedup
 SCF:
 * wall-time:     0 d,  0 h,  0 min, 12.606 sec
 *  cpu-time:     0 d,  0 h,  0 min, 24.252 sec
 * ratio c/w:     1.924 speedup

