      -----------------------------------------------------------      
     |                   =====================                   |     
     |                           x T B                           |     
     |                   =====================                   |     
     |                         S. Grimme                         |     
     |          Mulliken Center for Theoretical Chemistry        |     
     |                    University of Bonn                     |     
     |                 Version 6.0.1 (SAW181210)                 |     
      -----------------------------------------------------------      

   This program is distributed in the hope that it will be useful,
   but WITHOUT ANY WARRANTY; without even the implied warranty of
   MERCHANTABILITY or FITNESS FOR A PARTICULAR PURPOSE.
   
   FOR NON-COMMERCIAL, ACADEMIA USE ONLY.
   
   Cite this work as:
   S. Grimme, C. Bannwarth, P. Shushkov, J. Comput. Theory Chem., 2017,
   13, 1989-2009.
   C. Bannwarth, S. Ehlert and S. Grimme., ChemRxiv, 2018, preprint.
   http://doi.org/10.26434/chemrxiv.7246238.v1
   
   for sTDA-xTB:
   S. Grimme and C. Bannwarth, J. Chem. Phys., 2016, 145, 054103.
   
   in the mass-spec context:
   V. Asgeirsson, C. Bauer and S. Grimme, Chem. Sci., 2017, 8, 4879.
   
   if GBSA is used:
   P. Shushkov, F. März and S. Grimme, unpublished.
   
   for ANC optimizer:
   S. Grimme, unpublished.
   Rational Function algorithm used in ANCopt:
   F. Eckert, P. Pulay, H.-J. Werner, J. Comput. Chem., 1997, 18, 1473.
   
   with help from (in alphabetical order)
   C. Bannwarth, F. Bohle, G. Brandenburg, E. Caldeweyher, M. Checinski,
   S. Dohm, S. Ehlert, S. Ehrlich, F. März, H. Neugebauer, J. Pisarek,
   P. Pracht, P. Shushkov, and S. Spicher.
   
 * started run on 2019/03/07 at 11:37:45.063     
========================================================================
 # omp threads = 1
========================================================================
number of atoms            : 333
number of electrons        : 918
charge                     : 1
spin                       : .0
first test random number   : .4631
           ------------------------------------------------- 
          |                 G F N 2 - x T B                 |
          | Geometry, Frequencies, Noncovalent interactions |
          |            JCTC 2018 parametrisation            |
           ------------------------------------------------- 
 
      method parameters     
 k(s)        :  1.8500
 k(p)        :  2.2300
 k(d)        :  2.2300
 k(f)        :  2.0000
 kEN (H0ij)  : -2.0000
 D4 a1       :  0.5200
 D4 a2       :  5.0000
 D4 s6       :  1.0000
 D4 s8       :  2.7000
 D4 s9       :  5.0000
 alphaj      :  2.0000

 Solvent             : h2o
 Using internal parameter file: .param_gbsa2_h2o
 Gsolv ref. state (COSMO-RS): gsolv [1 M gas/solution]
 temperature (mdtemp)       :    298.150000000000     
 dielectric constant        :    80.2000000000000     
 rho                        :    1.00000000000000     
 mass                       :    18.0000000000000     
 surface tension            :    15.5689454083859     
 probe radius               :   0.975313790000000     
 vdW radii scaling          :    1.00000000000000     
 Gshift (Eh)                :   1.857443126794793E-003
 c1                         :    1.55243817000000     
 soset                      :   0.130326360000000     
 HB correction              :  T

            Z     q(EN)     CN     RAES       Cart. coordinates
     1  N   5.0   -0.24    3.32    1.99   195.01027   116.74916   334.01095
     2  C   4.0    0.02    4.39    4.36   196.36898   115.22604   332.17603
     3  C   4.0    0.15    3.52    3.12   195.50160   116.24838   329.60789
     4  O   6.0   -0.32    1.31    1.80   196.93023   116.34665   327.78052
     5  C   4.0   -0.05    4.44    4.45   195.70569   112.41413   332.42169
     6  C   4.0   -0.05    4.31    4.22   197.48392   110.56787   331.18203
     7  C   4.0   -0.05    4.31    4.22   198.95224   109.10333   333.14546
     8  C   4.0   -0.04    4.31    4.22   200.05584   110.79841   335.20526
     9  N   5.0   -0.16    4.12    3.21   202.23469   112.32720   334.28685
    10  H   1.0    0.11    1.09    1.44   193.77061   115.96870   334.71582
    11  H   1.0    0.04    1.12    1.45   198.18312   115.33564   332.41224
    12  H   1.0    0.05    1.12    1.45   195.60553   112.00406   334.20559
    13  H   1.0    0.05    1.10    1.44   194.03328   112.15712   331.71871
    14  H   1.0    0.05    1.09    1.44   196.53528   109.40757   330.12567
    15  H   1.0    0.05    1.10    1.44   198.64421   111.46737   330.08410
    16  H   1.0    0.05    1.09    1.44   197.85242   107.85422   333.91458
    17  H   1.0    0.05    1.09    1.44   200.31095   108.18681   332.32532
    18  H   1.0    0.04    1.10    1.44   198.74815   111.92091   335.83076
    19  H   1.0    0.05    1.08    1.44   200.59441   109.76284   336.61877
    20  H   1.0    0.08    1.09    1.44   202.64287   113.47615   335.44525
    21  H   1.0    0.08    1.09    1.44   203.55183   111.31809   334.00906
    22  H   1.0    0.07    1.09    1.44   201.81328   113.10199   332.85444
    23  N   5.0   -0.17    3.62    2.18   193.11298   116.97971   329.47939
    24  C   4.0    0.04    4.47    4.49   192.10009   118.00205   327.16258
    25  C   4.0    0.17    3.50    3.12   193.44369   120.60609   326.94338
    26  O   6.0   -0.31    1.28    1.80   194.13155   121.38088   324.89302
    27  C   4.0    0.03    4.24    4.07   189.22393   118.20803   327.19471
    28  O   6.0   -0.26    2.08    1.84   188.24883   118.56519   324.70783
    29  H   1.0    0.09    1.14    1.45   192.05663   116.89656   330.71149
    30  H   1.0    0.07    1.13    1.45   192.41190   116.92679   325.71127
    31  H   1.0    0.05    1.07    1.44   188.50583   116.68869   327.92603
    32  H   1.0    0.05    1.07    1.44   188.71748   119.60831   328.26240
    33  H   1.0    0.15    1.08    1.44   186.66524   118.67101   324.77019
    34  N   5.0   -0.16    3.62    2.18   193.86132   121.86465   329.09388
    35  C   4.0    0.03    4.47    4.49   195.17657   124.28350   329.23561
    36  C   4.0    0.16    3.51    3.12   197.87320   123.75059   328.30965
    37  O   6.0   -0.30    1.22    1.80   199.22058   125.41544   327.34211
    38  C   4.0   -0.05    4.40    4.38   195.29184   125.18867   331.94359
    39  C   4.0   -0.03    4.31    4.21   196.67512   127.74547   332.42736
    40  C   4.0    0.17    3.32    3.06   197.21369   128.07240   335.18447
    41  O   6.0   -0.26    1.21    1.80   199.34530   127.68311   336.05941
    42  N   5.0   -0.23    3.26    1.97   195.27294   128.56184   336.63767
    43  H   1.0    0.09    1.15    1.45   193.37188   121.31474   330.54330
    44  H   1.0    0.06    1.12    1.45   194.32619   125.56662   328.23973
    45  H   1.0    0.05    1.09    1.44   193.57597   125.33985   332.56909
    46  H   1.0    0.06    1.10    1.44   196.11576   123.89421   332.94515
    47  H   1.0    0.07    1.09    1.44   198.24170   127.79461   331.47872
    48  H   1.0    0.05    1.09    1.44   195.64144   129.13442   331.82643
    49  H   1.0    0.11    1.10    1.44   193.81029   128.82451   335.98005
    50  H   1.0    0.13    1.09    1.44   195.46002   128.62042   338.25150
    51  N   5.0   -0.16    3.63    2.18   198.67445   121.40922   328.74051
    52  C   4.0    0.05    4.46    4.48   201.17833   120.55129   328.01485
    53  C   4.0    0.17    3.50    3.11   201.23692   120.17145   325.15192
    54  O   6.0   -0.29    1.30    1.80   203.14932   120.66467   323.91415
    55  C   4.0    0.03    4.27    4.15   201.83407   118.04362   329.31120
    56  O   6.0   -0.26    2.07    1.83   204.47969   117.58253   329.44348
    57  H   1.0    0.11    1.17    1.46   197.77116   120.27161   329.46805
    58  H   1.0    0.07    1.12    1.45   202.40477   121.81173   328.52886
    59  H   1.0    0.04    1.08    1.44   201.13865   118.04551   331.00818
    60  H   1.0    0.06    1.09    1.44   201.02905   116.66979   328.40224
    61  H   1.0    0.14    1.08    1.44   204.74047   116.19358   330.16914
    62  N   5.0   -0.15    3.60    2.15   199.05239   119.43257   324.12391
    63  C   4.0    0.03    4.43    4.44   198.80673   119.09053   321.37057
    64  C   4.0    0.17    3.58    3.16   199.52860   121.64166   320.23485
    65  O   6.0   -0.32    1.39    1.80   200.88354   121.77961   318.34890
    66  C   4.0   -0.07    4.26    4.12   196.10442   118.48960   320.67893
    67  H   1.0    0.13    1.16    1.46   197.70124   119.12076   324.97050
    68  H   1.0    0.05    1.11    1.45   199.85742   117.71670   320.76208
    69  H   1.0    0.05    1.06    1.44   195.97214   118.27039   318.86480
    70  H   1.0    0.06    1.06    1.44   195.58664   116.94569   321.51986
    71  H   1.0    0.07    1.07    1.44   195.01594   119.86721   321.20806
    72  N   5.0   -0.16    3.58    2.14   198.42311   123.65233   321.25152
    73  C   4.0    0.03    4.51    4.55   198.99948   126.18834   320.34445
    74  C   4.0    0.17    3.57    3.15   201.84730   126.48314   320.27831
    75  O   6.0   -0.33    1.36    1.80   202.81484   127.57162   318.49063
    76  C   4.0   -0.05    4.45    4.47   197.85431   128.14043   322.15481
    77  C   4.0   -0.02    4.27    4.14   198.44201   130.97313   321.93749
    78  C   4.0   -0.08    4.17    3.93   200.97235   131.73280   323.28298
    79  C   4.0   -0.09    4.24    4.07   198.47036   131.73091   319.18416
    80  H   1.0    0.11    1.14    1.45   197.34030   123.58997   322.46095
    81  H   1.0    0.05    1.12    1.45   198.29839   126.44723   318.67016
    82  H   1.0    0.04    1.10    1.44   196.03261   127.96846   322.03387
    83  H   1.0    0.07    1.11    1.45   198.33052   127.63020   323.84989
    84  H   1.0    0.04    1.13    1.45   197.11542   131.88586   322.81244
    85  H   1.0    0.05    1.05    1.44   201.25203   133.53370   323.08834
    86  H   1.0    0.06    1.05    1.44   200.86464   131.32084   325.06499
    87  H   1.0    0.05    1.05    1.44   202.36697   130.81439   322.52709
    88  H   1.0    0.05    1.06    1.44   198.84074   133.52048   319.04621
    89  H   1.0    0.06    1.07    1.44   199.75537   130.77093   318.29788
    90  H   1.0    0.04    1.06    1.44   196.83197   131.38887   318.43772
    91  N   5.0   -0.15    3.53    2.10   203.17578   125.43623   322.13024
    92  C   4.0    0.02    4.36    4.31   205.90454   125.60441   322.26064
    93  C   4.0    0.18    3.46    3.10   206.99113   124.30617   319.96084
    94  O   6.0   -0.29    1.33    1.80   208.37441   125.45324   318.51520
    95  H   1.0    0.12    1.15    1.45   202.50681   124.60286   323.35479
    96  H   1.0    0.06    1.09    1.44   206.43555   127.35808   322.31544
    97  H   1.0    0.06    1.09    1.44   206.52059   124.81073   323.79320
    98  N   5.0   -0.15    3.57    2.13   206.14264   121.96669   319.47707
    99  C   4.0    0.05    4.54    4.59   207.08184   120.59097   317.29633
   100  C   4.0    0.16    3.55    3.14   206.44122   122.13866   314.95307
   101  O   6.0   -0.31    1.28    1.80   208.04938   122.38054   313.25042
   102  C   4.0    0.05    4.33    4.26   205.93855   117.88866   317.24341
   103  O   6.0   -0.27    2.14    1.85   207.70923   116.17846   316.19462
   104  C   4.0   -0.08    4.27    4.14   203.49136   117.83953   315.76376
   105  H   1.0    0.12    1.15    1.45   205.04660   121.17301   320.37658
   106  H   1.0    0.07    1.13    1.45   208.89976   120.36609   317.36625
   107  H   1.0    0.05    1.11    1.45   205.56061   117.37844   318.96306
   108  H   1.0    0.15    1.08    1.44   207.08562   114.71959   316.17194
   109  H   1.0    0.05    1.06    1.44   202.81484   116.13689   315.75620
   110  H   1.0    0.07    1.09    1.44   202.28193   118.97337   316.54421
   111  H   1.0    0.05    1.07    1.44   203.80694   118.37621   314.04033
   112  N   5.0   -0.16    3.60    2.16   204.23780   123.34808   314.97007
   113  C   4.0    0.04    4.41    4.40   203.34774   124.94112   312.93106
   114  C   4.0    0.17    3.48    3.11   205.23747   127.11809   312.59091
   115  O   6.0   -0.32    1.27    1.80   205.98769   127.59052   310.46686
   116  C   4.0   -0.08    4.21    4.02   200.67378   125.95212   313.49420
   117  H   1.0    0.13    1.19    1.46   203.19467   123.25360   316.21351
   118  H   1.0    0.05    1.12    1.45   203.23814   123.96980   311.38148
   119  H   1.0    0.04    1.05    1.44   200.11631   127.01226   312.10714
   120  H   1.0    0.05    1.05    1.44   199.51538   124.54428   313.69073
   121  H   1.0    0.07    1.07    1.44   200.70401   126.93667   315.03999
   122  N   5.0   -0.16    3.58    2.14   206.07273   128.27649   314.67528
   123  C   4.0    0.03    4.57    4.62   207.91710   130.32684   314.55244
   124  C   4.0    0.16    3.53    3.13   210.32272   129.27804   313.33924
   125  O   6.0   -0.29    1.23    1.80   211.41876   130.48180   311.62526
   126  C   4.0   -0.02    4.45    4.47   208.53126   131.31139   317.22830
   127  C   4.0   -0.05    4.32    4.24   206.15965   132.34696   318.50764
   128  C   4.0   -0.07    4.24    4.08   210.57783   133.33906   317.17727
   129  C   4.0   -0.08    4.14    3.88   204.77826   134.42943   317.05633
   130  H   1.0    0.13    1.17    1.46   205.58896   127.89665   316.17950
   131  H   1.0    0.05    1.12    1.45   207.23869   131.71768   313.56979
   132  H   1.0    0.07    1.13    1.45   209.16243   129.88842   318.19395
   133  H   1.0    0.06    1.11    1.44   204.99369   130.95990   318.78543
   134  H   1.0    0.05    1.09    1.44   206.62453   132.99702   320.15737
   135  H   1.0    0.06    1.06    1.44   210.91420   133.91165   318.88558
   136  H   1.0    0.07    1.06    1.44   212.11229   132.64175   316.45351
   137  H   1.0    0.05    1.06    1.44   210.01091   134.75447   316.15871
   138  H   1.0    0.05    1.05    1.44   203.30617   134.96612   318.00875
   139  H   1.0    0.05    1.05    1.44   205.90265   135.85618   316.81633
   140  H   1.0    0.04    1.06    1.44   204.24725   133.78882   315.42361
   141  N   5.0   -0.14    3.59    2.15   211.09373   127.01604   314.17261
   142  C   4.0    0.05    4.54    4.59   213.29148   125.77638   313.11625
   143  C   4.0    0.17    3.55    3.14   213.02692   125.65166   310.28733
   144  O   6.0   -0.30    1.30    1.80   214.71822   126.49259   308.92484
   145  C   4.0   -0.04    4.44    4.44   213.53147   123.13454   314.23119
   146  C   4.0   -0.03    4.27    4.14   215.61962   122.77361   316.14926
   147  C   4.0    0.25    3.14    3.03   215.12829   124.12476   318.63803
   148  O   6.0   -0.25    1.17    1.80   216.18843   123.30840   320.59390
   149  O   6.0   -0.26    1.21    1.80   213.66375   126.00882   318.68905
   150  H   1.0    0.13    1.16    1.46   210.35295   126.18078   315.35369
   151  H   1.0    0.06    1.13    1.45   214.80515   126.72313   313.52821
   152  H   1.0    0.07    1.11    1.45   211.93843   122.69235   315.02110
   153  H   1.0    0.05    1.10    1.44   213.79603   121.94968   312.85925
   154  H   1.0    0.06    1.09    1.44   215.83316   120.98214   316.47240
   155  H   1.0    0.06    1.09    1.44   217.19565   123.38210   315.43872
   156  N   5.0   -0.15    3.54    2.11   210.80271   124.82963   309.41617
   157  C   4.0    0.04    4.53    4.58   210.32461   124.62932   306.69496
   158  C   4.0    0.17    3.53    3.13   211.06160   127.04439   305.34948
   159  O   6.0   -0.26    1.22    1.80   212.57338   126.99336   303.58447
   160  C   4.0   -0.05    4.45    4.46   207.54293   124.07185   306.15450
   161  C   4.0   -0.05    4.39    4.36   206.95712   121.35631   306.28489
   162  C   4.0   -0.01    4.36    4.32   204.33796   120.69113   305.46286
   163  N   5.0   -0.16    3.45    2.04   204.09229   117.96803   305.15673
   164  C   4.0    0.11    3.47    3.10   203.94489   116.37310   307.08425
   165  N   5.0   -0.24    3.30    1.98   203.98836   117.22915   309.52010
   166  N   5.0   -0.23    3.28    1.98   203.93356   113.89945   306.66851
   167  H   1.0    0.13    1.15    1.45   209.55738   124.38365   310.36103
   168  H   1.0    0.06    1.13    1.45   211.34695   123.24226   306.07135
   169  H   1.0    0.06    1.11    1.45   206.49791   124.97514   307.36015
   170  H   1.0    0.05    1.11    1.44   207.11018   124.70491   304.48965
   171  H   1.0    0.06    1.11    1.45   208.15520   120.44168   305.23987
   172  H   1.0    0.06    1.11    1.44   207.20089   120.78183   308.00832
   173  H   1.0    0.04    1.09    1.44   203.12664   121.29017   306.70063
   174  H   1.0    0.05    1.09    1.44   203.94867   121.53206   303.88116
   175  H   1.0    0.10    1.13    1.45   204.03938   117.36332   303.64872
   176  H   1.0    0.11    1.09    1.44   204.11308   118.82219   309.82057
   177  H   1.0    0.11    1.08    1.44   203.89198   116.17468   310.75409
   178  H   1.0    0.11    1.09    1.44   204.02237   113.33064   305.14917
   179  H   1.0    0.11    1.09    1.44   203.83718   112.86577   307.91951
   180  N   5.0   -0.16    3.53    2.10   209.96934   129.13064   306.27166
   181  C   4.0    0.04    4.47    4.49   210.41721   131.63264   305.20208
   182  C   4.0    0.17    3.46    3.10   213.19888   132.42822   305.00933
   183  O   6.0   -0.25    1.22    1.80   213.81871   134.22345   303.64683
   184  C   4.0   -0.05    4.48    4.51   209.02826   133.62630   306.74976
   185  C   4.0   -0.03    4.31    4.22   206.12942   133.71512   306.48709
   186  C   4.0   -0.08    4.24    4.07   204.88787   134.13653   308.99476
   187  C   4.0   -0.08    4.23    4.05   205.49825   135.82594   304.60682
   188  H   1.0    0.12    1.14    1.45   208.94889   129.12497   307.53589
   189  H   1.0    0.06    1.13    1.45   209.78793   131.51359   303.48432
   190  H   1.0    0.06    1.10    1.44   209.43266   133.35985   308.51855
   191  H   1.0    0.06    1.11    1.45   209.69344   135.27036   306.28867
   192  H   1.0    0.05    1.13    1.45   205.48880   132.11263   305.86915
   193  H   1.0    0.04    1.06    1.44   203.06806   134.18377   308.77555
   194  H   1.0    0.05    1.06    1.44   205.33006   132.77026   310.13426
   195  H   1.0    0.05    1.06    1.44   205.46045   135.72768   309.70152
   196  H   1.0    0.04    1.06    1.44   203.68033   135.93366   304.39517
   197  H   1.0    0.05    1.06    1.44   206.13509   137.42276   305.24365
   198  H   1.0    0.06    1.05    1.44   206.27871   135.45934   302.98921
   199  N   5.0   -0.14    3.56    2.12   214.81838   131.18100   306.47009
   200  C   4.0    0.05    4.46    4.48   217.48100   131.70067   306.43040
   201  C   4.0    0.18    3.47    3.10   218.54870   130.54794   303.99265
   202  O   6.0   -0.22    1.24    1.80   218.49578   131.74980   302.00088
   203  C   4.0    0.04    4.32    4.23   218.72444   130.50447   308.75287
   204  O   6.0   -0.26    2.08    1.84   221.25478   131.29060   309.10058
   205  H   1.0    0.13    1.17    1.46   214.38185   130.00937   307.50754
   206  H   1.0    0.08    1.12    1.45   217.81170   133.50347   306.47198
   207  H   1.0    0.06    1.08    1.44   217.74934   130.93344   310.24576
   208  H   1.0    0.06    1.09    1.44   218.67720   128.67900   308.58847
   209  H   1.0    0.15    1.08    1.44   221.85383   130.59140   310.39316
   210  N   5.0   -0.15    3.52    2.09   219.45387   128.19712   304.07013
   211  C   4.0    0.05    4.49    4.53   220.49511   126.89132   301.91396
   212  C   4.0    0.18    3.47    3.10   218.51846   126.47180   299.90896
   213  O   6.0   -0.23    1.22    1.80   218.36917   127.95334   298.07403
   214  C   4.0    0.03    4.34    4.26   221.63462   124.39310   302.76433
   215  O   6.0   -0.25    2.10    1.84   223.11805   123.33863   300.84437
   216  H   1.0    0.10    1.15    1.45   219.47088   127.30706   305.42885
   217  H   1.0    0.08    1.13    1.45   221.81036   127.93256   301.17507
   218  H   1.0    0.05    1.08    1.44   222.65696   124.65577   304.26289
   219  H   1.0    0.05    1.08    1.44   220.29669   123.22714   303.22543
   220  H   1.0    0.15    1.08    1.44   223.73410   121.96480   301.34515
   221  N   5.0   -0.14    3.41    2.03   217.13896   124.37231   300.05447
   222  C   4.0    0.03    4.23    4.07   215.18309   123.76004   298.17797
   223  C   4.0    0.09    3.14    3.03   214.28547   121.04640   298.38773
   224  O   6.0   -0.27    1.12    1.80   212.96078   120.33775   300.13950
   225  H   1.0    0.11    1.14    1.45   217.30337   123.26493   301.23176
   226  H   1.0    0.08    1.09    1.44   213.75635   124.89010   298.39718
   227  H   1.0    0.06    1.09    1.44   215.84450   124.05295   296.49422
   228  N   5.0   -0.21    3.24    1.96   214.66531   106.78841   306.13371
   229  C   4.0    0.04    4.37    4.33   213.40108   106.86400   308.56390
   230  C   4.0    0.18    3.41    3.08   210.65153   105.81331   308.48075
   231  O   6.0   -0.26    1.23    1.80   210.02981   104.11823   309.90372
   232  C   4.0   -0.04    4.36    4.31   213.46722   109.53796   309.73742
   233  C   4.0    0.17    3.31    3.06   212.13875   111.53163   308.15950
   234  O   6.0   -0.30    1.32    1.80   211.25057   111.03463   306.06190
   235  N   5.0   -0.23    3.23    1.96   211.86851   113.80875   309.18373
   236  H   1.0    0.12    1.09    1.44   214.82405   108.24350   305.42507
   237  H   1.0    0.06    1.13    1.45   214.35539   105.73773   309.65238
   238  H   1.0    0.06    1.09    1.44   212.69055   109.47938   311.39660
   239  H   1.0    0.05    1.09    1.44   215.21333   110.03874   309.97931
   240  H   1.0    0.12    1.09    1.44   211.06160   114.96904   308.38249
   241  H   1.0    0.11    1.09    1.44   212.49968   114.12055   310.64827
   242  N   5.0   -0.14    3.62    2.18   209.05282   106.83566   306.82535
   243  C   4.0    0.05    4.50    4.53   206.41477   106.02496   306.71575
   244  C   4.0    0.15    3.48    3.11   205.48124   106.49740   304.07202
   245  O   6.0   -0.25    1.23    1.80   203.89009   105.10278   303.15362
   246  C   4.0    0.04    4.27    4.14   204.84062   107.55564   308.58658
   247  O   6.0   -0.25    2.11    1.84   206.20501   107.96382   310.87504
   248  H   1.0    0.12    1.20    1.46   209.45533   107.99217   305.75766
   249  H   1.0    0.08    1.13    1.45   206.26926   104.25051   307.14850
   250  H   1.0    0.04    1.08    1.44   204.38709   109.16758   307.84014
   251  H   1.0    0.06    1.07    1.44   203.27593   106.67125   308.94752
   252  H   1.0    0.14    1.08    1.44   205.31306   108.80853   311.88037
   253  N   5.0   -0.16    3.51    2.09   206.46201   108.47972   302.87394
   254  C   4.0    0.04    4.32    4.24   205.71368   109.17514   300.28690
   255  C   4.0    0.10    3.22    3.04   206.73035   107.40446   298.27623
   256  O   6.0   -0.24    1.12    1.80   205.26014   106.07410   297.06681
   257  C   4.0   -0.08    4.20    4.00   206.49980   111.90957   299.71054
   258  H   1.0    0.10    1.15    1.45   207.57884   109.46427   303.52778
   259  H   1.0    0.07    1.14    1.45   203.88820   109.02396   300.22643
   260  H   1.0    0.06    1.05    1.44   205.99714   112.34421   298.00222
   261  H   1.0    0.05    1.05    1.44   205.68155   113.04341   300.89539
   262  H   1.0    0.06    1.05    1.44   208.31961   112.07020   299.86927
   263  N   5.0   -0.23    3.21    1.96   194.22225   135.44044   303.38794
   264  C   4.0    0.03    4.41    4.40   195.88899   135.59918   305.61026
   265  C   4.0    0.08    3.21    3.04   195.59986   137.97456   307.19763
   266  O   6.0   -0.32    1.17    1.80   195.73781   137.86118   309.52388
   267  C   4.0   -0.05    4.47    4.50   198.62343   135.17021   304.88272
   268  C   4.0   -0.05    4.18    3.95   199.21113   132.38097   304.49532
   269  S   6.0   -0.04    2.85    3.11   197.95635   130.53660   307.03322
   270  C   4.0   -0.08    4.01    3.64   198.78783   127.52060   306.06001
   271  H   1.0    0.11    1.08    1.44   194.96492   135.72768   301.97254
   272  H   1.0    0.05    1.21    1.47   195.32963   134.24046   306.70630
   273  H   1.0    0.05    1.09    1.44   198.99570   136.09050   303.34259
   274  H   1.0    0.04    1.10    1.44   199.71569   135.84673   306.19041
   275  H   1.0    0.05    1.14    1.45   198.50059   131.81216   302.90417
   276  H   1.0    0.04    1.14    1.45   201.02527   132.13720   304.38950
   277  H   1.0    0.05    1.12    1.45   198.20769   126.29794   307.29590
   278  H   1.0    0.05    1.12    1.45   198.01115   127.16533   304.43863
   279  H   1.0    0.05    1.12    1.45   200.61142   127.40910   305.90128
   280  N   5.0   -0.22    3.25    1.97   189.91746   137.12796   310.75976
   281  C   4.0    0.03    4.34    4.27   190.62799   135.14375   312.54933
   282  C   4.0    0.16    3.43    3.09   192.01316   136.26058   314.83968
   283  O   6.0   -0.31    1.28    1.80   191.45192   135.52548   316.99586
   284  C   4.0   -0.08    4.25    4.10   192.20025   133.15954   311.31156
   285  H   1.0    0.11    1.08    1.44   190.55052   136.94466   309.27444
   286  H   1.0    0.05    1.13    1.45   189.08220   134.35196   313.13893
   287  H   1.0    0.05    1.06    1.44   192.64055   131.87264   312.53989
   288  H   1.0    0.05    1.06    1.44   191.25349   132.39420   309.94151
   289  H   1.0    0.06    1.06    1.44   193.73092   133.91732   310.64638
   290  N   5.0   -0.16    3.48    2.07   193.76305   138.03503   314.41449
   291  C   4.0    0.04    4.42    4.42   195.20491   139.18776   316.46485
   292  C   4.0    0.10    3.25    3.04   193.53061   140.53325   318.33378
   293  O   6.0   -0.27    1.13    1.80   193.51361   139.83972   320.53343
   294  C   4.0   -0.05    4.38    4.34   197.32140   140.87529   315.47652
   295  C   4.0   -0.04    4.33    4.25   199.37932   139.37863   314.14615
   296  C   4.0    0.16    3.30    3.05   201.56195   141.05670   313.33924
   297  O   6.0   -0.27    1.22    1.80   202.95657   142.05070   314.88692
   298  N   5.0   -0.24    3.24    1.97   201.90021   141.39685   310.89771
   299  H   1.0    0.12    1.15    1.45   194.13911   138.59628   312.93673
   300  H   1.0    0.06    1.15    1.45   196.00804   137.81960   317.38325
   301  H   1.0    0.06    1.09    1.44   196.62221   142.10928   314.31623
   302  H   1.0    0.06    1.09    1.44   198.05651   141.80881   316.87303
   303  H   1.0    0.05    1.09    1.44   199.99915   138.06338   315.26298
   304  H   1.0    0.06    1.10    1.44   198.67445   138.54337   312.67595
   305  H   1.0    0.11    1.09    1.44   200.90243   140.68443   309.83191
   306  H   1.0    0.13    1.09    1.44   203.11908   142.33227   310.36859
   307  N   5.0   -0.21    3.25    1.97   188.57575   135.75980   321.28743
   308  C   4.0    0.05    4.35    4.30   189.87588   134.33873   323.25463
   309  C   4.0    0.10    3.22    3.04   190.70547   135.97712   325.44293
   310  O   6.0   -0.25    1.12    1.80   190.41257   135.22690   327.63313
   311  C   4.0   -0.04    4.42    4.41   192.13978   132.87797   322.20961
   312  C   4.0   -0.04    4.37    4.33   191.40467   130.50447   320.88869
   313  C   4.0    0.16    3.34    3.06   190.07997   128.59774   322.51575
   314  O   6.0   -0.27    1.28    1.80   188.71559   129.26292   324.26563
   315  N   5.0   -0.23    3.25    1.97   190.49004   126.21669   322.03576
   316  H   1.0    0.14    1.12    1.45   189.19180   135.55949   319.79643
   317  H   1.0    0.08    1.16    1.46   188.64189   133.14064   323.88958
   318  H   1.0    0.06    1.10    1.44   193.06385   133.95133   321.04743
   319  H   1.0    0.05    1.10    1.44   193.28117   132.47168   323.58533
   320  H   1.0    0.06    1.10    1.44   190.31430   130.93155   319.47896
   321  H   1.0    0.04    1.11    1.44   192.91078   129.73158   320.18761
   322  H   1.0    0.11    1.10    1.44   191.45381   125.79150   320.79799
   323  H   1.0    0.13    1.09    1.44   189.79652   125.07151   322.95605
   324  H   1.0    0.10    1.08    1.44   196.07392   117.23166   335.24723
   325  H   1.0    0.07    1.05    1.44   214.77709   119.78405   297.07021
   326  H   1.0    0.11    1.08    1.44   216.23045   106.15175   306.32754
   327  H   1.0    0.07    1.04    1.44   208.58820   107.32364   297.94019
   328  H   1.0    0.10    1.07    1.44   193.55372   133.87966   303.29002
   329  H   1.0    0.06    1.04    1.43   195.29620   139.64042   306.35873
   330  H   1.0    0.11    1.08    1.44   188.22633   137.15195   310.58068
   331  H   1.0    0.07    1.05    1.44   192.45039   141.97632   317.76659
   332  H   1.0    0.11    1.08    1.44   186.94672   135.27581   321.21990
   333  H   1.0    0.08    1.04    1.44   191.48975   137.66493   325.11544

  Z AO/shell   Hii/eV     exponent
  1     Wed Apr 25 08:07:45 CEST 2018   EN: 2.200 GM2: 0.406  GM3: 0.0800  RAES: 1.40
     1s    -10.707211    1.230000
  6     Wed Apr 25 08:07:45 CEST 2018   EN: 2.550 GM2: 0.538  GM3: 0.1500  RAES: 3.00
     2s    -13.970922    2.096432
     2p    -10.063292    1.800000
  7     Wed Apr 25 08:07:45 CEST 2018   EN: 3.040 GM2: 0.461  GM3:-0.0640  RAES: 1.90
     2s    -16.686243    2.339881
     2p    -12.523956    2.014332
  8     Wed Apr 25 08:07:45 CEST 2018   EN: 3.440 GM2: 0.452  GM3:-0.0517  RAES: 1.80
     2s    -20.229985    2.439742
     2p    -15.503117    2.137023
 16     Tue Apr 24 11:44:34 CEST 2018   EN: 2.580 GM2: 0.340  GM3:-0.0502  RAES: 3.10
     3s    -20.029654    1.981333
     3p    -11.377694    2.025643
     3d     -0.420282    1.702555
 no old-style atom pair restraining (fixing) potential

molecular fragmentation (1/2 indicates fragments):
111111111111111111111111111111111111111111111111111111111111111111111111
111111111111111111111111111111111111111111111111111111111111111111111111
111111111111111111111111111111111111111111111111111111111111111111111111
111111111112222222222222222222222222222222222222222222222222222222222222
222222222222222222222222222222222221122222222
# atoms in fragment 1/2:   229   104
 fragment masses (1/2) :     1589.78      738.85
CMA distance (Bohr)    :   8.140
constraining FC (au)   :  0.0500
           ------------------------------------------------- 
          |        Self-Consistent Charge Iterations        |
           ------------------------------------------------- 

 Ncao       : 822
 Nao        : 821
 Nshell     : 495
 Nel        : 918
 T(el)      :   500.0
 intcut     :    35.0
 scfconv/Eh :  0.100E-06
   qconv/e  :  0.100E-04
 intneglect :  0.100E-08
 broydamp   :      0.400
 iter      E             dE          RMSdq      gap      omega  full diag
   1   -532.1090156 -0.532109E+03  0.487E+00    2.42       0.0  T
   2   -533.4511232 -0.134211E+01  0.227E+00    1.21       1.0  T
   3   -533.5217528 -0.706296E-01  0.127E+00    1.51       1.0  T
   4   -533.6039284 -0.821756E-01  0.261E-01    1.06       1.0  T
   5   -533.6095048 -0.557636E-02  0.119E-01    1.23       1.0  T
   6   -533.6100384 -0.533628E-03  0.457E-02    1.24       1.0  T
   7   -533.6101919 -0.153441E-03  0.192E-02    1.24       1.0  T
   8   -533.6102058 -0.139013E-04  0.906E-03    1.24       1.0  T
   9   -533.6102108 -0.506662E-05  0.338E-03    1.24       1.6  T
  10   -533.6102114 -0.538158E-06  0.166E-03    1.24       3.3  T
  11   -533.6102115 -0.137695E-06  0.807E-04    1.24       6.8  T
  12   -533.6102115 -0.244432E-07  0.371E-04    1.24      14.8  T
  13   -533.6102115 -0.638931E-08  0.172E-04    1.24      31.9  T
  14   -533.6102115 -0.109549E-08  0.713E-05    1.24      76.9  T
  15   -533.6102115 -0.290697E-09  0.268E-05    1.24     204.4  T
speedup  1.00
cpu  time for SCC    3.86 s
wall time for SCC    3.86 s

   *** convergence criteria satisfied after 15 iterations ***

          eigenvalues
 #    :         447        448        449        450        451        452        453        454
 occ. :        2.000      2.000      2.000      2.000      2.000      2.000      2.000      2.000
 eps  :       -10.736    -10.668    -10.646    -10.619    -10.535    -10.350    -10.122     -9.983
 #    :         455        456        457        458        459        460        461        462
 occ. :        2.000      2.000      2.000      2.000      2.000      0.000      0.000      0.000
 eps  :        -9.833     -9.826     -9.644     -9.472     -9.430     -8.190     -8.043     -7.958
 #    :         463        464        465        466        467        468        469        470
 occ. :        0.000      0.000      0.000      0.000      0.000      0.000      0.000      0.000
 eps  :        -7.662     -7.406     -7.041     -7.021     -6.864     -6.780     -6.738     -6.591


   #   Z            q   n(s)   n(p)   n(d)      C6AA      α(0)
   1   7 N     -0.429  1.292  4.137  0.000    31.186     8.294
   2   6 C     -0.005  1.042  2.962  0.000    20.669     6.474
   3   6 C      0.251  1.051  2.698  0.000    22.784     7.817
   4   8 O     -0.498  1.751  4.747  0.000    23.737     6.532
   5   6 C     -0.116  1.013  3.103  0.000    22.693     6.779
   6   6 C     -0.107  1.003  3.103  0.000    22.529     6.755
   7   6 C     -0.121  1.011  3.110  0.000    22.800     6.796
   8   6 C     -0.079  1.019  3.059  0.000    22.082     6.704
   9   7 N     -0.129  1.138  3.991  0.000    23.784     7.243
  10   1 H      0.192  0.808  0.000  0.000     1.148     1.678
  11   1 H      0.075  0.925  0.000  0.000     2.030     2.228
  12   1 H      0.090  0.910  0.000  0.000     1.881     2.145
  13   1 H      0.067  0.933  0.000  0.000     2.114     2.273
  14   1 H      0.078  0.922  0.000  0.000     2.003     2.213
  15   1 H      0.074  0.926  0.000  0.000     2.047     2.237
  16   1 H      0.101  0.899  0.000  0.000     1.772     2.081
  17   1 H      0.097  0.903  0.000  0.000     1.812     2.105
  18   1 H      0.128  0.872  0.000  0.000     1.546     1.944
  19   1 H      0.134  0.866  0.000  0.000     1.506     1.919
  20   1 H      0.290  0.710  0.000  0.000     0.744     1.351
  21   1 H      0.292  0.708  0.000  0.000     0.738     1.346
  22   1 H      0.265  0.735  0.000  0.000     0.826     1.423
  23   7 N     -0.181  1.201  3.980  0.000    24.930     7.416
  24   6 C     -0.006  1.044  2.962  0.000    20.683     6.475
  25   6 C      0.263  1.048  2.689  0.000    22.558     7.778
  26   8 O     -0.459  1.736  4.723  0.000    22.900     6.416
  27   6 C      0.051  0.994  2.955  0.000    19.899     6.386
  28   8 O     -0.499  1.683  4.816  0.000    22.879     6.457
  29   1 H      0.226  0.774  0.000  0.000     0.980     1.551
  30   1 H      0.128  0.872  0.000  0.000     1.550     1.947
  31   1 H      0.080  0.920  0.000  0.000     1.983     2.202
  32   1 H      0.062  0.938  0.000  0.000     2.176     2.306
  33   1 H      0.349  0.651  0.000  0.000     0.590     1.206
  34   7 N     -0.201  1.206  3.995  0.000    25.364     7.480
  35   6 C      0.007  1.041  2.952  0.000    20.469     6.442
  36   6 C      0.267  1.044  2.688  0.000    22.488     7.766
  37   8 O     -0.494  1.764  4.730  0.000    23.654     6.521
  38   6 C     -0.100  1.011  3.088  0.000    22.382     6.733
  39   6 C     -0.123  1.012  3.112  0.000    22.846     6.803
  40   6 C      0.288  1.030  2.682  0.000    22.123     7.702
  41   8 O     -0.526  1.764  4.761  0.000    24.357     6.617
  42   7 N     -0.294  1.196  4.098  0.000    27.574     7.799
  43   1 H      0.226  0.774  0.000  0.000     0.981     1.551
  44   1 H      0.106  0.894  0.000  0.000     1.731     2.057
  45   1 H      0.096  0.904  0.000  0.000     1.817     2.108
  46   1 H      0.084  0.916  0.000  0.000     1.936     2.176
  47   1 H      0.084  0.916  0.000  0.000     1.937     2.176
  48   1 H      0.084  0.916  0.000  0.000     1.938     2.177
  49   1 H      0.242  0.758  0.000  0.000     0.915     1.498
  50   1 H      0.241  0.759  0.000  0.000     0.919     1.502
  51   7 N     -0.188  1.200  3.987  0.000    25.069     7.436
  52   6 C      0.002  1.041  2.956  0.000    20.543     6.453
  53   6 C      0.266  1.043  2.691  0.000    22.511     7.770
  54   8 O     -0.503  1.757  4.746  0.000    23.851     6.548
  55   6 C      0.048  0.997  2.955  0.000    19.940     6.391
  56   8 O     -0.512  1.702  4.810  0.000    23.159     6.496
  57   1 H      0.217  0.783  0.000  0.000     1.024     1.585
  58   1 H      0.103  0.897  0.000  0.000     1.755     2.071
  59   1 H      0.075  0.925  0.000  0.000     2.028     2.227
  60   1 H      0.088  0.912  0.000  0.000     1.896     2.153
  61   1 H      0.361  0.639  0.000  0.000     0.562     1.178
  62   7 N     -0.184  1.214  3.971  0.000    24.996     7.425
  63   6 C      0.007  1.042  2.951  0.000    20.460     6.440
  64   6 C      0.269  1.046  2.686  0.000    22.465     7.762
  65   8 O     -0.491  1.738  4.753  0.000    23.584     6.511
  66   6 C     -0.180  0.985  3.195  0.000    24.043     6.987
  67   1 H      0.235  0.765  0.000  0.000     0.944     1.522
  68   1 H      0.106  0.894  0.000  0.000     1.730     2.057
  69   1 H      0.096  0.904  0.000  0.000     1.818     2.108
  70   1 H      0.096  0.904  0.000  0.000     1.822     2.111
  71   1 H      0.097  0.903  0.000  0.000     1.812     2.105
  72   7 N     -0.185  1.206  3.978  0.000    24.998     7.426
  73   6 C      0.004  1.042  2.955  0.000    20.517     6.449
  74   6 C      0.282  1.035  2.684  0.000    22.228     7.721
  75   8 O     -0.487  1.737  4.750  0.000    23.498     6.499
  76   6 C     -0.113  1.014  3.099  0.000    22.648     6.772
  77   6 C     -0.033  1.040  2.993  0.000    21.131     6.538
  78   6 C     -0.155  0.982  3.173  0.000    23.551     6.918
  79   6 C     -0.159  0.977  3.182  0.000    23.616     6.925
  80   1 H      0.222  0.778  0.000  0.000     1.000     1.567
  81   1 H      0.110  0.890  0.000  0.000     1.696     2.036
  82   1 H      0.075  0.925  0.000  0.000     2.035     2.231
  83   1 H      0.083  0.917  0.000  0.000     1.952     2.185
  84   1 H      0.062  0.938  0.000  0.000     2.173     2.305
  85   1 H      0.055  0.945  0.000  0.000     2.261     2.351
  86   1 H      0.051  0.949  0.000  0.000     2.304     2.374
  87   1 H      0.045  0.955  0.000  0.000     2.382     2.413
  88   1 H      0.052  0.948  0.000  0.000     2.296     2.369
  89   1 H      0.068  0.932  0.000  0.000     2.102     2.267
  90   1 H      0.062  0.938  0.000  0.000     2.175     2.306
  91   7 N     -0.176  1.197  3.980  0.000    24.817     7.399
  92   6 C     -0.036  1.003  3.033  0.000    21.263     6.574
  93   6 C      0.283  1.034  2.683  0.000    22.209     7.717
  94   8 O     -0.485  1.754  4.731  0.000    23.460     6.494
  95   1 H      0.218  0.782  0.000  0.000     1.016     1.579
  96   1 H      0.087  0.913  0.000  0.000     1.904     2.158
  97   1 H      0.094  0.906  0.000  0.000     1.841     2.122
  98   7 N     -0.202  1.212  3.990  0.000    25.394     7.484
  99   6 C      0.010  1.041  2.949  0.000    20.411     6.432
 100   6 C      0.267  1.045  2.688  0.000    22.492     7.766
 101   8 O     -0.515  1.752  4.763  0.000    24.128     6.586
 102   6 C      0.100  1.025  2.875  0.000    19.021     6.225
 103   8 O     -0.510  1.691  4.819  0.000    23.108     6.489
 104   6 C     -0.203  0.987  3.216  0.000    24.539     7.060
 105   1 H      0.233  0.767  0.000  0.000     0.951     1.527
 106   1 H      0.080  0.920  0.000  0.000     1.978     2.199
 107   1 H      0.057  0.943  0.000  0.000     2.234     2.337
 108   1 H      0.361  0.639  0.000  0.000     0.563     1.178
 109   1 H      0.090  0.910  0.000  0.000     1.873     2.140
 110   1 H      0.104  0.896  0.000  0.000     1.749     2.068
 111   1 H      0.070  0.930  0.000  0.000     2.084     2.257
 112   7 N     -0.184  1.212  3.973  0.000    24.997     7.426
 113   6 C      0.006  1.043  2.951  0.000    20.483     6.445
 114   6 C      0.271  1.043  2.686  0.000    22.418     7.753
 115   8 O     -0.495  1.734  4.761  0.000    23.679     6.524
 116   6 C     -0.177  0.987  3.189  0.000    23.982     6.979
 117   1 H      0.244  0.756  0.000  0.000     0.909     1.493
 118   1 H      0.100  0.900  0.000  0.000     1.782     2.087
 119   1 H      0.091  0.909  0.000  0.000     1.873     2.140
 120   1 H      0.099  0.901  0.000  0.000     1.797     2.096
 121   1 H      0.083  0.917  0.000  0.000     1.944     2.180
 122   7 N     -0.194  1.218  3.976  0.000    25.203     7.456
 123   6 C      0.018  1.042  2.940  0.000    20.270     6.410
 124   6 C      0.273  1.049  2.678  0.000    22.380     7.747
 125   8 O     -0.536  1.761  4.774  0.000    24.589     6.648
 126   6 C     -0.032  1.040  2.992  0.000    21.098     6.532
 127   6 C     -0.095  1.007  3.088  0.000    22.302     6.721
 128   6 C     -0.144  0.975  3.169  0.000    23.318     6.881
 129   6 C     -0.151  0.976  3.176  0.000    23.462     6.904
 130   1 H      0.236  0.764  0.000  0.000     0.938     1.517
 131   1 H      0.088  0.912  0.000  0.000     1.901     2.156
 132   1 H      0.057  0.943  0.000  0.000     2.235     2.338
 133   1 H      0.073  0.927  0.000  0.000     2.056     2.242
 134   1 H      0.052  0.948  0.000  0.000     2.300     2.371
 135   1 H      0.060  0.940  0.000  0.000     2.195     2.317
 136   1 H      0.030  0.970  0.000  0.000     2.587     2.515
 137   1 H      0.064  0.936  0.000  0.000     2.155     2.295
 138   1 H      0.065  0.935  0.000  0.000     2.140     2.287
 139   1 H      0.050  0.950  0.000  0.000     2.325     2.384
 140   1 H      0.057  0.943  0.000  0.000     2.228     2.334
 141   7 N     -0.184  1.219  3.965  0.000    24.996     7.425
 142   6 C      0.036  1.026  2.938  0.000    19.965     6.361
 143   6 C      0.274  1.044  2.682  0.000    22.371     7.746
 144   8 O     -0.525  1.751  4.773  0.000    24.343     6.615
 145   6 C     -0.082  1.006  3.076  0.000    22.043     6.681
 146   6 C     -0.118  1.013  3.105  0.000    22.747     6.788
 147   6 C      0.360  1.028  2.612  0.000    20.889     7.480
 148   8 O     -0.674  1.779  4.895  0.000    28.010     7.096
 149   8 O     -0.650  1.782  4.869  0.000    27.393     7.017
 150   1 H      0.237  0.763  0.000  0.000     0.934     1.514
 151   1 H      0.058  0.942  0.000  0.000     2.216     2.328
 152   1 H      0.078  0.922  0.000  0.000     2.000     2.212
 153   1 H      0.067  0.933  0.000  0.000     2.122     2.278
 154   1 H      0.058  0.942  0.000  0.000     2.220     2.330
 155   1 H      0.041  0.959  0.000  0.000     2.430     2.437
 156   7 N     -0.191  1.217  3.975  0.000    25.148     7.448
 157   6 C      0.005  1.042  2.953  0.000    20.489     6.444
 158   6 C      0.277  1.038  2.686  0.000    22.317     7.736
 159   8 O     -0.505  1.756  4.749  0.000    23.885     6.553
 160   6 C     -0.111  1.005  3.106  0.000    22.607     6.766
 161   6 C     -0.116  1.001  3.116  0.000    22.703     6.780
 162   6 C     -0.052  1.009  3.042  0.000    21.551     6.619
 163   7 N     -0.133  1.181  3.953  0.000    23.886     7.259
 164   6 C      0.211  1.027  2.761  0.000    23.525     7.941
 165   7 N     -0.251  1.164  4.087  0.000    26.528     7.649
 166   7 N     -0.240  1.161  4.079  0.000    26.268     7.612
 167   1 H      0.239  0.761  0.000  0.000     0.926     1.507
 168   1 H      0.101  0.899  0.000  0.000     1.772     2.082
 169   1 H      0.097  0.903  0.000  0.000     1.812     2.105
 170   1 H      0.085  0.915  0.000  0.000     1.926     2.170
 171   1 H      0.093  0.907  0.000  0.000     1.849     2.126
 172   1 H      0.080  0.920  0.000  0.000     1.983     2.202
 173   1 H      0.102  0.898  0.000  0.000     1.768     2.079
 174   1 H      0.116  0.884  0.000  0.000     1.646     2.006
 175   1 H      0.250  0.750  0.000  0.000     0.881     1.470
 176   1 H      0.228  0.772  0.000  0.000     0.975     1.547
 177   1 H      0.247  0.753  0.000  0.000     0.893     1.480
 178   1 H      0.242  0.758  0.000  0.000     0.913     1.497
 179   1 H      0.245  0.755  0.000  0.000     0.904     1.490
 180   7 N     -0.198  1.215  3.983  0.000    25.299     7.470
 181   6 C      0.015  1.040  2.945  0.000    20.324     6.419
 182   6 C      0.279  1.042  2.680  0.000    22.285     7.731
 183   8 O     -0.504  1.759  4.746  0.000    23.875     6.551
 184   6 C     -0.103  1.014  3.089  0.000    22.435     6.740
 185   6 C     -0.028  1.032  2.995  0.000    21.028     6.522
 186   6 C     -0.149  0.975  3.174  0.000    23.400     6.893
 187   6 C     -0.159  0.982  3.178  0.000    23.620     6.925
 188   1 H      0.230  0.770  0.000  0.000     0.966     1.539
 189   1 H      0.091  0.909  0.000  0.000     1.867     2.137
 190   1 H      0.072  0.928  0.000  0.000     2.064     2.247
 191   1 H      0.070  0.930  0.000  0.000     2.080     2.255
 192   1 H      0.058  0.942  0.000  0.000     2.220     2.330
 193   1 H      0.072  0.928  0.000  0.000     2.064     2.247
 194   1 H      0.049  0.951  0.000  0.000     2.329     2.386
 195   1 H      0.049  0.951  0.000  0.000     2.334     2.389
 196   1 H      0.067  0.933  0.000  0.000     2.113     2.273
 197   1 H      0.054  0.946  0.000  0.000     2.271     2.356
 198   1 H      0.052  0.948  0.000  0.000     2.297     2.370
 199   7 N     -0.182  1.206  3.977  0.000    24.946     7.418
 200   6 C      0.016  1.034  2.949  0.000    20.297     6.414
 201   6 C      0.279  1.042  2.680  0.000    22.282     7.730
 202   8 O     -0.478  1.758  4.720  0.000    23.297     6.471
 203   6 C      0.054  0.995  2.951  0.000    19.837     6.373
 204   8 O     -0.506  1.681  4.826  0.000    23.030     6.478
 205   1 H      0.224  0.776  0.000  0.000     0.989     1.558
 206   1 H      0.097  0.903  0.000  0.000     1.810     2.104
 207   1 H      0.056  0.944  0.000  0.000     2.242     2.341
 208   1 H      0.061  0.939  0.000  0.000     2.188     2.313
 209   1 H      0.358  0.642  0.000  0.000     0.570     1.186
 210   7 N     -0.188  1.201  3.987  0.000    25.085     7.439
 211   6 C      0.012  1.034  2.954  0.000    20.382     6.427
 212   6 C      0.275  1.040  2.685  0.000    22.347     7.741
 213   8 O     -0.495  1.767  4.728  0.000    23.667     6.523
 214   6 C      0.054  0.992  2.954  0.000    19.836     6.371
 215   8 O     -0.500  1.680  4.819  0.000    22.880     6.457
 216   1 H      0.215  0.785  0.000  0.000     1.032     1.591
 217   1 H      0.107  0.893  0.000  0.000     1.722     2.052
 218   1 H      0.067  0.933  0.000  0.000     2.122     2.278
 219   1 H      0.057  0.943  0.000  0.000     2.232     2.336
 220   1 H      0.366  0.634  0.000  0.000     0.551     1.165
 221   7 N     -0.160  1.197  3.963  0.000    24.461     7.346
 222   6 C     -0.045  1.006  3.040  0.000    21.450     6.605
 223   6 C      0.196  1.083  2.720  0.000    23.812     7.991
 224   8 O     -0.329  1.742  4.587  0.000    20.319     6.043
 225   1 H      0.219  0.781  0.000  0.000     1.015     1.578
 226   1 H      0.121  0.879  0.000  0.000     1.605     1.981
 227   1 H      0.107  0.893  0.000  0.000     1.720     2.051
 228   7 N     -0.421  1.284  4.137  0.000    30.964     8.264
 229   6 C      0.023  1.038  2.939  0.000    20.206     6.403
 230   6 C      0.277  1.046  2.677  0.000    22.321     7.736
 231   8 O     -0.494  1.751  4.743  0.000    23.656     6.521
 232   6 C     -0.134  1.018  3.116  0.000    23.059     6.834
 233   6 C      0.276  1.042  2.682  0.000    22.326     7.737
 234   8 O     -0.497  1.739  4.758  0.000    23.715     6.529
 235   7 N     -0.292  1.194  4.098  0.000    27.522     7.791
 236   1 H      0.194  0.806  0.000  0.000     1.138     1.671
 237   1 H      0.063  0.937  0.000  0.000     2.167     2.302
 238   1 H      0.091  0.909  0.000  0.000     1.869     2.138
 239   1 H      0.089  0.911  0.000  0.000     1.888     2.148
 240   1 H      0.245  0.755  0.000  0.000     0.901     1.487
 241   1 H      0.230  0.770  0.000  0.000     0.964     1.538
 242   7 N     -0.190  1.210  3.980  0.000    25.120     7.444
 243   6 C      0.002  1.041  2.957  0.000    20.535     6.451
 244   6 C      0.265  1.037  2.698  0.000    22.529     7.773
 245   8 O     -0.482  1.755  4.727  0.000    23.389     6.484
 246   6 C      0.055  0.996  2.949  0.000    19.821     6.370
 247   8 O     -0.505  1.696  4.808  0.000    22.988     6.472
 248   1 H      0.236  0.764  0.000  0.000     0.941     1.520
 249   1 H      0.098  0.902  0.000  0.000     1.800     2.098
 250   1 H      0.064  0.936  0.000  0.000     2.152     2.294
 251   1 H      0.072  0.928  0.000  0.000     2.066     2.248
 252   1 H      0.357  0.643  0.000  0.000     0.572     1.187
 253   7 N     -0.187  1.206  3.980  0.000    25.045     7.433
 254   6 C      0.008  1.039  2.953  0.000    20.451     6.440
 255   6 C      0.200  1.083  2.716  0.000    23.734     7.978
 256   8 O     -0.362  1.770  4.592  0.000    20.934     6.134
 257   6 C     -0.177  0.988  3.189  0.000    23.984     6.979
 258   1 H      0.233  0.767  0.000  0.000     0.951     1.527
 259   1 H      0.114  0.886  0.000  0.000     1.660     2.015
 260   1 H      0.093  0.907  0.000  0.000     1.846     2.125
 261   1 H      0.100  0.900  0.000  0.000     1.787     2.090
 262   1 H      0.094  0.906  0.000  0.000     1.842     2.122
 263   7 N     -0.422  1.287  4.134  0.000    30.979     8.266
 264   6 C      0.019  1.032  2.949  0.000    20.261     6.410
 265   6 C      0.185  1.095  2.720  0.000    24.029     8.028
 266   8 O     -0.370  1.752  4.618  0.000    21.090     6.157
 267   6 C     -0.082  1.005  3.077  0.000    22.021     6.673
 268   6 C     -0.027  1.014  3.012  0.000    21.044     6.530
 269  16 S     -0.238  1.904  4.275  0.058   151.242    20.699
 270   6 C     -0.084  0.980  3.104  0.000    22.155     6.709
 271   1 H      0.185  0.815  0.000  0.000     1.184     1.704
 272   1 H      0.100  0.900  0.000  0.000     1.782     2.087
 273   1 H      0.068  0.932  0.000  0.000     2.109     2.271
 274   1 H      0.059  0.941  0.000  0.000     2.206     2.323
 275   1 H      0.061  0.939  0.000  0.000     2.190     2.314
 276   1 H      0.059  0.941  0.000  0.000     2.215     2.327
 277   1 H      0.088  0.912  0.000  0.000     1.893     2.151
 278   1 H      0.073  0.927  0.000  0.000     2.053     2.241
 279   1 H      0.065  0.935  0.000  0.000     2.143     2.289
 280   7 N     -0.429  1.286  4.142  0.000    31.185     8.294
 281   6 C      0.027  1.030  2.943  0.000    20.128     6.389
 282   6 C      0.256  1.058  2.686  0.000    22.684     7.799
 283   8 O     -0.509  1.755  4.754  0.000    23.992     6.567
 284   6 C     -0.161  0.978  3.183  0.000    23.645     6.928
 285   1 H      0.182  0.818  0.000  0.000     1.200     1.716
 286   1 H      0.060  0.940  0.000  0.000     2.200     2.319
 287   1 H      0.071  0.929  0.000  0.000     2.075     2.252
 288   1 H      0.072  0.928  0.000  0.000     2.060     2.244
 289   1 H      0.074  0.926  0.000  0.000     2.038     2.232
 290   7 N     -0.172  1.209  3.962  0.000    24.721     7.384
 291   6 C      0.012  1.035  2.953  0.000    20.376     6.427
 292   6 C      0.204  1.078  2.719  0.000    23.670     7.968
 293   8 O     -0.351  1.755  4.596  0.000    20.720     6.103
 294   6 C     -0.088  1.007  3.081  0.000    22.156     6.699
 295   6 C     -0.127  1.012  3.115  0.000    22.926     6.814
 296   6 C      0.288  1.033  2.678  0.000    22.109     7.699
 297   8 O     -0.516  1.758  4.757  0.000    24.131     6.586
 298   7 N     -0.294  1.193  4.101  0.000    27.582     7.800
 299   1 H      0.238  0.762  0.000  0.000     0.933     1.513
 300   1 H      0.104  0.896  0.000  0.000     1.747     2.067
 301   1 H      0.081  0.919  0.000  0.000     1.970     2.195
 302   1 H      0.078  0.922  0.000  0.000     1.998     2.210
 303   1 H      0.091  0.909  0.000  0.000     1.867     2.137
 304   1 H      0.096  0.904  0.000  0.000     1.826     2.113
 305   1 H      0.229  0.771  0.000  0.000     0.968     1.541
 306   1 H      0.234  0.766  0.000  0.000     0.946     1.524
 307   7 N     -0.430  1.287  4.142  0.000    31.215     8.298
 308   6 C      0.025  1.031  2.944  0.000    20.159     6.394
 309   6 C      0.198  1.094  2.709  0.000    23.788     7.988
 310   8 O     -0.400  1.760  4.640  0.000    21.690     6.244
 311   6 C     -0.075  1.001  3.074  0.000    21.916     6.662
 312   6 C     -0.121  1.005  3.116  0.000    22.798     6.794
 313   6 C      0.284  1.031  2.686  0.000    22.195     7.714
 314   8 O     -0.521  1.757  4.764  0.000    24.251     6.603
 315   7 N     -0.289  1.189  4.100  0.000    27.465     7.783
 316   1 H      0.203  0.797  0.000  0.000     1.092     1.637
 317   1 H      0.094  0.906  0.000  0.000     1.838     2.120
 318   1 H      0.086  0.914  0.000  0.000     1.916     2.164
 319   1 H      0.055  0.945  0.000  0.000     2.258     2.350
 320   1 H      0.096  0.904  0.000  0.000     1.818     2.108
 321   1 H      0.081  0.919  0.000  0.000     1.964     2.192
 322   1 H      0.234  0.766  0.000  0.000     0.948     1.525
 323   1 H      0.235  0.765  0.000  0.000     0.945     1.523
 324   1 H      0.191  0.809  0.000  0.000     1.154     1.682
 325   1 H      0.099  0.901  0.000  0.000     1.794     2.095
 326   1 H      0.179  0.821  0.000  0.000     1.217     1.728
 327   1 H      0.083  0.917  0.000  0.000     1.945     2.181
 328   1 H      0.189  0.811  0.000  0.000     1.163     1.690
 329   1 H      0.078  0.922  0.000  0.000     2.002     2.212
 330   1 H      0.177  0.823  0.000  0.000     1.228     1.736
 331   1 H      0.072  0.928  0.000  0.000     2.058     2.243
 332   1 H      0.172  0.828  0.000  0.000     1.259     1.758
 333   1 H      0.066  0.934  0.000  0.000     2.127     2.280

 Mol. C6AA /au·bohr⁶  :     997348.274008
 Mol. C8AA /au·bohr⁸  :   22239108.268033
 Mol. α(0) /au        :       1485.245123

 
molecular dipole:
                 x           y           z       tot (Debye)
 q only:      177.424      96.565     331.497
   full:      177.369      95.138     334.230     991.695
molecular quadrupole (traceless):
                xx          xy          yy          xz          yz          zz
 q only:   -28652.368   24571.063  -61763.007   88776.339   48238.672   90415.375
  q+dip:   -29328.916   24120.400  -63003.596   89595.399   48038.795   92332.512
   full:   -29325.490   24118.977  -63005.167   89595.907   48038.988   92330.657
speedup  1.00
cpu  time for grad    5.06 s
wall time for grad    5.06 s

SCC energy    :    -533.6224231
rep           :      10.9754127
ES            :       1.9251383
AES           :      -0.0367137
AXC           :       0.0591252
disp          :      -0.4250021
XB            :       0.0000000
fix           :       0.0000000
Gborn         :       0.0000000
Gsasa         :       0.0000000
Ghb           :       0.0000000
Gshift        :       0.0000000
Gsolv         :      -0.5467361     -343.08
Etot ala COSMO:    -533.6224231
grad norm     :       2.4180171
total E       :    -522.6133295
atomizationE  :      88.9852646    55839.10
(atE without considering molecular charge,
 total energy contains solvation terms)
H-L gap (eV)  :          1.2406

------------------------------------------------------------------------
 * finished run on 2019/03/07 at 11:37:50.667     
------------------------------------------------------------------------
 total:
 * wall-time:     0 d,  0 h,  0 min,  5.603 sec
 *  cpu-time:     0 d,  0 h,  0 min,  5.430 sec
 * ratio c/w:     0.969 speedup
 SCF:
 * wall-time:     0 d,  0 h,  0 min,  5.360 sec
 *  cpu-time:     0 d,  0 h,  0 min,  5.357 sec
 * ratio c/w:     0.999 speedup

