      -----------------------------------------------------------      
     |                   =====================                   |     
     |                           x T B                           |     
     |                   =====================                   |     
     |                         S. Grimme                         |     
     |          Mulliken Center for Theoretical Chemistry        |     
     |                    University of Bonn                     |     
     |                 Version 6.0.1 (SAW181210)                 |     
      -----------------------------------------------------------      

   This program is distributed in the hope that it will be useful,
   but WITHOUT ANY WARRANTY; without even the implied warranty of
   MERCHANTABILITY or FITNESS FOR A PARTICULAR PURPOSE.
   
   FOR NON-COMMERCIAL, ACADEMIA USE ONLY.
   
   Cite this work as:
   S. Grimme, C. Bannwarth, P. Shushkov, J. Comput. Theory Chem., 2017,
   13, 1989-2009.
   C. Bannwarth, S. Ehlert and S. Grimme., ChemRxiv, 2018, preprint.
   http://doi.org/10.26434/chemrxiv.7246238.v1
   
   for sTDA-xTB:
   S. Grimme and C. Bannwarth, J. Chem. Phys., 2016, 145, 054103.
   
   in the mass-spec context:
   V. Asgeirsson, C. Bauer and S. Grimme, Chem. Sci., 2017, 8, 4879.
   
   if GBSA is used:
   P. Shushkov, F. März and S. Grimme, unpublished.
   
   for ANC optimizer:
   S. Grimme, unpublished.
   Rational Function algorithm used in ANCopt:
   F. Eckert, P. Pulay, H.-J. Werner, J. Comput. Chem., 1997, 18, 1473.
   
   with help from (in alphabetical order)
   C. Bannwarth, F. Bohle, G. Brandenburg, E. Caldeweyher, M. Checinski,
   S. Dohm, S. Ehlert, S. Ehrlich, F. März, H. Neugebauer, J. Pisarek,
   P. Pracht, P. Shushkov, and S. Spicher.
   
 * started run on 2019/03/14 at 15:08:21.381     
========================================================================
 # omp threads = 1
========================================================================
number of atoms            : 498
number of electrons        : 1310
charge                     : 0
spin                       : .0
first test random number   : .8967
           ------------------------------------------------- 
          |                 G F N 2 - x T B                 |
          | Geometry, Frequencies, Noncovalent interactions |
          |            JCTC 2018 parametrisation            |
           ------------------------------------------------- 
 
      method parameters     
 k(s)        :  1.8500
 k(p)        :  2.2300
 k(d)        :  2.2300
 k(f)        :  2.0000
 kEN (H0ij)  : -2.0000
 D4 a1       :  0.5200
 D4 a2       :  5.0000
 D4 s6       :  1.0000
 D4 s8       :  2.7000
 D4 s9       :  5.0000
 alphaj      :  2.0000

 Solvent             : h2o
 Using internal parameter file: .param_gbsa2_h2o
 Gsolv ref. state (COSMO-RS): gsolv [1 M gas/solution]
 temperature (mdtemp)       :    298.150000000000     
 dielectric constant        :    80.2000000000000     
 rho                        :    1.00000000000000     
 mass                       :    18.0000000000000     
 surface tension            :    15.5689454083859     
 probe radius               :   0.975313790000000     
 vdW radii scaling          :    1.00000000000000     
 Gshift (Eh)                :   1.857443126794793E-003
 c1                         :    1.55243817000000     
 soset                      :   0.130326360000000     
 HB correction              :  T

            Z     q(EN)     CN     RAES       Cart. coordinates
     1  N   5.0   -0.22    3.20    1.96    78.25094   118.71634    60.80335
     2  C   4.0    0.03    4.22    4.04    79.77262   117.29677    59.02850
     3  C   4.0    0.07    3.23    3.04    78.14614   115.38541    57.60997
     4  O   6.0   -0.31    1.14    1.80    78.67373   114.74353    55.44202
     5  C   4.0   -0.05    4.37    4.33    81.88004   115.80590    60.32562
     6  C   4.0   -0.03    4.18    3.96    83.61021   117.32099    62.07900
     7  C   4.0   -0.08    4.12    3.83    85.30502   115.44642    63.47338
     8  C   4.0   -0.08    4.10    3.81    85.19421   119.23065    60.62255
     9  H   1.0    0.08    1.02    1.43    78.56081   118.44754    62.67818
    10  H   1.0    0.04    1.05    1.44    80.54350   118.59016    57.60212
    11  H   1.0    0.04    1.03    1.43    80.99702   114.29086    61.41190
    12  H   1.0    0.04    1.03    1.43    83.02907   114.96276    58.83395
    13  H   1.0    0.04    1.06    1.44    82.46424   118.31779    63.47395
    14  H   1.0    0.04    1.00    1.43    86.66131   116.42964    64.65800
    15  H   1.0    0.04    1.00    1.43    84.16654   114.21484    64.66115
    16  H   1.0    0.04    1.00    1.43    86.33019   114.27735    62.13104
    17  H   1.0    0.03    1.00    1.43    86.33496   120.33188    61.92687
    18  H   1.0    0.03    1.00    1.43    86.45281   118.25678    59.32508
    19  H   1.0    0.03    1.00    1.43    84.01170   120.52072    59.54755
    20  N   5.0   -0.20    3.20    1.95    74.85298   118.46005    53.22028
    21  C   4.0    0.04    4.24    4.08    76.47584   118.44586    51.01453
    22  C   4.0    0.09    3.24    3.04    76.31625   115.87627    49.71410
    23  O   6.0   -0.33    1.26    1.80    76.31723   115.74815    47.39881
    24  C   4.0   -0.03    4.32    4.24    79.24241   118.99946    51.66604
    25  C   4.0   -0.01    3.56    3.15    80.76481   119.54541    49.32534
    26  C   4.0   -0.05    3.48    3.10    80.58273   121.91017    48.19248
    27  C   4.0   -0.04    3.46    3.10    82.34345   117.74552    48.25559
    28  C   4.0   -0.05    3.37    3.07    82.09333   122.54171    46.15758
    29  C   4.0   -0.05    3.41    3.08    83.80982   118.35024    46.16891
    30  C   4.0   -0.04    3.38    3.07    83.75446   120.77048    45.18442
    31  H   1.0    0.09    1.02    1.43    75.65306   118.78336    54.93524
    32  H   1.0    0.04    1.05    1.44    75.75582   119.83175    49.64229
    33  H   1.0    0.04    1.03    1.43    79.30752   120.63526    52.92347
    34  H   1.0    0.06    1.05    1.44    79.99527   117.36020    52.66007
    35  H   1.0    0.04    1.03    1.43    79.23584   123.25913    48.92196
    36  H   1.0    0.05    1.03    1.43    82.40265   115.85756    49.03503
    37  H   1.0    0.05    1.03    1.43    81.96081   124.39999    45.32498
    38  H   1.0    0.06    1.03    1.43    85.00220   116.95064    45.28169
    39  H   1.0    0.05    1.03    1.43    84.97129   121.24104    43.61911
    40  N   5.0   -0.21    3.22    1.96    73.29306   116.54336    43.49995
    41  C   4.0    0.04    4.26    4.13    74.64215   115.27061    41.50563
    42  C   4.0    0.08    3.23    3.04    73.30653   112.87977    40.65744
    43  O   6.0   -0.28    1.13    1.80    73.36674   112.34460    38.39942
    44  C   4.0   -0.04    4.35    4.30    77.35497   114.56487    42.17551
    45  C   4.0   -0.02    4.17    3.93    79.31453   116.72721    42.19871
    46  C   4.0   -0.07    4.13    3.85    81.40197   116.13015    40.30423
    47  C   4.0   -0.07    4.13    3.85    78.30186   119.36487    41.64637
    48  H   1.0    0.12    1.11    1.44    74.09392   116.42759    45.24130
    49  H   1.0    0.05    1.06    1.44    74.71415   116.46655    39.81086
    50  H   1.0    0.06    1.04    1.43    77.32642   113.63839    44.00607
    51  H   1.0    0.05    1.05    1.44    77.93589   113.18912    40.76098
    52  H   1.0    0.05    1.08    1.44    80.14296   116.80005    44.08498
    53  H   1.0    0.05    1.00    1.43    82.86336   117.56697    40.37918
    54  H   1.0    0.04    1.00    1.43    82.24118   114.30541    40.71996
    55  H   1.0    0.05    1.00    1.43    80.65074   116.08067    38.38936
    56  H   1.0    0.05    1.01    1.43    79.85934   120.69234    41.81697
    57  H   1.0    0.04    1.00    1.43    77.58194   119.49647    39.72794
    58  H   1.0    0.04    1.00    1.43    76.83552   119.90893    42.97440
    59  N   5.0   -0.21    3.23    1.96    73.54776   116.02650    24.57947
    60  C   4.0    0.04    4.33    4.25    75.98723   116.42303    23.41871
    61  C   4.0    0.16    3.41    3.08    76.98636   114.00175    22.21985
    62  O   6.0   -0.26    1.23    1.80    78.08121   114.02113    20.19104
    63  C   4.0   -0.03    4.29    4.18    77.89299   117.59023    25.22179
    64  C   4.0    0.25    3.14    3.03    79.55500   119.62979    23.94343
    65  O   6.0   -0.32    1.28    1.80    80.50554   121.21547    25.43239
    66  O   6.0   -0.27    1.23    1.80    79.80649   119.59390    21.62222
    67  H   1.0    0.08    1.02    1.43    73.37052   115.94930    26.48572
    68  H   1.0    0.07    1.07    1.44    75.69915   117.71663    21.81492
    69  H   1.0    0.05    1.03    1.43    76.88300   118.48578    26.77713
    70  H   1.0    0.06    1.05    1.44    79.23390   116.21541    25.97448
    71  N   5.0   -0.14    3.47    2.06    76.51101   111.84325    23.48908
    72  C   4.0    0.04    4.30    4.19    77.62717   109.49843    22.62838
    73  C   4.0    0.09    3.21    3.04    76.08177   107.23500    23.54584
    74  O   6.0   -0.26    1.13    1.80    76.64502   105.90456    25.32859
    75  C   4.0    0.07    4.17    3.94    80.37364   109.38972    23.57877
    76  O   6.0   -0.22    2.05    1.83    81.43565   106.96633    23.25766
    77  H   1.0    0.08    1.06    1.44    75.79614   111.78957    25.26582
    78  H   1.0    0.06    1.06    1.44    77.59489   109.53758    20.55671
    79  H   1.0    0.08    1.01    1.43    81.47237   110.82813    22.58811
    80  H   1.0    0.07    1.02    1.43    80.34662   109.88800    25.58760
    81  H   1.0    0.14    1.03    1.43    83.12215   107.16782    22.61119
    82  N   5.0   -0.21    3.23    1.96   108.97271   106.20656    39.05837
    83  C   4.0    0.03    4.23    4.06   109.51621   108.37114    37.51294
    84  C   4.0    0.08    3.19    3.04   111.64564   107.89009    35.57919
    85  O   6.0   -0.29    1.12    1.80   111.97256   109.35389    33.81747
    86  C   4.0   -0.03    4.33    4.25   110.30562   110.64507    39.13545
    87  C   4.0   -0.02    3.56    3.15   108.83723   110.91290    41.55686
    88  C   4.0   -0.05    3.53    3.13   110.14403   111.41115    43.77682
    89  C   4.0   -0.05    3.49    3.11   106.24609   110.56069    41.71772
    90  C   4.0   -0.05    3.38    3.07   108.90713   111.90395    46.02388
    91  C   4.0   -0.05    3.42    3.08   105.01816   110.82654    44.02027
    92  C   4.0   -0.05    3.37    3.07   106.30707   111.68332    46.12530
    93  H   1.0    0.08    1.03    1.43   109.99857   106.01778    40.67049
    94  H   1.0    0.04    1.05    1.44   107.80883   108.81376    36.42512
    95  H   1.0    0.04    1.04    1.43   112.30585   110.44769    39.61072
    96  H   1.0    0.05    1.03    1.43   110.10444   112.31645    37.93704
    97  H   1.0    0.04    1.04    1.43   112.18018   111.39439    43.73037
    98  H   1.0    0.04    1.03    1.43   105.18757   110.07627    40.04094
    99  H   1.0    0.04    1.03    1.43   109.98255   112.37895    47.69373
   100  H   1.0    0.04    1.03    1.43   103.05003   110.33188    44.20266
   101  H   1.0    0.04    1.03    1.43   105.29658   112.15233    47.83359
   102  N   5.0   -0.21    3.19    1.95    96.67291    98.03502    27.36193
   103  C   4.0    0.03    4.25    4.09    95.16578    99.96715    28.56721
   104  C   4.0    0.08    3.19    3.03    93.23909    98.89519    30.44575
   105  O   6.0   -0.29    1.12    1.80    92.88244    99.95420    32.46778
   106  C   4.0   -0.04    4.31    4.22    93.87900   101.61635    26.55688
   107  C   4.0   -0.03    4.05    3.70    93.19397   104.22888    27.55143
   108  S   6.0   -0.04    2.55    3.10    95.77926   106.48584    27.45042
   109  C   4.0   -0.07    3.91    3.48    97.86711   105.20459    29.92347
   110  H   1.0    0.08    1.03    1.43    97.40109    98.52867    25.65217
   111  H   1.0    0.04    1.09    1.44    96.44561   101.13511    29.68536
   112  H   1.0    0.04    1.04    1.43    95.12572   101.81261    24.91854
   113  H   1.0    0.05    1.03    1.43    92.15421   100.66149    25.96441
   114  H   1.0    0.06    1.08    1.44    91.73716   105.10635    26.38418
   115  H   1.0    0.06    1.07    1.44    92.50062   104.09030    29.48407
   116  H   1.0    0.05    1.06    1.44    99.10015   106.77251    30.37763
   117  H   1.0    0.05    1.03    1.43    96.68837   104.65231    31.51723
   118  H   1.0    0.04    1.04    1.43    98.95613   103.66647    29.11678
   119  N   5.0   -0.22    3.23    1.96    98.84188   113.99136    57.96010
   120  C   4.0    0.02    4.40    4.38    96.18355   113.57250    57.43750
   121  C   4.0    0.14    3.49    3.11    95.28321   115.47602    55.48309
   122  O   6.0   -0.34    1.41    1.80    94.28999   114.66998    53.53312
   123  C   4.0   -0.03    4.27    4.14    94.61923   113.72070    59.88509
   124  C   4.0   -0.08    4.13    3.86    91.80879   114.13988    59.37746
   125  C   4.0   -0.08    4.11    3.83    94.97382   111.30691    61.41952
   126  H   1.0    0.08    1.03    1.43    99.26481   114.36911    59.79459
   127  H   1.0    0.05    1.06    1.44    95.92567   111.71323    56.54858
   128  H   1.0    0.03    1.06    1.44    95.33466   115.33435    60.95297
   129  H   1.0    0.03    1.00    1.43    90.85984   114.60311    61.13979
   130  H   1.0    0.04    1.01    1.43    91.49413   115.68256    58.06449
   131  H   1.0    0.04    1.00    1.43    90.95988   112.44741    58.58278
   132  H   1.0    0.04    1.00    1.43    94.04998   111.49723    63.24338
   133  H   1.0    0.04    1.00    1.43    94.13792   109.71327    60.42727
   134  H   1.0    0.04    1.00    1.43    96.96841   110.93289    61.71169
   135  N   5.0   -0.15    3.49    2.07    95.61698   117.91335    55.94788
   136  C   4.0    0.03    4.52    4.57    94.66473   119.81942    54.22279
   137  C   4.0    0.15    3.57    3.15    96.08176   119.60056    51.73103
   138  O   6.0   -0.33    1.40    1.80    94.96980   119.89474    49.71587
   139  C   4.0   -0.03    4.30    4.20    94.83064   122.51131    55.31469
   140  C   4.0   -0.05    4.18    3.95    92.68055   123.22428    57.14897
   141  C   4.0   -0.08    4.17    3.94    94.79974   124.46256    53.18225
   142  C   4.0   -0.08    4.03    3.67    91.26655   121.06943    58.41505
   143  H   1.0    0.07    1.06    1.44    96.21954   118.51923    57.67721
   144  H   1.0    0.05    1.07    1.44    92.70266   119.36604    53.73603
   145  H   1.0    0.04    1.06    1.44    96.62930   122.62913    56.32295
   146  H   1.0    0.03    1.03    1.43    93.49345   124.40851    58.62930
   147  H   1.0    0.03    1.04    1.43    91.32060   124.37458    56.11040
   148  H   1.0    0.04    1.00    1.43    94.73752   126.36088    53.96380
   149  H   1.0    0.05    1.00    1.43    96.44295   124.30717    51.96378
   150  H   1.0    0.04    1.00    1.43    93.11832   124.18090    52.03265
   151  H   1.0    0.03    1.00    1.43    89.83725   121.88082    59.64066
   152  H   1.0    0.03    1.00    1.43    90.32441   119.86466    57.04354
   153  H   1.0    0.04    1.00    1.43    92.53368   119.92959    59.54805
   154  N   5.0   -0.15    3.52    2.09    98.52404   119.05979    51.83416
   155  C   4.0    0.03    4.49    4.52    99.82440   118.53601    49.49459
   156  C   4.0    0.16    3.55    3.14    98.52720   116.28505    48.27849
   157  O   6.0   -0.33    1.46    1.80    97.82521   116.39600    46.07871
   158  C   4.0   -0.06    4.35    4.29   102.63853   118.00958    49.81119
   159  C   4.0   -0.03    4.19    3.99   104.09387   120.28599    50.84841
   160  C   4.0   -0.08    4.10    3.81   106.88530   119.64511    51.16420
   161  C   4.0   -0.08    4.13    3.85   103.78543   122.59026    49.15512
   162  H   1.0    0.07    1.06    1.44    99.46930   118.80344    53.48340
   163  H   1.0    0.05    1.06    1.44    99.52394   120.13856    48.21152
   164  H   1.0    0.04    1.03    1.43   102.85876   116.41482    51.09721
   165  H   1.0    0.04    1.03    1.43   103.38812   117.47488    47.96046
   166  H   1.0    0.04    1.06    1.44   103.31946   120.72231    52.70387
   167  H   1.0    0.04    1.00    1.43   107.88650   121.25218    51.96218
   168  H   1.0    0.04    1.00    1.43   107.11771   118.04355    52.42867
   169  H   1.0    0.04    1.00    1.43   107.73177   119.19281    49.34813
   170  H   1.0    0.05    1.00    1.43   105.01813   124.09326    49.81605
   171  H   1.0    0.04    1.00    1.43   104.29368   122.10081    47.22671
   172  H   1.0    0.04    1.00    1.43   101.84241   123.25505    49.19952
   173  N   5.0   -0.14    3.53    2.10    98.19795   114.23267    49.67671
   174  C   4.0    0.03    4.39    4.36    97.12377   111.96539    48.58346
   175  C   4.0    0.17    3.48    3.11    94.53231   112.56594    47.43403
   176  O   6.0   -0.33    1.30    1.80    93.82927   111.51842    45.49481
   177  C   4.0    0.03    4.14    3.87    97.06976   109.84184    50.58192
   178  O   6.0   -0.25    2.06    1.83    94.76000   109.64480    51.85842
   179  H   1.0    0.08    1.06    1.44    98.91466   114.10973    51.45226
   180  H   1.0    0.04    1.05    1.44    98.29211   111.31768    46.99274
   181  H   1.0    0.05    1.02    1.43    97.37956   108.01266    49.69755
   182  H   1.0    0.04    1.02    1.43    98.63017   110.18754    51.89695
   183  H   1.0    0.14    1.06    1.44    94.42219   111.26075    52.66843
   184  N   5.0   -0.13    3.53    2.10    93.18769   114.37316    48.58408
   185  C   4.0    0.04    4.49    4.52    90.70799   115.03123    47.62925
   186  C   4.0    0.15    3.47    3.10    90.91259   116.83937    45.38551
   187  O   6.0   -0.34    1.34    1.80    89.26537   116.81686    43.73224
   188  C   4.0   -0.02    4.25    4.09    88.78348   116.14322    49.53208
   189  C   4.0   -0.07    4.09    3.79    88.52572   114.54228    51.91181
   190  C   4.0   -0.07    4.12    3.84    89.24120   118.93885    50.10312
   191  H   1.0    0.12    1.13    1.45    93.64693   114.91273    50.36906
   192  H   1.0    0.05    1.07    1.44    89.90286   113.27338    46.86681
   193  H   1.0    0.04    1.08    1.44    86.98413   116.01656    48.53697
   194  H   1.0    0.04    1.00    1.43    87.15201   115.39805    53.17961
   195  H   1.0    0.04    1.00    1.43    87.84315   112.67327    51.40278
   196  H   1.0    0.06    1.02    1.43    90.31407   114.36125    52.89153
   197  H   1.0    0.04    1.00    1.43    88.15929   119.53947    51.74419
   198  H   1.0    0.06    1.03    1.43    91.22409   119.32027    50.41636
   199  H   1.0    0.05    1.00    1.43    88.63286   120.08102    48.50707
   200  N   5.0   -0.14    3.55    2.11    92.90123   118.36225    45.31751
   201  C   4.0    0.04    4.51    4.54    93.41270   120.00039    43.18995
   202  C   4.0    0.15    3.51    3.12    94.55975   118.53151    40.99719
   203  O   6.0   -0.33    1.38    1.80    94.23636   119.27247    38.82191
   204  C   4.0   -0.02    4.27    4.15    95.21958   122.17288    43.90245
   205  C   4.0   -0.07    4.15    3.89    96.19303   123.57801    41.57600
   206  C   4.0   -0.07    4.12    3.84    93.88991   124.02575    45.65739
   207  H   1.0    0.12    1.14    1.45    94.01882   118.54415    46.87106
   208  H   1.0    0.05    1.06    1.44    91.60664   120.75072    42.50018
   209  H   1.0    0.05    1.06    1.44    96.81525   121.28842    44.87193
   210  H   1.0    0.04    1.00    1.43    97.32675   125.18589    42.15935
   211  H   1.0    0.05    1.01    1.43    97.33181   122.35966    40.38184
   212  H   1.0    0.05    1.00    1.43    94.62444   124.27692    40.44779
   213  H   1.0    0.04    1.00    1.43    95.17688   125.52184    46.22322
   214  H   1.0    0.04    1.00    1.43    92.29494   124.87457    44.68187
   215  H   1.0    0.06    1.01    1.43    93.21421   123.05043    47.32541
   216  N   5.0   -0.14    3.58    2.14    95.96942   116.53400    41.56607
   217  C   4.0    0.03    4.52    4.57    96.96111   114.95177    39.57036
   218  C   4.0    0.16    3.57    3.15    94.70407   113.47025    38.60563
   219  O   6.0   -0.32    1.49    1.80    94.26486   113.38157    36.33691
   220  C   4.0   -0.03    4.23    4.06    99.24172   113.26380    40.22253
   221  C   4.0   -0.08    4.13    3.87   101.15896   114.83637    41.68972
   222  C   4.0   -0.07    4.12    3.85    98.47772   110.81776    41.54225
   223  H   1.0    0.12    1.17    1.46    96.37370   116.11151    43.38753
   224  H   1.0    0.05    1.06    1.44    97.53647   116.20783    38.01654
   225  H   1.0    0.04    1.06    1.44   100.06186   112.73944    38.39242
   226  H   1.0    0.04    1.03    1.43   102.92769   113.86247    42.01594
   227  H   1.0    0.04    1.00    1.43   101.56820   116.53353    40.61072
   228  H   1.0    0.06    1.03    1.43   100.40155   115.34904    43.51974
   229  H   1.0    0.04    1.00    1.43   100.13961   109.72283    42.03184
   230  H   1.0    0.06    1.01    1.43    97.39389   111.17907    43.24079
   231  H   1.0    0.05    1.01    1.43    97.32654   109.67045    40.28770
   232  N   5.0   -0.14    3.54    2.10    93.13432   112.45503    40.29062
   233  C   4.0    0.04    4.45    4.47    90.66958   111.58012    39.46653
   234  C   4.0    0.16    3.57    3.15    89.54526   113.59172    37.72927
   235  O   6.0   -0.31    1.32    1.80    88.77174   113.03102    35.63336
   236  C   4.0   -0.05    4.38    4.35    88.98023   111.10010    41.75181
   237  C   4.0   -0.02    4.19    3.98    86.23933   110.42009    41.12014
   238  C   4.0   -0.07    4.12    3.83    86.09330   108.26554    39.21549
   239  C   4.0   -0.08    4.11    3.82    84.90486   109.71645    43.58325
   240  H   1.0    0.11    1.11    1.44    93.55459   112.31372    42.15674
   241  H   1.0    0.05    1.05    1.44    90.84549   109.86598    38.30577
   242  H   1.0    0.05    1.03    1.43    89.80034   109.57576    42.85583
   243  H   1.0    0.06    1.05    1.44    88.97894   112.80004    42.90615
   244  H   1.0    0.04    1.05    1.44    85.32637   112.08852    40.30185
   245  H   1.0    0.05    1.00    1.43    84.18712   107.51082    39.14001
   246  H   1.0    0.06    1.00    1.43    86.63052   108.93726    37.35174
   247  H   1.0    0.04    1.00    1.43    87.37034   106.76240    39.76865
   248  H   1.0    0.04    1.00    1.43    82.90255   109.38338    43.27523
   249  H   1.0    0.04    1.00    1.43    85.72670   108.01001    44.37889
   250  H   1.0    0.04    1.00    1.43    85.11319   111.23447    44.95141
   251  N   5.0   -0.14    3.52    2.09    89.49733   115.96881    38.65099
   252  C   4.0    0.05    4.49    4.52    88.05765   117.84221    37.26402
   253  C   4.0    0.16    3.46    3.10    89.29498   118.45802    34.72464
   254  O   6.0   -0.31    1.33    1.80    88.03741   119.14166    32.88856
   255  C   4.0   -0.04    4.29    4.17    87.59981   120.27475    38.74893
   256  C   4.0    0.15    3.23    3.04    85.23583   121.60312    37.73139
   257  O   6.0   -0.30    1.24    1.80    83.85771   120.68278    36.13388
   258  N   5.0   -0.19    3.18    1.95    84.73340   123.86361    38.77112
   259  H   1.0    0.11    1.13    1.45    89.56278   116.22406    40.56674
   260  H   1.0    0.06    1.08    1.44    86.18975   117.04933    36.83069
   261  H   1.0    0.05    1.03    1.43    87.28070   119.76433    40.72526
   262  H   1.0    0.05    1.03    1.43    89.23019   121.52822    38.61287
   263  H   1.0    0.09    1.03    1.43    83.18913   124.78834    38.13717
   264  H   1.0    0.08    1.03    1.43    85.79031   124.63164    40.14666
   265  N   5.0   -0.13    3.58    2.14    91.79334   118.29439    34.66847
   266  C   4.0    0.03    4.42    4.42    93.32018   118.90476    32.47972
   267  C   4.0    0.14    3.49    3.11    93.10740   116.75211    30.55840
   268  O   6.0   -0.32    1.24    1.80    92.53549   117.17577    28.35010
   269  C   4.0   -0.04    4.38    4.35    96.02034   119.37188    33.37396
   270  C   4.0   -0.03    4.17    3.95    97.79488   120.55395    31.41356
   271  C   4.0   -0.08    4.11    3.83    99.65678   122.26468    32.80586
   272  C   4.0   -0.07    4.10    3.80    99.14297   118.51713    29.88265
   273  H   1.0    0.12    1.16    1.46    92.75341   117.99988    36.31201
   274  H   1.0    0.05    1.05    1.44    92.51647   120.58505    31.56320
   275  H   1.0    0.05    1.05    1.44    95.86683   120.63175    34.99645
   276  H   1.0    0.05    1.03    1.43    96.80924   117.57482    34.01009
   277  H   1.0    0.04    1.05    1.44    96.66005   121.69124    30.11207
   278  H   1.0    0.03    1.01    1.43   101.18867   122.84453    31.57891
   279  H   1.0    0.04    1.00    1.43    98.66533   123.92669    33.48257
   280  H   1.0    0.04    1.01    1.43   100.44500   121.26842    34.41200
   281  H   1.0    0.04    1.00    1.43   100.73196   119.30439    28.85135
   282  H   1.0    0.04    1.00    1.43    99.81888   117.01562    31.10754
   283  H   1.0    0.05    1.00    1.43    97.82610   117.69324    28.54109
   284  N   5.0   -0.14    3.64    2.19    93.55092   114.47722    31.55045
   285  C   4.0    0.04    4.47    4.49    93.00466   112.05998    30.41899
   286  C   4.0    0.15    3.48    3.11    90.18720   111.71523    29.88988
   287  O   6.0   -0.28    1.24    1.80    89.32676   109.70413    29.14017
   288  C   4.0   -0.02    4.41    4.40    93.68756   109.98492    32.30744
   289  C   4.0    0.06    3.83    3.37    96.42074   110.03167    32.97290
   290  N   5.0   -0.18    2.57    1.90    98.20318   111.27164    31.58586
   291  C   4.0   -0.01    3.61    3.18    97.57073   108.83270    34.95863
   292  C   4.0    0.06    3.63    3.19   100.36829   110.83009    32.68495
   293  N   5.0   -0.13    3.44    2.04   100.09461   109.34299    34.75234
   294  H   1.0    0.12    1.19    1.46    93.88662   114.32495    33.44107
   295  H   1.0    0.05    1.05    1.44    94.09712   111.81456    28.68195
   296  H   1.0    0.07    1.04    1.44    92.54440   110.27477    33.99721
   297  H   1.0    0.05    1.06    1.44    93.13804   108.18127    31.47557
   298  H   1.0    0.05    1.02    1.43    96.81363   107.69279    36.43935
   299  H   1.0    0.04    1.02    1.43   102.14722   111.51883    32.01204
   300  H   1.0    0.07    1.04    1.43   101.43192   108.72789    35.96748
   301  N   5.0   -0.12    3.59    2.15    88.77003   113.71701    30.53749
   302  C   4.0    0.05    4.55    4.60    86.04994   113.49237    30.51950
   303  C   4.0    0.16    3.64    3.19    84.99820   115.04549    28.29957
   304  O   6.0   -0.26    1.23    1.80    83.76762   114.18574    26.53980
   305  C   4.0   -0.02    4.35    4.30    84.64219   114.24092    32.94067
   306  C   4.0    0.06    3.91    3.48    81.99903   114.75887    32.18813
   307  N   5.0   -0.15    2.66    1.91    80.82009   113.18426    30.51050
   308  C   4.0   -0.00    3.60    3.17    80.57297   116.87198    32.54143
   309  C   4.0    0.07    3.68    3.23    78.76752   114.37167    29.80579
   310  N   5.0   -0.11    3.47    2.06    78.51445   116.58717    31.02216
   311  H   1.0    0.11    1.17    1.46    89.76915   115.09490    31.42366
   312  H   1.0    0.08    1.09    1.44    85.74314   111.50364    30.13913
   313  H   1.0    0.06    1.04    1.43    84.79588   112.73045    34.32275
   314  H   1.0    0.07    1.07    1.44    85.39173   115.98060    33.69754
   315  H   1.0    0.07    1.02    1.43    80.89477   118.49610    33.69925
   316  H   1.0    0.05    1.02    1.43    77.46042   113.65279    28.44405
   317  H   1.0    0.07    1.05    1.44    77.12514   117.85350    30.71236
   318  N   5.0   -0.14    3.61    2.17    85.66882   117.46878    28.60194
   319  C   4.0    0.04    4.41    4.40    85.92418   119.28368    26.59804
   320  C   4.0    0.17    3.47    3.10    87.07319   118.02243    24.26330
   321  O   6.0   -0.27    1.21    1.80    86.63061   118.88531    22.15326
   322  C   4.0   -0.04    4.28    4.16    87.66813   121.41926    27.50826
   323  C   4.0   -0.04    4.17    3.95    88.05103   123.49392    25.53683
   324  C   4.0   -0.00    4.20    3.99    85.75155   125.25486    25.27359
   325  N   5.0   -0.14    3.39    2.02    85.55782   126.27508    22.73268
   326  C   4.0    0.10    3.35    3.06    84.00404   125.39876    20.94235
   327  N   5.0   -0.16    3.31    1.99    81.86120   124.25992    21.51917
   328  N   5.0   -0.18    3.25    1.97    84.43156   126.05013    18.54276
   329  H   1.0    0.11    1.16    1.46    86.60973   117.88877    30.21625
   330  H   1.0    0.08    1.07    1.44    84.07129   120.00950    26.02802
   331  H   1.0    0.06    1.03    1.43    86.89511   122.20920    29.25053
   332  H   1.0    0.06    1.03    1.43    89.47058   120.51486    27.95073
   333  H   1.0    0.04    1.02    1.43    89.72140   124.57905    26.05847
   334  H   1.0    0.07    1.04    1.43    88.39289   122.56837    23.72801
   335  H   1.0    0.06    1.04    1.43    84.04280   124.20338    25.71969
   336  H   1.0    0.04    1.02    1.43    85.89276   126.83079    26.59441
   337  H   1.0    0.08    1.07    1.44    87.13847   127.14733    22.10045
   338  H   1.0    0.12    1.11    1.44    81.61994   123.46606    23.27612
   339  H   1.0    0.11    1.05    1.44    80.97794   123.19665    20.19569
   340  H   1.0    0.09    1.03    1.43    86.03804   126.92539    18.03797
   341  H   1.0    0.09    1.03    1.43    83.23232   125.41915    17.20428
   342  N   5.0   -0.12    3.52    2.09    88.76021   116.19507    24.74609
   343  C   4.0    0.05    4.33    4.25    89.91676   114.60052    22.85878
   344  C   4.0    0.27    3.18    3.03    88.03602   112.45876    22.01654
   345  O   6.0   -0.26    1.16    1.80    87.31004   112.55819    19.78104
   346  C   4.0    0.04    4.16    3.92    92.30845   113.38233    23.92343
   347  O   6.0   -0.24    2.04    1.83    93.74696   112.31207    21.95632
   348  O   6.0   -0.26    1.18    1.80    87.46946   110.84522    23.62923
   349  H   1.0    0.10    1.13    1.45    88.76767   115.44263    26.50009
   350  H   1.0    0.07    1.05    1.44    90.31438   115.74248    21.18167
   351  H   1.0    0.06    1.02    1.43    93.42043   114.81334    24.94189
   352  H   1.0    0.06    1.02    1.43    91.68938   111.90433    25.24683
   353  H   1.0    0.12    1.02    1.43    95.06306   111.28147    22.70398
   354  N   5.0   -0.22    3.22    1.96   107.37660   123.19787    21.81061
   355  C   4.0    0.02    4.39    4.36   106.36219   123.62740    24.32049
   356  C   4.0    0.14    3.47    3.10   107.34062   121.63098    26.16328
   357  O   6.0   -0.34    1.36    1.80   107.81026   122.21311    28.34696
   358  C   4.0   -0.02    4.26    4.13   103.45673   123.65618    24.38636
   359  C   4.0   -0.08    4.16    3.92   102.53140   123.94391    27.10109
   360  C   4.0   -0.08    4.12    3.83   102.40816   125.83871    22.82471
   361  H   1.0    0.08    1.02    1.43   106.17939   122.94147    20.34696
   362  H   1.0    0.04    1.05    1.44   107.05884   125.45544    25.01410
   363  H   1.0    0.04    1.05    1.44   102.79310   121.83557    23.67020
   364  H   1.0    0.04    1.00    1.43   100.47991   123.89514    27.13626
   365  H   1.0    0.05    1.01    1.43   103.26143   122.43154    28.27905
   366  H   1.0    0.04    1.00    1.43   103.14220   125.72927    27.91505
   367  H   1.0    0.04    1.00    1.43   100.35596   125.76743    22.81867
   368  H   1.0    0.04    1.00    1.43   102.96934   127.62045    23.67958
   369  H   1.0    0.04    1.00    1.43   103.07069   125.79631    20.88622
   370  N   5.0   -0.15    3.43    2.04   107.48510   119.22574    25.37270
   371  C   4.0    0.04    4.27    4.13   108.60226   117.32974    27.01047
   372  C   4.0    0.08    3.24    3.04   111.33774   117.95579    27.73122
   373  O   6.0   -0.32    1.23    1.80   112.06096   117.50752    29.88957
   374  C   4.0   -0.07    4.10    3.80   108.54843   114.70949    25.81860
   375  H   1.0    0.08    1.07    1.44   107.47399   118.80595    23.51506
   376  H   1.0    0.05    1.06    1.44   107.55183   117.32158    28.80096
   377  H   1.0    0.05    1.00    1.43   109.28769   113.35758    27.17804
   378  H   1.0    0.04    1.00    1.43   106.63831   114.15072    25.31573
   379  H   1.0    0.04    1.00    1.43   109.77589   114.68047    24.17236
   380  N   5.0   -0.20    3.24    1.97   113.62982   123.58050    27.93980
   381  C   4.0    0.03    4.34    4.28   113.21529   125.81314    29.46042
   382  C   4.0    0.15    3.43    3.09   112.34325   125.16834    32.14003
   383  O   6.0   -0.33    1.34    1.80   113.03347   126.49858    33.90832
   384  C   4.0   -0.04    4.29    4.17   111.14027   127.43925    28.24040
   385  C   4.0   -0.05    4.17    3.94   110.78410   130.01309    29.51764
   386  C   4.0   -0.01    4.20    4.00   112.53167   132.08667    28.51287
   387  N   5.0   -0.14    3.40    2.02   115.17496   131.60633    29.04608
   388  C   4.0    0.09    3.37    3.07   116.76476   130.36734    27.55160
   389  N   5.0   -0.19    3.26    1.97   116.18510   129.73024    25.19490
   390  N   5.0   -0.19    3.25    1.97   119.04937   129.77733    28.43704
   391  H   1.0    0.08    1.03    1.43   112.53807   123.39457    26.37145
   392  H   1.0    0.05    1.07    1.44   115.00721   126.82069    29.66618
   393  H   1.0    0.04    1.03    1.43   111.56695   127.65203    26.23717
   394  H   1.0    0.05    1.04    1.43   109.39038   126.36103    28.40755
   395  H   1.0    0.03    1.03    1.43   108.85508   130.65654    29.20274
   396  H   1.0    0.06    1.04    1.43   111.05091   129.79665    31.54799
   397  H   1.0    0.04    1.03    1.43   112.26952   132.29357    26.48247
   398  H   1.0    0.04    1.03    1.43   112.03263   133.87638    29.40274
   399  H   1.0    0.08    1.07    1.44   115.72032   131.90903    30.85556
   400  H   1.0    0.08    1.03    1.43   114.52144   130.19562    24.39965
   401  H   1.0    0.08    1.03    1.43   117.47389   128.83317    24.12078
   402  H   1.0    0.08    1.03    1.43   119.51729   130.16431    30.24002
   403  H   1.0    0.08    1.03    1.43   120.28846   128.79636    27.37322
   404  N   5.0   -0.14    3.57    2.13   110.72216   123.26564    32.28566
   405  C   4.0    0.03    4.40    4.37   109.57187   122.25984    34.54607
   406  C   4.0    0.15    3.48    3.10   111.42325   120.52086    35.87884
   407  O   6.0   -0.34    1.37    1.80   111.31085   120.17068    38.15936
   408  C   4.0   -0.04    4.38    4.34   107.18247   120.78269    33.85164
   409  C   4.0   -0.02    4.19    3.98   105.95307   119.27023    35.99760
   410  C   4.0   -0.08    4.10    3.80   104.55282   120.95988    37.86192
   411  C   4.0   -0.08    4.12    3.84   104.14677   117.35558    34.81704
   412  H   1.0    0.12    1.14    1.45   110.21174   122.42941    30.63638
   413  H   1.0    0.05    1.05    1.44   109.07175   123.78269    35.85770
   414  H   1.0    0.04    1.03    1.43   105.82262   122.12982    33.08845
   415  H   1.0    0.06    1.04    1.43   107.70663   119.46526    32.35914
   416  H   1.0    0.05    1.06    1.44   107.40413   118.23615    37.04386
   417  H   1.0    0.03    1.00    1.43   103.32742   119.81853    39.05253
   418  H   1.0    0.04    1.00    1.43   105.88053   121.95286    39.06369
   419  H   1.0    0.04    1.00    1.43   103.39403   122.33760    36.87950
   420  H   1.0    0.04    1.00    1.43   102.98780   116.45314    36.25311
   421  H   1.0    0.04    1.01    1.43   102.88992   118.28213    33.49295
   422  H   1.0    0.04    1.00    1.43   105.20861   115.92792    33.79434
   423  N   5.0   -0.14    3.54    2.10   113.16040   119.44510    34.40030
   424  C   4.0    0.04    4.35    4.29   115.11586   117.83300    35.44834
   425  C   4.0    0.09    3.25    3.04   117.07758   119.58742    36.60479
   426  O   6.0   -0.29    1.12    1.80   117.84374   119.25877    38.76681
   427  C   4.0   -0.03    4.32    4.24   116.21037   116.10400    33.42408
   428  C   4.0   -0.01    3.53    3.13   117.90732   114.00201    34.32893
   429  C   4.0   -0.03    3.48    3.11   118.99964   112.46329    32.49410
   430  C   4.0   -0.03    3.47    3.10   118.41317   113.48634    36.84927
   431  C   4.0   -0.04    3.38    3.07   120.58555   110.50068    33.15496
   432  C   4.0   -0.04    3.38    3.07   119.96724   111.48246    37.51415
   433  C   4.0   -0.04    3.37    3.07   121.06323   109.98673    35.67647
   434  H   1.0    0.11    1.14    1.45   112.83044   119.24295    32.52036
   435  H   1.0    0.06    1.06    1.44   114.33027   116.68586    36.98602
   436  H   1.0    0.07    1.04    1.43   114.60818   115.23825    32.45003
   437  H   1.0    0.05    1.03    1.43   117.23614   117.24973    32.04119
   438  H   1.0    0.05    1.03    1.43   118.59363   112.80902    30.52000
   439  H   1.0    0.06    1.04    1.43   117.61887   114.65411    38.31816
   440  H   1.0    0.05    1.03    1.43   121.45245   109.37004    31.69871
   441  H   1.0    0.05    1.03    1.43   120.33972   111.09073    39.47990
   442  H   1.0    0.05    1.03    1.43   122.27098   108.42300    36.18612
   443  N   5.0   -0.20    3.25    1.97   115.62346   125.65603    38.12268
   444  C   4.0    0.03    4.31    4.22   114.23534   126.87276    40.15971
   445  C   4.0    0.16    3.51    3.12   114.07862   125.07548    42.39892
   446  O   6.0   -0.28    1.27    1.80   114.71392   125.79304    44.50644
   447  C   4.0   -0.03    4.32    4.24   111.61445   127.75309    39.26832
   448  C   4.0   -0.01    3.58    3.15   109.68009   127.90653    41.34764
   449  C   4.0   -0.04    3.45    3.10   109.14599   130.15399    42.59498
   450  C   4.0   -0.04    3.50    3.12   108.28867   125.77106    41.96276
   451  C   4.0   -0.03    3.44    3.09   107.24336   130.26327    44.37890
   452  C   4.0   -0.05    3.42    3.09   106.37874   125.85146    43.73676
   453  C   4.0    0.07    3.45    3.09   105.83406   128.11548    44.95278
   454  O   6.0   -0.25    2.11    1.84   103.95505   128.35208    46.69102
   455  H   1.0    0.12    1.11    1.45   114.83710   125.78423    36.36972
   456  H   1.0    0.05    1.05    1.44   115.31259   128.50208    40.86336
   457  H   1.0    0.05    1.03    1.43   111.81179   129.59570    38.37477
   458  H   1.0    0.06    1.04    1.43   110.94358   126.41886    37.85390
   459  H   1.0    0.05    1.03    1.43   110.20224   131.84393    42.16020
   460  H   1.0    0.05    1.04    1.43   108.70285   124.01124    41.02010
   461  H   1.0    0.06    1.03    1.43   106.77997   132.00482    45.33318
   462  H   1.0    0.04    1.03    1.43   105.29501   124.16434    44.11561
   463  H   1.0    0.11    1.04    1.43   103.07499   126.76621    46.90699
   464  N   5.0   -0.14    3.50    2.08   113.22848   122.75300    41.97242
   465  C   4.0    0.05    4.45    4.47   113.05635   121.00793    44.06161
   466  C   4.0    0.10    3.40    3.08   115.63318   120.70975    45.28496
   467  O   6.0   -0.28    1.13    1.80   115.84430   120.81108    47.58974
   468  C   4.0   -0.02    4.29    4.18   112.16683   118.34305    43.33132
   469  C   4.0   -0.07    4.22    4.04   113.05314   116.48249    45.34360
   470  C   4.0   -0.07    4.11    3.82   109.30337   118.17374    43.08448
   471  H   1.0    0.12    1.14    1.45   112.71852   122.10793    40.23937
   472  H   1.0    0.06    1.05    1.44   111.79946   121.80881    45.51226
   473  H   1.0    0.06    1.06    1.44   113.03352   117.85193    41.52323
   474  H   1.0    0.04    1.05    1.44   112.44875   114.61562    44.82879
   475  H   1.0    0.05    1.02    1.43   115.09494   116.45616    45.52037
   476  H   1.0    0.05    1.00    1.43   112.21811   116.95147    47.16079
   477  H   1.0    0.04    1.00    1.43   108.78617   116.33669    42.32489
   478  H   1.0    0.03    1.00    1.43   108.42866   118.38474    44.92997
   479  H   1.0    0.05    1.00    1.43   108.59304   119.62140    41.82628
   480  H   1.0    0.09    1.07    1.44    78.49126   120.38126    60.55262
   481  H   1.0    0.05    1.05    1.44    76.62526   114.63550    58.44401
   482  H   1.0    0.09    1.07    1.44    73.67545   119.67549    53.05093
   483  H   1.0    0.06    1.04    1.44    76.21098   114.29854    50.74886
   484  H   1.0    0.09    1.07    1.44    73.17229   118.20034    43.13608
   485  H   1.0    0.06    1.04    1.43    72.41462   111.79608    41.92282
   486  H   1.0    0.10    1.07    1.44    72.49483   117.28495    24.13201
   487  H   1.0    0.06    1.05    1.44    74.48169   106.76150    22.65895
   488  H   1.0    0.09    1.08    1.44   107.34541   106.25450    39.55046
   489  H   1.0    0.05    1.04    1.43   112.76458   106.37832    35.76245
   490  H   1.0    0.09    1.07    1.44    97.99216    97.63927    28.35969
   491  H   1.0    0.06    1.04    1.43    92.27286    97.32859    30.01771
   492  H   1.0    0.09    1.07    1.44    99.72948   112.60429    57.53493
   493  H   1.0    0.09    1.07    1.44   108.32686   124.52992    21.34672
   494  H   1.0    0.05    1.04    1.43   112.50147   118.71691    26.45157
   495  H   1.0    0.09    1.07    1.44   115.23877   123.55946    27.38898
   496  H   1.0    0.06    1.05    1.44   117.76133   121.03391    35.59920
   497  H   1.0    0.10    1.07    1.44   117.17107   126.34999    37.99664
   498  H   1.0    0.07    1.05    1.44   117.16248   120.43009    44.21067

  Z AO/shell   Hii/eV     exponent
  1     Wed Apr 25 08:07:45 CEST 2018   EN: 2.200 GM2: 0.406  GM3: 0.0800  RAES: 1.40
     1s    -10.707211    1.230000
  6     Wed Apr 25 08:07:45 CEST 2018   EN: 2.550 GM2: 0.538  GM3: 0.1500  RAES: 3.00
     2s    -13.970922    2.096432
     2p    -10.063292    1.800000
  7     Wed Apr 25 08:07:45 CEST 2018   EN: 3.040 GM2: 0.461  GM3:-0.0640  RAES: 1.90
     2s    -16.686243    2.339881
     2p    -12.523956    2.014332
  8     Wed Apr 25 08:07:45 CEST 2018   EN: 3.440 GM2: 0.452  GM3:-0.0517  RAES: 1.80
     2s    -20.229985    2.439742
     2p    -15.503117    2.137023
 16     Tue Apr 24 11:44:34 CEST 2018   EN: 2.580 GM2: 0.340  GM3:-0.0502  RAES: 3.10
     3s    -20.029654    1.981333
     3p    -11.377694    2.025643
     3d     -0.420282    1.702555
 no old-style atom pair restraining (fixing) potential

molecular fragmentation (1/2 indicates fragments):
111111111111111111122222222222222222222222222222222222222222222222222222
222222222222222222222222222222222222222222222222222222222222222222222222
222222222222222222222222222222222222222222222222222222222222222222222222
222222222222222222222222222222222222222222222222222222222222222222222222
222222222222222222222222222222222222222222222222222222222222222222222222
222222222222222222222222222222222222222222222222222222222222222222222222
222222222222222222222222222222222222222222222221122222222222222222
# atoms in fragment 1/2:    21   477
 fragment masses (1/2) :      115.17     3191.95
CMA distance (Bohr)    :  27.250
constraining FC (au)   :  0.0500
           ------------------------------------------------- 
          |        Self-Consistent Charge Iterations        |
           ------------------------------------------------- 

 Ncao       : 1203
 Nao        : 1202
 Nshell     : 732
 Nel        : 1310
 T(el)      :   500.0
 intcut     :    35.0
 scfconv/Eh :  0.100E-06
   qconv/e  :  0.100E-04
 intneglect :  0.100E-08
 broydamp   :      0.400
 iter      E             dE          RMSdq      gap      omega  full diag
   1   -742.9644084 -0.742964E+03  0.439E+00    3.04       0.0  T
   2   -744.5184954 -0.155409E+01  0.210E+00    1.66       1.0  T
   3   -744.6094520 -0.909566E-01  0.118E+00    1.83       1.0  T
   4   -744.7288038 -0.119352E+00  0.234E-01    1.15       1.0  T
   5   -744.7348093 -0.600554E-02  0.117E-01    1.35       1.0  T
   6   -744.7359947 -0.118540E-02  0.542E-02    1.39       1.0  T
   7   -744.7363767 -0.381967E-03  0.269E-02    1.39       1.0  T
   8   -744.7364380 -0.613047E-04  0.142E-02    1.38       1.0  T
   9   -744.7364585 -0.205143E-04  0.725E-03    1.37       1.0  T
  10   -744.7364632 -0.463964E-05  0.346E-03    1.37       1.3  T
  11   -744.7364642 -0.101963E-05  0.162E-03    1.37       2.8  T
  12   -744.7364644 -0.251761E-06  0.739E-04    1.38       6.1  T
  13   -744.7364645 -0.608314E-07  0.325E-04    1.38      13.8  T
  14   -744.7364645 -0.700379E-08  0.148E-04    1.38      30.3  T
  15   -744.7364645 -0.246564E-08  0.575E-05    1.38      78.0  T
  16   -744.7364645 -0.339469E-09  0.266E-05    1.38     168.3  T
speedup  1.00
cpu  time for SCC   10.81 s
wall time for SCC   10.81 s

   *** convergence criteria satisfied after 16 iterations ***

          eigenvalues
 #    :         643        644        645        646        647        648        649        650
 occ. :        2.000      2.000      2.000      2.000      2.000      2.000      2.000      2.000
 eps  :       -10.257    -10.122    -10.100    -10.087    -10.085    -10.037    -10.018    -10.001
 #    :         651        652        653        654        655        656        657        658
 occ. :        2.000      2.000      2.000      2.000      2.000      0.000      0.000      0.000
 eps  :        -9.967     -9.753     -9.738     -9.570     -9.485     -8.109     -7.987     -7.908
 #    :         659        660        661        662        663        664        665        666
 occ. :        0.000      0.000      0.000      0.000      0.000      0.000      0.000      0.000
 eps  :        -7.711     -7.702     -7.678     -7.590     -7.572     -7.260     -6.912     -6.768


   #   Z            q   n(s)   n(p)   n(d)      C6AA      α(0)
   1   7 N     -0.394  1.315  4.078  0.000    30.195     8.161
   2   6 C      0.042  1.054  2.905  0.000    19.893     6.354
   3   6 C      0.193  1.095  2.713  0.000    23.880     8.003
   4   8 O     -0.380  1.759  4.621  0.000    21.278     6.184
   5   6 C     -0.068  1.058  3.010  0.000    21.788     6.643
   6   6 C     -0.008  1.055  2.953  0.000    20.686     6.469
   7   6 C     -0.117  1.042  3.074  0.000    22.781     6.804
   8   6 C     -0.116  1.040  3.076  0.000    22.778     6.805
   9   1 H      0.166  0.834  0.000  0.000     1.297     1.784
  10   1 H      0.053  0.947  0.000  0.000     2.285     2.364
  11   1 H      0.041  0.959  0.000  0.000     2.439     2.442
  12   1 H      0.047  0.953  0.000  0.000     2.356     2.400
  13   1 H      0.034  0.966  0.000  0.000     2.530     2.487
  14   1 H      0.048  0.952  0.000  0.000     2.348     2.396
  15   1 H      0.034  0.966  0.000  0.000     2.524     2.485
  16   1 H      0.043  0.957  0.000  0.000     2.404     2.425
  17   1 H      0.046  0.954  0.000  0.000     2.371     2.408
  18   1 H      0.047  0.953  0.000  0.000     2.355     2.400
  19   1 H      0.038  0.962  0.000  0.000     2.477     2.461
  20   7 N     -0.388  1.316  4.072  0.000    30.049     8.141
  21   6 C      0.048  1.056  2.897  0.000    19.788     6.336
  22   6 C      0.196  1.094  2.710  0.000    23.819     7.993
  23   8 O     -0.376  1.753  4.623  0.000    21.212     6.175
  24   6 C     -0.076  1.057  3.019  0.000    21.944     6.668
  25   6 C      0.012  1.083  2.905  0.000    27.738     8.639
  26   6 C     -0.040  1.080  2.960  0.000    29.001     8.832
  27   6 C     -0.036  1.079  2.957  0.000    28.903     8.816
  28   6 C     -0.034  1.081  2.954  0.000    28.856     8.809
  29   6 C     -0.029  1.080  2.949  0.000    28.725     8.789
  30   6 C     -0.035  1.076  2.959  0.000    28.870     8.811
  31   1 H      0.158  0.842  0.000  0.000     1.348     1.819
  32   1 H      0.047  0.953  0.000  0.000     2.364     2.405
  33   1 H      0.062  0.938  0.000  0.000     2.171     2.304
  34   1 H      0.073  0.927  0.000  0.000     2.052     2.240
  35   1 H      0.045  0.955  0.000  0.000     2.388     2.417
  36   1 H      0.028  0.972  0.000  0.000     2.611     2.527
  37   1 H      0.045  0.955  0.000  0.000     2.387     2.416
  38   1 H      0.035  0.965  0.000  0.000     2.522     2.484
  39   1 H      0.021  0.979  0.000  0.000     2.725     2.582
  40   7 N     -0.405  1.325  4.080  0.000    30.520     8.205
  41   6 C      0.045  1.051  2.904  0.000    19.831     6.343
  42   6 C      0.200  1.092  2.709  0.000    23.748     7.981
  43   8 O     -0.405  1.767  4.639  0.000    21.789     6.258
  44   6 C     -0.071  1.058  3.013  0.000    21.854     6.654
  45   6 C     -0.009  1.056  2.952  0.000    20.699     6.471
  46   6 C     -0.100  1.039  3.061  0.000    22.460     6.756
  47   6 C     -0.109  1.038  3.070  0.000    22.631     6.783
  48   1 H      0.201  0.799  0.000  0.000     1.103     1.645
  49   1 H      0.047  0.953  0.000  0.000     2.355     2.400
  50   1 H      0.066  0.934  0.000  0.000     2.129     2.282
  51   1 H      0.025  0.975  0.000  0.000     2.666     2.553
  52   1 H      0.049  0.951  0.000  0.000     2.327     2.386
  53   1 H      0.032  0.968  0.000  0.000     2.557     2.500
  54   1 H      0.026  0.974  0.000  0.000     2.647     2.544
  55   1 H      0.017  0.983  0.000  0.000     2.776     2.605
  56   1 H      0.042  0.958  0.000  0.000     2.417     2.431
  57   1 H      0.028  0.972  0.000  0.000     2.618     2.530
  58   1 H      0.048  0.952  0.000  0.000     2.345     2.395
  59   7 N     -0.400  1.314  4.086  0.000    30.362     8.184
  60   6 C      0.042  1.053  2.905  0.000    19.882     6.351
  61   6 C      0.282  1.048  2.670  0.000    22.231     7.721
  62   8 O     -0.489  1.755  4.734  0.000    23.543     6.505
  63   6 C     -0.092  1.066  3.026  0.000    22.247     6.715
  64   6 C      0.367  1.024  2.610  0.000    20.781     7.460
  65   8 O     -0.612  1.754  4.858  0.000    26.411     6.890
  66   8 O     -0.601  1.767  4.834  0.000    26.144     6.855
  67   1 H      0.160  0.840  0.000  0.000     1.337     1.812
  68   1 H      0.054  0.946  0.000  0.000     2.266     2.354
  69   1 H      0.038  0.962  0.000  0.000     2.472     2.459
  70   1 H      0.011  0.989  0.000  0.000     2.875     2.652
  71   7 N     -0.178  1.247  3.932  0.000    24.862     7.405
  72   6 C      0.023  1.060  2.917  0.000    20.202     6.401
  73   6 C      0.202  1.081  2.717  0.000    23.710     7.974
  74   8 O     -0.330  1.748  4.582  0.000    20.335     6.046
  75   6 C      0.102  1.025  2.873  0.000    19.104     6.261
  76   8 O     -0.458  1.700  4.758  0.000    22.015     6.334
  77   1 H      0.203  0.797  0.000  0.000     1.091     1.636
  78   1 H      0.093  0.907  0.000  0.000     1.847     2.126
  79   1 H      0.008  0.992  0.000  0.000     2.925     2.675
  80   1 H      0.032  0.968  0.000  0.000     2.554     2.499
  81   1 H      0.324  0.676  0.000  0.000     0.654     1.270
  82   7 N     -0.390  1.314  4.076  0.000    30.096     8.148
  83   6 C      0.040  1.056  2.905  0.000    19.927     6.359
  84   6 C      0.195  1.094  2.711  0.000    23.843     7.997
  85   8 O     -0.372  1.754  4.618  0.000    21.132     6.163
  86   6 C     -0.069  1.054  3.015  0.000    21.809     6.647
  87   6 C      0.014  1.079  2.907  0.000    27.695     8.632
  88   6 C     -0.041  1.081  2.960  0.000    29.019     8.835
  89   6 C     -0.042  1.076  2.966  0.000    29.046     8.838
  90   6 C     -0.031  1.082  2.950  0.000    28.777     8.797
  91   6 C     -0.039  1.082  2.958  0.000    28.982     8.828
  92   6 C     -0.036  1.079  2.957  0.000    28.901     8.816
  93   1 H      0.161  0.839  0.000  0.000     1.326     1.804
  94   1 H      0.065  0.935  0.000  0.000     2.142     2.289
  95   1 H      0.044  0.956  0.000  0.000     2.398     2.422
  96   1 H      0.065  0.935  0.000  0.000     2.137     2.286
  97   1 H      0.038  0.962  0.000  0.000     2.477     2.461
  98   1 H      0.035  0.965  0.000  0.000     2.511     2.478
  99   1 H      0.047  0.953  0.000  0.000     2.363     2.404
 100   1 H      0.044  0.956  0.000  0.000     2.395     2.420
 101   1 H      0.044  0.956  0.000  0.000     2.397     2.421
 102   7 N     -0.394  1.319  4.075  0.000    30.202     8.162
 103   6 C      0.034  1.053  2.913  0.000    20.028     6.375
 104   6 C      0.202  1.091  2.707  0.000    23.712     7.975
 105   8 O     -0.381  1.759  4.623  0.000    21.311     6.189
 106   6 C     -0.061  1.057  3.003  0.000    21.644     6.620
 107   6 C      0.010  1.055  2.935  0.000    20.414     6.434
 108  16 S     -0.243  1.926  4.260  0.057   151.461    20.714
 109   6 C     -0.071  1.064  3.008  0.000    21.940     6.683
 110   1 H      0.175  0.825  0.000  0.000     1.245     1.748
 111   1 H      0.060  0.940  0.000  0.000     2.199     2.319
 112   1 H      0.076  0.924  0.000  0.000     2.019     2.222
 113   1 H      0.044  0.956  0.000  0.000     2.399     2.422
 114   1 H      0.016  0.984  0.000  0.000     2.795     2.614
 115   1 H      0.025  0.975  0.000  0.000     2.656     2.549
 116   1 H      0.091  0.909  0.000  0.000     1.869     2.138
 117   1 H      0.059  0.941  0.000  0.000     2.215     2.327
 118   1 H      0.088  0.912  0.000  0.000     1.903     2.157
 119   7 N     -0.391  1.315  4.076  0.000    30.135     8.153
 120   6 C      0.021  1.062  2.917  0.000    20.234     6.406
 121   6 C      0.264  1.050  2.686  0.000    22.540     7.775
 122   8 O     -0.502  1.739  4.763  0.000    23.835     6.546
 123   6 C     -0.023  1.066  2.957  0.000    20.949     6.510
 124   6 C     -0.119  1.039  3.080  0.000    22.827     6.812
 125   6 C     -0.116  1.039  3.076  0.000    22.763     6.802
 126   1 H      0.168  0.832  0.000  0.000     1.283     1.774
 127   1 H      0.047  0.953  0.000  0.000     2.358     2.401
 128   1 H      0.045  0.955  0.000  0.000     2.380     2.412
 129   1 H      0.053  0.947  0.000  0.000     2.286     2.365
 130   1 H      0.040  0.960  0.000  0.000     2.455     2.450
 131   1 H      0.041  0.959  0.000  0.000     2.437     2.441
 132   1 H      0.049  0.951  0.000  0.000     2.335     2.390
 133   1 H      0.042  0.958  0.000  0.000     2.424     2.435
 134   1 H      0.043  0.957  0.000  0.000     2.406     2.426
 135   7 N     -0.159  1.245  3.914  0.000    24.441     7.342
 136   6 C      0.006  1.065  2.929  0.000    20.485     6.444
 137   6 C      0.271  1.040  2.688  0.000    22.421     7.755
 138   8 O     -0.475  1.738  4.738  0.000    23.247     6.464
 139   6 C     -0.029  1.068  2.961  0.000    21.062     6.528
 140   6 C     -0.074  1.054  3.020  0.000    21.906     6.663
 141   6 C     -0.121  1.042  3.079  0.000    22.860     6.816
 142   6 C     -0.116  1.037  3.079  0.000    22.775     6.806
 143   1 H      0.226  0.774  0.000  0.000     0.983     1.553
 144   1 H      0.092  0.908  0.000  0.000     1.861     2.133
 145   1 H      0.058  0.942  0.000  0.000     2.219     2.330
 146   1 H      0.051  0.949  0.000  0.000     2.303     2.373
 147   1 H      0.053  0.947  0.000  0.000     2.287     2.365
 148   1 H      0.059  0.941  0.000  0.000     2.212     2.326
 149   1 H      0.046  0.954  0.000  0.000     2.376     2.410
 150   1 H      0.052  0.948  0.000  0.000     2.293     2.368
 151   1 H      0.050  0.950  0.000  0.000     2.316     2.380
 152   1 H      0.034  0.966  0.000  0.000     2.524     2.484
 153   1 H      0.044  0.956  0.000  0.000     2.390     2.417
 154   7 N     -0.168  1.238  3.931  0.000    24.645     7.373
 155   6 C      0.012  1.060  2.928  0.000    20.370     6.424
 156   6 C      0.272  1.040  2.688  0.000    22.413     7.753
 157   8 O     -0.471  1.731  4.741  0.000    23.152     6.451
 158   6 C     -0.084  1.060  3.024  0.000    22.088     6.690
 159   6 C     -0.016  1.055  2.960  0.000    20.818     6.490
 160   6 C     -0.117  1.040  3.076  0.000    22.787     6.806
 161   6 C     -0.125  1.041  3.085  0.000    22.959     6.832
 162   1 H      0.220  0.780  0.000  0.000     1.009     1.573
 163   1 H      0.098  0.902  0.000  0.000     1.802     2.100
 164   1 H      0.060  0.940  0.000  0.000     2.203     2.321
 165   1 H      0.073  0.927  0.000  0.000     2.054     2.241
 166   1 H      0.048  0.952  0.000  0.000     2.348     2.396
 167   1 H      0.043  0.957  0.000  0.000     2.406     2.426
 168   1 H      0.045  0.955  0.000  0.000     2.382     2.414
 169   1 H      0.042  0.958  0.000  0.000     2.427     2.436
 170   1 H      0.052  0.948  0.000  0.000     2.296     2.370
 171   1 H      0.048  0.952  0.000  0.000     2.341     2.393
 172   1 H      0.040  0.960  0.000  0.000     2.448     2.447
 173   7 N     -0.172  1.243  3.929  0.000    24.714     7.383
 174   6 C      0.005  1.068  2.927  0.000    20.495     6.446
 175   6 C      0.285  1.038  2.677  0.000    22.177     7.712
 176   8 O     -0.501  1.746  4.755  0.000    23.800     6.541
 177   6 C      0.072  1.038  2.890  0.000    19.593     6.342
 178   8 O     -0.485  1.728  4.757  0.000    22.580     6.415
 179   1 H      0.213  0.787  0.000  0.000     1.044     1.600
 180   1 H      0.083  0.917  0.000  0.000     1.951     2.184
 181   1 H      0.070  0.930  0.000  0.000     2.090     2.261
 182   1 H      0.051  0.949  0.000  0.000     2.303     2.373
 183   1 H      0.334  0.666  0.000  0.000     0.628     1.245
 184   7 N     -0.193  1.258  3.935  0.000    25.189     7.454
 185   6 C      0.022  1.061  2.917  0.000    20.211     6.401
 186   6 C      0.270  1.045  2.685  0.000    22.439     7.757
 187   8 O     -0.521  1.748  4.773  0.000    24.259     6.604
 188   6 C     -0.021  1.060  2.961  0.000    20.914     6.505
 189   6 C     -0.121  1.039  3.082  0.000    22.879     6.821
 190   6 C     -0.129  1.040  3.089  0.000    23.044     6.845
 191   1 H      0.247  0.753  0.000  0.000     0.895     1.482
 192   1 H      0.059  0.941  0.000  0.000     2.208     2.324
 193   1 H      0.048  0.952  0.000  0.000     2.346     2.395
 194   1 H      0.052  0.948  0.000  0.000     2.299     2.371
 195   1 H      0.035  0.965  0.000  0.000     2.522     2.483
 196   1 H      0.066  0.934  0.000  0.000     2.133     2.284
 197   1 H      0.053  0.947  0.000  0.000     2.280     2.361
 198   1 H      0.075  0.925  0.000  0.000     2.030     2.228
 199   1 H      0.030  0.970  0.000  0.000     2.591     2.517
 200   7 N     -0.179  1.252  3.927  0.000    24.886     7.409
 201   6 C      0.016  1.063  2.920  0.000    20.301     6.415
 202   6 C      0.268  1.045  2.687  0.000    22.479     7.765
 203   8 O     -0.502  1.741  4.760  0.000    23.818     6.543
 204   6 C     -0.019  1.063  2.956  0.000    20.870     6.497
 205   6 C     -0.121  1.040  3.081  0.000    22.879     6.820
 206   6 C     -0.129  1.042  3.087  0.000    23.025     6.841
 207   1 H      0.254  0.746  0.000  0.000     0.869     1.461
 208   1 H      0.065  0.935  0.000  0.000     2.147     2.291
 209   1 H      0.060  0.940  0.000  0.000     2.198     2.318
 210   1 H      0.067  0.933  0.000  0.000     2.122     2.278
 211   1 H      0.044  0.956  0.000  0.000     2.397     2.421
 212   1 H      0.042  0.958  0.000  0.000     2.417     2.431
 213   1 H      0.063  0.937  0.000  0.000     2.164     2.301
 214   1 H      0.042  0.958  0.000  0.000     2.417     2.431
 215   1 H      0.065  0.935  0.000  0.000     2.146     2.291
 216   7 N     -0.196  1.252  3.944  0.000    25.250     7.463
 217   6 C      0.018  1.063  2.919  0.000    20.270     6.409
 218   6 C      0.278  1.042  2.680  0.000    22.305     7.735
 219   8 O     -0.503  1.745  4.758  0.000    23.841     6.547
 220   6 C     -0.021  1.061  2.959  0.000    20.907     6.504
 221   6 C     -0.139  1.039  3.099  0.000    23.223     6.871
 222   6 C     -0.129  1.039  3.089  0.000    23.033     6.843
 223   1 H      0.256  0.744  0.000  0.000     0.859     1.452
 224   1 H      0.075  0.925  0.000  0.000     2.033     2.230
 225   1 H      0.046  0.954  0.000  0.000     2.365     2.405
 226   1 H      0.073  0.927  0.000  0.000     2.058     2.243
 227   1 H      0.049  0.951  0.000  0.000     2.331     2.387
 228   1 H      0.070  0.930  0.000  0.000     2.091     2.261
 229   1 H      0.066  0.934  0.000  0.000     2.125     2.279
 230   1 H      0.055  0.945  0.000  0.000     2.264     2.353
 231   1 H      0.024  0.976  0.000  0.000     2.671     2.556
 232   7 N     -0.195  1.254  3.941  0.000    25.233     7.461
 233   6 C      0.034  1.058  2.908  0.000    19.997     6.367
 234   6 C      0.295  1.039  2.666  0.000    21.995     7.681
 235   8 O     -0.516  1.768  4.748  0.000    24.137     6.587
 236   6 C     -0.083  1.060  3.023  0.000    22.077     6.688
 237   6 C     -0.004  1.053  2.951  0.000    20.620     6.459
 238   6 C     -0.110  1.037  3.074  0.000    22.667     6.788
 239   6 C     -0.116  1.043  3.073  0.000    22.769     6.803
 240   1 H      0.242  0.758  0.000  0.000     0.914     1.498
 241   1 H      0.046  0.954  0.000  0.000     2.369     2.407
 242   1 H      0.070  0.930  0.000  0.000     2.080     2.256
 243   1 H      0.067  0.933  0.000  0.000     2.118     2.276
 244   1 H      0.011  0.989  0.000  0.000     2.876     2.652
 245   1 H      0.041  0.959  0.000  0.000     2.439     2.442
 246   1 H      0.014  0.986  0.000  0.000     2.824     2.628
 247   1 H      0.048  0.952  0.000  0.000     2.350     2.397
 248   1 H      0.042  0.958  0.000  0.000     2.420     2.433
 249   1 H      0.055  0.945  0.000  0.000     2.264     2.353
 250   1 H      0.047  0.953  0.000  0.000     2.357     2.401
 251   7 N     -0.234  1.285  3.949  0.000    26.122     7.591
 252   6 C      0.045  1.048  2.906  0.000    19.814     6.337
 253   6 C      0.276  1.041  2.682  0.000    22.326     7.737
 254   8 O     -0.528  1.753  4.774  0.000    24.409     6.624
 255   6 C     -0.104  1.063  3.042  0.000    22.487     6.750
 256   6 C      0.289  1.035  2.676  0.000    22.101     7.698
 257   8 O     -0.491  1.761  4.730  0.000    23.580     6.511
 258   7 N     -0.287  1.262  4.025  0.000    27.407     7.775
 259   1 H      0.242  0.758  0.000  0.000     0.913     1.497
 260   1 H      0.056  0.944  0.000  0.000     2.242     2.342
 261   1 H      0.095  0.905  0.000  0.000     1.827     2.114
 262   1 H      0.081  0.919  0.000  0.000     1.967     2.194
 263   1 H      0.241  0.759  0.000  0.000     0.921     1.503
 264   1 H      0.238  0.762  0.000  0.000     0.931     1.512
 265   7 N     -0.203  1.264  3.939  0.000    25.420     7.488
 266   6 C      0.026  1.063  2.911  0.000    20.136     6.390
 267   6 C      0.277  1.040  2.682  0.000    22.308     7.734
 268   8 O     -0.529  1.764  4.765  0.000    24.436     6.628
 269   6 C     -0.086  1.063  3.023  0.000    22.138     6.697
 270   6 C     -0.011  1.055  2.956  0.000    20.743     6.478
 271   6 C     -0.134  1.045  3.088  0.000    23.118     6.855
 272   6 C     -0.119  1.041  3.078  0.000    22.836     6.814
 273   1 H      0.252  0.748  0.000  0.000     0.875     1.466
 274   1 H      0.061  0.939  0.000  0.000     2.185     2.312
 275   1 H      0.090  0.910  0.000  0.000     1.882     2.145
 276   1 H      0.054  0.946  0.000  0.000     2.270     2.356
 277   1 H      0.025  0.975  0.000  0.000     2.657     2.549
 278   1 H      0.065  0.935  0.000  0.000     2.138     2.286
 279   1 H      0.048  0.952  0.000  0.000     2.344     2.394
 280   1 H      0.064  0.936  0.000  0.000     2.155     2.296
 281   1 H      0.064  0.936  0.000  0.000     2.156     2.296
 282   1 H      0.051  0.949  0.000  0.000     2.312     2.378
 283   1 H      0.013  0.987  0.000  0.000     2.845     2.638
 284   7 N     -0.204  1.260  3.945  0.000    25.442     7.491
 285   6 C      0.048  1.050  2.902  0.000    19.769     6.331
 286   6 C      0.284  1.041  2.675  0.000    22.190     7.715
 287   8 O     -0.521  1.761  4.760  0.000    24.254     6.603
 288   6 C     -0.050  1.043  3.007  0.000    21.453     6.592
 289   6 C      0.070  1.061  2.869  0.000    26.007     8.322
 290   7 N     -0.291  1.489  3.802  0.000    28.387     7.900
 291   6 C     -0.032  1.061  2.971  0.000    28.745     8.794
 292   6 C      0.077  1.064  2.859  0.000    26.046     8.351
 293   7 N     -0.091  1.240  3.851  0.000    23.019     7.126
 294   1 H      0.262  0.738  0.000  0.000     0.837     1.433
 295   1 H      0.062  0.938  0.000  0.000     2.172     2.305
 296   1 H      0.043  0.957  0.000  0.000     2.414     2.430
 297   1 H      0.041  0.959  0.000  0.000     2.441     2.443
 298   1 H      0.034  0.966  0.000  0.000     2.523     2.484
 299   1 H      0.077  0.923  0.000  0.000     2.015     2.220
 300   1 H      0.213  0.787  0.000  0.000     1.041     1.598
 301   7 N     -0.221  1.265  3.956  0.000    25.818     7.547
 302   6 C      0.058  1.049  2.893  0.000    19.584     6.297
 303   6 C      0.308  1.034  2.657  0.000    21.769     7.640
 304   8 O     -0.538  1.773  4.765  0.000    24.655     6.657
 305   6 C     -0.069  1.048  3.021  0.000    21.813     6.648
 306   6 C      0.061  1.064  2.875  0.000    25.969     8.289
 307   7 N     -0.334  1.509  3.825  0.000    29.511     8.055
 308   6 C     -0.031  1.066  2.964  0.000    28.725     8.791
 309   6 C      0.100  1.052  2.848  0.000    25.542     8.269
 310   7 N     -0.100  1.241  3.859  0.000    23.187     7.152
 311   1 H      0.218  0.782  0.000  0.000     1.018     1.580
 312   1 H      0.051  0.949  0.000  0.000     2.306     2.375
 313   1 H      0.057  0.943  0.000  0.000     2.237     2.339
 314   1 H      0.071  0.929  0.000  0.000     2.073     2.251
 315   1 H      0.076  0.924  0.000  0.000     2.020     2.223
 316   1 H      0.025  0.975  0.000  0.000     2.655     2.548
 317   1 H      0.202  0.798  0.000  0.000     1.093     1.638
 318   7 N     -0.236  1.272  3.965  0.000    26.180     7.599
 319   6 C      0.036  1.057  2.907  0.000    19.976     6.365
 320   6 C      0.285  1.043  2.672  0.000    22.180     7.712
 321   8 O     -0.515  1.743  4.772  0.000    24.116     6.584
 322   6 C     -0.074  1.058  3.016  0.000    21.912     6.664
 323   6 C     -0.082  1.055  3.027  0.000    22.070     6.689
 324   6 C     -0.028  1.054  2.974  0.000    21.156     6.563
 325   7 N     -0.153  1.226  3.928  0.000    24.318     7.324
 326   6 C      0.242  1.023  2.736  0.000    22.955     7.844
 327   7 N     -0.261  1.268  3.993  0.000    26.764     7.683
 328   7 N     -0.268  1.239  4.029  0.000    26.936     7.708
 329   1 H      0.241  0.759  0.000  0.000     0.918     1.501
 330   1 H      0.067  0.933  0.000  0.000     2.121     2.278
 331   1 H      0.074  0.926  0.000  0.000     2.044     2.236
 332   1 H      0.054  0.946  0.000  0.000     2.268     2.355
 333   1 H      0.086  0.914  0.000  0.000     1.914     2.164
 334   1 H      0.053  0.947  0.000  0.000     2.283     2.363
 335   1 H      0.074  0.926  0.000  0.000     2.039     2.233
 336   1 H      0.103  0.897  0.000  0.000     1.753     2.071
 337   1 H      0.243  0.757  0.000  0.000     0.913     1.497
 338   1 H      0.238  0.762  0.000  0.000     0.933     1.514
 339   1 H      0.222  0.778  0.000  0.000     1.002     1.568
 340   1 H      0.262  0.738  0.000  0.000     0.840     1.436
 341   1 H      0.245  0.755  0.000  0.000     0.901     1.487
 342   7 N     -0.199  1.259  3.940  0.000    25.320     7.473
 343   6 C      0.024  1.070  2.906  0.000    20.193     6.401
 344   6 C      0.372  1.024  2.604  0.000    20.699     7.445
 345   8 O     -0.636  1.767  4.869  0.000    27.016     6.969
 346   6 C      0.093  1.036  2.871  0.000    19.246     6.285
 347   8 O     -0.484  1.725  4.759  0.000    22.553     6.411
 348   8 O     -0.636  1.775  4.862  0.000    27.023     6.970
 349   1 H      0.186  0.814  0.000  0.000     1.183     1.704
 350   1 H      0.041  0.959  0.000  0.000     2.442     2.444
 351   1 H      0.047  0.953  0.000  0.000     2.361     2.403
 352   1 H     -0.003  1.003  0.000  0.000     3.113     2.759
 353   1 H      0.354  0.646  0.000  0.000     0.580     1.196
 354   7 N     -0.394  1.306  4.087  0.000    30.197     8.161
 355   6 C      0.022  1.064  2.914  0.000    20.218     6.404
 356   6 C      0.261  1.053  2.686  0.000    22.600     7.785
 357   8 O     -0.469  1.730  4.739  0.000    23.118     6.446
 358   6 C     -0.018  1.061  2.957  0.000    20.868     6.497
 359   6 C     -0.117  1.041  3.076  0.000    22.787     6.806
 360   6 C     -0.115  1.039  3.076  0.000    22.745     6.799
 361   1 H      0.154  0.846  0.000  0.000     1.374     1.836
 362   1 H      0.057  0.943  0.000  0.000     2.240     2.341
 363   1 H      0.031  0.969  0.000  0.000     2.577     2.510
 364   1 H      0.039  0.961  0.000  0.000     2.465     2.455
 365   1 H      0.042  0.958  0.000  0.000     2.419     2.432
 366   1 H      0.053  0.947  0.000  0.000     2.289     2.366
 367   1 H      0.036  0.964  0.000  0.000     2.506     2.475
 368   1 H      0.053  0.947  0.000  0.000     2.279     2.361
 369   1 H      0.041  0.959  0.000  0.000     2.438     2.442
 370   7 N     -0.173  1.256  3.918  0.000    24.755     7.389
 371   6 C      0.027  1.056  2.916  0.000    20.122     6.388
 372   6 C      0.194  1.093  2.712  0.000    23.848     7.998
 373   8 O     -0.351  1.741  4.609  0.000    20.724     6.103
 374   6 C     -0.135  1.043  3.092  0.000    23.145     6.859
 375   1 H      0.219  0.781  0.000  0.000     1.012     1.576
 376   1 H      0.090  0.910  0.000  0.000     1.877     2.142
 377   1 H      0.076  0.924  0.000  0.000     2.023     2.224
 378   1 H      0.080  0.920  0.000  0.000     1.979     2.200
 379   1 H      0.071  0.929  0.000  0.000     2.077     2.254
 380   7 N     -0.395  1.318  4.077  0.000    30.225     8.165
 381   6 C      0.015  1.062  2.922  0.000    20.331     6.422
 382   6 C      0.262  1.045  2.693  0.000    22.592     7.783
 383   8 O     -0.500  1.742  4.758  0.000    23.780     6.538
 384   6 C     -0.086  1.062  3.025  0.000    22.138     6.698
 385   6 C     -0.085  1.051  3.034  0.000    22.123     6.697
 386   6 C     -0.026  1.053  2.973  0.000    21.122     6.558
 387   7 N     -0.137  1.212  3.925  0.000    23.977     7.273
 388   6 C      0.232  1.018  2.750  0.000    23.129     7.874
 389   7 N     -0.242  1.221  4.021  0.000    26.328     7.621
 390   7 N     -0.263  1.234  4.029  0.000    26.812     7.690
 391   1 H      0.153  0.847  0.000  0.000     1.382     1.842
 392   1 H      0.050  0.950  0.000  0.000     2.323     2.383
 393   1 H      0.059  0.941  0.000  0.000     2.213     2.326
 394   1 H      0.064  0.936  0.000  0.000     2.151     2.294
 395   1 H      0.065  0.935  0.000  0.000     2.142     2.289
 396   1 H      0.065  0.935  0.000  0.000     2.146     2.291
 397   1 H      0.085  0.915  0.000  0.000     1.923     2.169
 398   1 H      0.087  0.913  0.000  0.000     1.905     2.158
 399   1 H      0.228  0.772  0.000  0.000     0.972     1.545
 400   1 H      0.242  0.758  0.000  0.000     0.915     1.498
 401   1 H      0.253  0.747  0.000  0.000     0.872     1.463
 402   1 H      0.243  0.757  0.000  0.000     0.909     1.494
 403   1 H      0.255  0.745  0.000  0.000     0.864     1.456
 404   7 N     -0.180  1.245  3.935  0.000    24.901     7.411
 405   6 C      0.018  1.058  2.924  0.000    20.283     6.413
 406   6 C      0.271  1.043  2.686  0.000    22.424     7.755
 407   8 O     -0.474  1.737  4.736  0.000    23.206     6.459
 408   6 C     -0.081  1.063  3.018  0.000    22.030     6.680
 409   6 C     -0.015  1.055  2.960  0.000    20.811     6.489
 410   6 C     -0.120  1.040  3.080  0.000    22.855     6.816
 411   6 C     -0.125  1.043  3.082  0.000    22.946     6.829
 412   1 H      0.241  0.759  0.000  0.000     0.918     1.501
 413   1 H      0.074  0.926  0.000  0.000     2.040     2.234
 414   1 H      0.069  0.931  0.000  0.000     2.096     2.264
 415   1 H      0.059  0.941  0.000  0.000     2.214     2.327
 416   1 H      0.044  0.956  0.000  0.000     2.394     2.420
 417   1 H      0.038  0.962  0.000  0.000     2.471     2.458
 418   1 H      0.044  0.956  0.000  0.000     2.402     2.424
 419   1 H      0.045  0.955  0.000  0.000     2.379     2.412
 420   1 H      0.036  0.964  0.000  0.000     2.509     2.477
 421   1 H      0.052  0.948  0.000  0.000     2.297     2.370
 422   1 H      0.036  0.964  0.000  0.000     2.498     2.472
 423   7 N     -0.188  1.257  3.931  0.000    25.078     7.438
 424   6 C      0.031  1.054  2.915  0.000    20.052     6.377
 425   6 C      0.205  1.085  2.709  0.000    23.640     7.963
 426   8 O     -0.368  1.761  4.608  0.000    21.058     6.152
 427   6 C     -0.088  1.057  3.031  0.000    22.161     6.701
 428   6 C      0.014  1.081  2.906  0.000    27.706     8.634
 429   6 C     -0.043  1.082  2.961  0.000    29.067     8.842
 430   6 C     -0.045  1.079  2.966  0.000    29.115     8.849
 431   6 C     -0.034  1.080  2.954  0.000    28.841     8.807
 432   6 C     -0.034  1.079  2.955  0.000    28.848     8.808
 433   6 C     -0.038  1.079  2.959  0.000    28.934     8.821
 434   1 H      0.246  0.754  0.000  0.000     0.899     1.485
 435   1 H      0.081  0.919  0.000  0.000     1.968     2.194
 436   1 H      0.102  0.898  0.000  0.000     1.770     2.081
 437   1 H      0.080  0.920  0.000  0.000     1.980     2.201
 438   1 H      0.044  0.956  0.000  0.000     2.397     2.421
 439   1 H      0.040  0.960  0.000  0.000     2.449     2.447
 440   1 H      0.033  0.967  0.000  0.000     2.541     2.493
 441   1 H      0.029  0.971  0.000  0.000     2.606     2.524
 442   1 H      0.027  0.973  0.000  0.000     2.623     2.533
 443   7 N     -0.432  1.334  4.097  0.000    31.270     8.305
 444   6 C      0.045  1.057  2.899  0.000    19.841     6.345
 445   6 C      0.277  1.046  2.678  0.000    22.324     7.738
 446   8 O     -0.542  1.761  4.780  0.000    24.725     6.667
 447   6 C     -0.076  1.057  3.019  0.000    21.953     6.669
 448   6 C     -0.006  1.083  2.922  0.000    28.159     8.704
 449   6 C     -0.042  1.082  2.960  0.000    29.042     8.838
 450   6 C     -0.047  1.085  2.962  0.000    29.165     8.857
 451   6 C     -0.063  1.075  2.988  0.000    29.558     8.916
 452   6 C     -0.078  1.078  3.000  0.000    29.951     8.974
 453   6 C      0.141  1.046  2.813  0.000    24.926     8.182
 454   8 O     -0.431  1.716  4.715  0.000    21.458     6.253
 455   1 H      0.203  0.797  0.000  0.000     1.090     1.636
 456   1 H      0.012  0.988  0.000  0.000     2.851     2.640
 457   1 H      0.053  0.947  0.000  0.000     2.285     2.364
 458   1 H      0.066  0.934  0.000  0.000     2.127     2.281
 459   1 H      0.033  0.967  0.000  0.000     2.550     2.497
 460   1 H      0.044  0.956  0.000  0.000     2.391     2.418
 461   1 H      0.041  0.959  0.000  0.000     2.436     2.441
 462   1 H      0.052  0.948  0.000  0.000     2.296     2.369
 463   1 H      0.337  0.663  0.000  0.000     0.619     1.236
 464   7 N     -0.186  1.253  3.932  0.000    25.029     7.430
 465   6 C      0.035  1.057  2.908  0.000    19.979     6.363
 466   6 C      0.221  1.081  2.698  0.000    23.347     7.914
 467   8 O     -0.393  1.754  4.639  0.000    21.543     6.223
 468   6 C     -0.015  1.061  2.954  0.000    20.797     6.486
 469   6 C     -0.127  1.039  3.088  0.000    22.981     6.834
 470   6 C     -0.118  1.041  3.077  0.000    22.805     6.809
 471   1 H      0.241  0.759  0.000  0.000     0.919     1.502
 472   1 H      0.069  0.931  0.000  0.000     2.102     2.267
 473   1 H      0.060  0.940  0.000  0.000     2.202     2.321
 474   1 H      0.075  0.925  0.000  0.000     2.027     2.227
 475   1 H      0.025  0.975  0.000  0.000     2.660     2.551
 476   1 H      0.044  0.956  0.000  0.000     2.399     2.422
 477   1 H      0.053  0.947  0.000  0.000     2.278     2.360
 478   1 H      0.043  0.957  0.000  0.000     2.405     2.425
 479   1 H      0.063  0.937  0.000  0.000     2.164     2.300
 480   1 H      0.182  0.818  0.000  0.000     1.201     1.717
 481   1 H      0.073  0.927  0.000  0.000     2.050     2.239
 482   1 H      0.189  0.811  0.000  0.000     1.163     1.689
 483   1 H      0.076  0.924  0.000  0.000     2.017     2.221
 484   1 H      0.180  0.820  0.000  0.000     1.211     1.724
 485   1 H      0.075  0.925  0.000  0.000     2.033     2.230
 486   1 H      0.201  0.799  0.000  0.000     1.103     1.645
 487   1 H      0.101  0.899  0.000  0.000     1.775     2.083
 488   1 H      0.183  0.817  0.000  0.000     1.198     1.714
 489   1 H      0.072  0.928  0.000  0.000     2.063     2.246
 490   1 H      0.193  0.807  0.000  0.000     1.141     1.673
 491   1 H      0.077  0.923  0.000  0.000     2.012     2.218
 492   1 H      0.182  0.818  0.000  0.000     1.204     1.719
 493   1 H      0.189  0.811  0.000  0.000     1.163     1.689
 494   1 H      0.093  0.907  0.000  0.000     1.847     2.125
 495   1 H      0.193  0.807  0.000  0.000     1.142     1.674
 496   1 H      0.080  0.920  0.000  0.000     1.976     2.198
 497   1 H      0.169  0.831  0.000  0.000     1.277     1.770
 498   1 H      0.055  0.945  0.000  0.000     2.253     2.347

 Mol. C6AA /au·bohr⁶  :    2273690.520455
 Mol. C8AA /au·bohr⁸  :   50872638.533731
 Mol. α(0) /au        :       2272.783440

 
molecular dipole:
                 x           y           z       tot (Debye)
 q only:       42.611      26.728      23.856
   full:       42.401      26.673      25.498     142.872
molecular quadrupole (traceless):
                xx          xy          yy          xz          yz          zz
 q only:     4053.542   11269.202    1330.347    4795.091    5191.687   -5383.888
  q+dip:     3933.541   11225.223    1254.150    4990.761    5455.138   -5187.691
   full:     3940.675   11222.961    1254.273    4990.914    5454.891   -5194.948
speedup  1.00
cpu  time for grad   13.69 s
wall time for grad   13.69 s

SCC energy    :    -744.7650306
rep           :       9.6034051
ES            :       2.1171201
AES           :      -0.0588034
AXC           :       0.2956091
disp          :      -0.6889897
XB            :       0.0000000
fix           :       0.0000000
Gborn         :       0.0000000
Gsasa         :       0.0000000
Ghb           :       0.0000000
Gshift        :       0.0000000
Gsolv         :      -0.6482467     -406.78
Etot ala COSMO:    -744.7650306
grad norm     :       0.6948639
total E       :    -735.0959396
atomizationE  :     138.6213672    86986.22
(atE without considering molecular charge,
 total energy contains solvation terms)
H-L gap (eV)  :          1.3757

------------------------------------------------------------------------
 * finished run on 2019/03/14 at 15:08:36.081     
------------------------------------------------------------------------
 total:
 * wall-time:     0 d,  0 h,  0 min, 14.698 sec
 *  cpu-time:     0 d,  0 h,  0 min, 14.493 sec
 * ratio c/w:     0.986 speedup
 SCF:
 * wall-time:     0 d,  0 h,  0 min, 14.275 sec
 *  cpu-time:     0 d,  0 h,  0 min, 14.273 sec
 * ratio c/w:     1.000 speedup

