      -----------------------------------------------------------      
     |                   =====================                   |     
     |                           x T B                           |     
     |                   =====================                   |     
     |                         S. Grimme                         |     
     |          Mulliken Center for Theoretical Chemistry        |     
     |                    University of Bonn                     |     
     |                Version 6.1 RC1 (SAW190329)                |     
      -----------------------------------------------------------      

   This program is distributed in the hope that it will be useful,
   but WITHOUT ANY WARRANTY; without even the implied warranty of
   MERCHANTABILITY or FITNESS FOR A PARTICULAR PURPOSE.
   
   FOR NON-COMMERCIAL, ACADEMIA USE ONLY.
   
   Cite this work as:
   S. Grimme, C. Bannwarth, P. Shushkov, J. Comput. Theory Chem., 2017,
   13, 1989-2009. DOI: 10.1021/acs.jctc.7b00118
   C. Bannwarth, S. Ehlert and S. Grimme., J. Comput. Theory Chem., 2019,
   just accepted. DOI: 10.1021/acs.jctc.8b01176
   
   for sTDA-xTB:
   S. Grimme and C. Bannwarth, J. Chem. Phys., 2016, 145, 054103.
   DOI: 10.1063/1.4959605
   
   in the mass-spec context:
   V. Asgeirsson, C. Bauer and S. Grimme, Chem. Sci., 2017, 8, 4879.
   DOI: 10.1039/c7sc00601b
   
   for metadynamics refer to:
   S. Grimme, ChemRxiv, Preprint. DOI: 10.26434/chemrxiv.7660532.v1
   
   with help from (in alphabetical order)
   C. Bannwarth, F. Bohle, G. Brandenburg, E. Caldeweyher, M. Checinski,
   S. Dohm, S. Ehlert, S. Ehrlich, F. März, H. Neugebauer, J. Pisarek,
   P. Pracht, P. Shushkov, and S. Spicher.
   
 * started run on 2019/05/31 at 05:35:30.719     

           -------------------------------------------------
          |                Calculation Setup                |
           -------------------------------------------------

          program call               : /home/lum/install/xtb/xtb-190329/bin/xtb xtb_tmp.xyz --chrg -1 --grad --gfn 2 --etemp 500 --acc 0.1 --gbsa h2o --parallel 2
          hostname                   : cpu02
          coordinate file            : xtb_tmp.xyz
          omp threads                :                     2
          number of atoms            :                    47
          number of electrons        :                   130
          charge                     :                    -1
          spin                       :                   0.0
          first test random number   :      0.38900661704389


########################################################################
# WARNING! Please study the warnings concerning your input carefully
#  - XTBPATH is not set, using XTBHOME instead
#  - Process number higher than OMP_NUM_THREADS, I hope you know what you are doing.
########################################################################

           ------------------------------------------------- 
          |                 G F N 2 - x T B                 |
          | Geometry, Frequencies, Noncovalent interactions |
          |            JCTC 2018 parametrisation            |
           ------------------------------------------------- 
 
             k(s)              :                1.8500
             k(p)              :                2.2300
             k(d)              :                2.2300
             k(f)              :                2.0000
             kEN (H0ij)        :               -2.0000
             D4 a1             :                0.5200
             D4 a2             :                5.0000
             D4 s6             :                1.0000
             D4 s8             :                2.7000
             D4 s9             :                5.0000
             alphaj            :                2.0000

  Z AO/shell   Hii/eV     exponent
  1     Wed Apr 25 08:07:45 CEST 2018   EN: 2.200 GM2: 0.406  GM3: 0.0800  RAES: 1.40
     1s    -10.707211    1.230000
  6     Wed Apr 25 08:07:45 CEST 2018   EN: 2.550 GM2: 0.538  GM3: 0.1500  RAES: 3.00
     2s    -13.970922    2.096432
     2p    -10.063292    1.800000
  7     Wed Apr 25 08:07:45 CEST 2018   EN: 3.040 GM2: 0.461  GM3:-0.0640  RAES: 1.90
     2s    -16.686243    2.339881
     2p    -12.523956    2.014332
  8     Wed Apr 25 08:07:45 CEST 2018   EN: 3.440 GM2: 0.452  GM3:-0.0517  RAES: 1.80
     2s    -20.229985    2.439742
     2p    -15.503117    2.137023

 Solvent             : h2o
 Using internal parameter file: .param_gbsa2_h2o
 Gsolv ref. state (COSMO-RS): gsolv [1 M gas/solution]
 temperature (mdtemp)       :    298.150000000000     
 dielectric constant        :    80.2000000000000     
 rho                        :    1.00000000000000     
 mass                       :    18.0000000000000     
 surface tension            :    15.5689454083859     
 probe radius               :   0.975313790000000     
 vdW radii scaling          :    1.00000000000000     
 Gshift (Eh)                :   1.857443126794793E-003
 c1                         :    1.55243817000000     
 soset                      :   0.130326360000000     
 HB correction              :  T
 Number of grid points      :          230

            Z     q(EN)     CN     RAES       Cart. coordinates
     1  N   5.0   -0.53    3.02    1.93   310.10043   104.98088   223.94390
     2  C   4.0    0.06    4.01    3.64   311.74668   103.41287   222.40332
     3  C   4.0    0.27    3.01    3.02   311.18489   103.56391   219.58544
     4  O   6.0   -0.45    1.00    1.80   312.89114   103.74282   218.02101
     5  C   4.0   -0.15    4.01    3.64   311.34697   100.73320   223.41942
     6  C   4.0   -0.15    4.01    3.63   308.69595   100.81183   224.54865
     7  C   4.0   -0.05    4.01    3.64   308.52534   103.48013   225.62376
     8  H   1.0    0.09    0.99    1.43   313.70915   104.02617   222.64279
     9  H   1.0    0.09    0.99    1.43   311.55787    99.32489   221.93734
    10  H   1.0    0.07    0.99    1.43   312.75257   100.38828   224.88406
    11  H   1.0    0.11    0.99    1.43   307.26856   100.55435   223.08584
    12  H   1.0    0.07    0.99    1.43   308.43347    99.38880   226.00501
    13  H   1.0    0.11    0.99    1.43   306.58309   104.17366   225.63621
    14  H   1.0    0.07    0.99    1.43   309.28478   103.54807   227.54904
    15  N   5.0   -0.47    3.01    1.93   308.76561   103.23128   218.94882
    16  C   4.0    0.07    4.00    3.62   307.98768   103.29721   216.33490
    17  C   4.0    0.29    3.01    3.02   308.21672   105.98741   215.29207
    18  O   6.0   -0.39    1.00    1.80   307.65382   107.86113   216.51634
    19  C   4.0   -0.12    3.98    3.58   305.26511   102.36401   216.08896
    20  C   4.0    0.32    2.99    3.02   303.41117   103.93330   217.78009
    21  O   6.0   -0.44    1.00    1.80   303.77880   103.82463   220.10634
    22  O   6.0   -0.42    1.00    1.80   301.68888   105.09013   216.67222
    23  H   1.0    0.29    1.00    1.43   307.33106   103.52885   220.20422
    24  H   1.0    0.11    0.99    1.43   309.27342   102.06297   215.26563
    25  H   1.0    0.10    0.99    1.43   304.63700   102.49442   214.13078
    26  H   1.0    0.09    0.99    1.43   305.16761   100.40117   216.71703
    27  N   5.0   -0.48    3.01    1.93   309.08770   106.09914   212.91714
    28  C   4.0    0.06    3.98    3.59   309.42584   108.42783   211.51791
    29  C   4.0    0.03    3.00    3.02   309.60605   107.68178   208.73677
    30  O   6.0   -0.46    1.00    1.80   310.28157   105.56143   208.11052
    31  C   4.0   -0.13    3.99    3.60   311.85474   109.77200   212.40594
    32  C   4.0   -0.12    3.97    3.58   312.13719   112.53851   211.60367
    33  C   4.0   -0.24    3.98    3.59   310.03631   114.17866   212.71259
    34  C   4.0   -0.25    3.99    3.60   314.70516   113.50092   212.51304
    35  H   1.0    0.26    1.00    1.43   309.63346   104.53282   211.96503
    36  H   1.0    0.11    0.99    1.43   307.77511   109.62355   211.86731
    37  H   1.0    0.13    0.99    1.43   311.84358   109.67301   214.46842
    38  H   1.0    0.11    0.99    1.43   313.47025   108.68222   211.72776
    39  H   1.0    0.09    0.99    1.43   312.10521   112.65092   209.53701
    40  H   1.0    0.07    0.99    1.43   310.41470   116.16070   212.33965
    41  H   1.0    0.09    0.99    1.43   308.19364   113.71104   211.93154
    42  H   1.0    0.10    0.99    1.43   309.93791   113.90776   214.74840
    43  H   1.0    0.07    0.99    1.43   314.93733   115.49000   212.06586
    44  H   1.0    0.09    0.99    1.43   314.86851   113.29476   214.55155
    45  H   1.0    0.08    0.99    1.43   316.22285   112.44760   211.61565
    46  H   1.0    0.25    1.00    1.43   311.03495   106.11435   224.80092
    47  H   1.0    0.10    1.00    1.43   309.16824   108.93516   207.39199

           ------------------------------------------------- 
          |        Self-Consistent Charge Iterations        |
           ------------------------------------------------- 

          ...................................................
          :                      SETUP                      :
          :.................................................:
          :  # basis functions                 116          :
          :  # atomic orbitals                 116          :
          :  # shells                           70          :
          :  # electrons                       130          :
          :  max. iterations                   250          :
          :  Hamiltonian                  GFN2-xTB          :
          :  restarted?                      false          :
          :  GBSA solvation                   true          :
          :  PC potential                    false          :
          :  electronic temp.          500.0000000     K    :
          :  accuracy                    0.1000000          :
          :  -> integral cutoff          0.3500000E+02      :
          :  -> integral neglect         0.1000000E-08      :
          :  -> SCF convergence          0.1000000E-06 Eh   :
          :  -> wf. convergence          0.1000000E-04 e    :
          :  Broyden damping             0.4000000          :
          ...................................................

 iter      E             dE          RMSdq      gap      omega  full diag
   1    -74.4459966 -0.744460E+02  0.444E+00    2.66       0.0  T
   2    -74.6671863 -0.221190E+00  0.223E+00    1.57       1.0  T
   3    -74.6759707 -0.878433E-02  0.127E+00    1.84       1.0  T
   4    -74.6806543 -0.468360E-02  0.276E-01    1.23       1.0  T
   5    -74.6823240 -0.166977E-02  0.112E-01    1.35       1.0  T
   6    -74.6823714 -0.473487E-04  0.406E-02    1.35       1.0  T
   7    -74.6823800 -0.864020E-05  0.157E-02    1.36       1.0  T
   8    -74.6823821 -0.204610E-05  0.605E-03    1.36       2.4  T
   9    -74.6823823 -0.201227E-06  0.197E-03    1.36       7.4  T
  10    -74.6823823 -0.148063E-07  0.790E-04    1.36      18.5  T
  11    -74.6823823 -0.422581E-08  0.251E-04    1.36      58.2  T
  12    -74.6823823 -0.460034E-09  0.906E-05    1.36     160.9  T
  13    -74.6823823 -0.647447E-10  0.394E-05    1.36     370.6  T

   *** convergence criteria satisfied after 13 iterations ***

         #    Occupation            Energy/Eh            Energy/eV
      -------------------------------------------------------------
         1        2.0000           -0.7404505             -20.1487
       ...           ...                  ...                  ...
        59        2.0000           -0.4092586             -11.1365
        60        2.0000           -0.4021486             -10.9430
        61        2.0000           -0.3952185             -10.7544
        62        2.0000           -0.3887043             -10.5772
        63        2.0000           -0.3800582             -10.3419
        64        2.0000           -0.3601325              -9.7997
        65        2.0000           -0.3466550              -9.4330 (HOMO)
        66        0.0000           -0.2965685              -8.0700 (LUMO)
        67                         -0.2192041              -5.9648
        68                         -0.2119094              -5.7663
        69                         -0.1704479              -4.6381
        70                         -0.0171634              -0.4670
       ...                                ...                  ...
       116                          0.6396591              17.4060
      -------------------------------------------------------------
                  HL-Gap            0.0500865 Eh            1.3629 eV
             Fermi-level           -0.3216116 Eh           -8.7515 eV

 SCC (total)                   0 d,  0 h,  0 min,  0.054 sec
 SCC setup                      ...        0 min,  0.002 sec (  4.460%)
 Dispersion                     ...        0 min,  0.001 sec (  1.163%)
 integral evaluation            ...        0 min,  0.006 sec ( 11.072%)
 zeroth order Hamiltonian       ...        0 min,  0.000 sec (  0.287%)
 iterations                     ...        0 min,  0.030 sec ( 56.215%)
 molecular gradient             ...        0 min,  0.014 sec ( 25.755%)
 printout                       ...        0 min,  0.001 sec (  0.996%)

         :::::::::::::::::::::::::::::::::::::::::::::::::::::
         ::                     SUMMARY                     ::
         :::::::::::::::::::::::::::::::::::::::::::::::::::::
         :: total energy              -73.822386238400 Eh   ::
         :: total w/o Gsasa/hb        -73.815770483837 Eh   ::
         :: gradient norm               0.218165931326 Eh/α ::
         :: HOMO-LUMO gap               1.362922557037 eV   ::
         ::.................................................::
         :: SCC energy                -74.682319160318 Eh   ::
         :: -> isotropic ES             0.350381207085 Eh   ::
         :: -> anisotropic ES           0.000325644637 Eh   ::
         :: -> anisotropic XC           0.021387413373 Eh   ::
         :: -> dispersion              -0.046269835767 Eh   ::
         :: -> Gsolv                   -0.124877319092 Eh   ::
         ::    -> Gborn                -0.118261564529 Eh   ::
         ::    -> Gsasa                -0.001794315403 Eh   ::
         ::    -> Ghb                  -0.006678882286 Eh   ::
         ::    -> Gshift                0.001857443127 Eh   ::
         :: repulsion energy            0.859237770901 Eh   ::
         :: add. restraining            0.000000000000 Eh   ::
         :::::::::::::::::::::::::::::::::::::::::::::::::::::

           -------------------------------------------------
          |                Property Printout                |
           -------------------------------------------------

    * Orbital Energies and Occupations

         #    Occupation            Energy/Eh            Energy/eV
      -------------------------------------------------------------
         1        2.0000           -0.7404505             -20.1487
       ...           ...                  ...                  ...
        53        2.0000           -0.4430557             -12.0562
        54        2.0000           -0.4375736             -11.9070
        55        2.0000           -0.4337758             -11.8036
        56        2.0000           -0.4315985             -11.7444
        57        2.0000           -0.4260465             -11.5933
        58        2.0000           -0.4238262             -11.5329
        59        2.0000           -0.4092586             -11.1365
        60        2.0000           -0.4021486             -10.9430
        61        2.0000           -0.3952185             -10.7544
        62        2.0000           -0.3887043             -10.5772
        63        2.0000           -0.3800582             -10.3419
        64        2.0000           -0.3601325              -9.7997
        65        2.0000           -0.3466550              -9.4330 (HOMO)
        66        0.0000           -0.2965685              -8.0700 (LUMO)
        67                         -0.2192041              -5.9648
        68                         -0.2119094              -5.7663
        69                         -0.1704479              -4.6381
        70                         -0.0171634              -0.4670
        71                          0.0211095               0.5744
        72                          0.0297970               0.8108
        73                          0.0544810               1.4825
        74                          0.0689560               1.8764
        75                          0.0709247               1.9300
        76                          0.0797148               2.1692
       ...                                ...                  ...
       116                          0.6396591              17.4060
      -------------------------------------------------------------
                  HL-Gap            0.0500865 Eh            1.3629 eV
             Fermi-level           -0.3216116 Eh           -8.7515 eV

   #   Z        covCN         q      C6AA      α(0)
   1   7 N      2.702    -0.309    27.952     7.852
   2   6 C      3.816     0.029    20.070     6.376
   3   6 C      2.758     0.273    22.388     7.748
   4   8 O      0.859    -0.524    24.320     6.612
   5   6 C      3.832    -0.061    21.651     6.620
   6   6 C      3.828    -0.064    21.709     6.630
   7   6 C      3.764     0.017    20.338     6.428
   8   1 H      0.924     0.032     2.555     2.500
   9   1 H      0.925     0.035     2.513     2.479
  10   1 H      0.925     0.057     2.239     2.340
  11   1 H      0.925     0.038     2.479     2.462
  12   1 H      0.925     0.054     2.267     2.355
  13   1 H      0.924     0.033     2.544     2.494
  14   1 H      0.924     0.027     2.634     2.538
  15   7 N      2.691    -0.184    24.982     7.423
  16   6 C      3.800     0.038    19.933     6.357
  17   6 C      2.754     0.282    22.230     7.721
  18   8 O      0.858    -0.499    23.765     6.536
  19   6 C      3.802    -0.100    22.416     6.741
  20   6 C      2.683     0.376    20.625     7.432
  21   8 O      0.856    -0.620    26.605     6.915
  22   8 O      0.856    -0.638    27.083     6.977
  23   1 H      0.860     0.226     0.981     1.551
  24   1 H      0.923     0.045     2.380     2.413
  25   1 H      0.924     0.029     2.604     2.523
  26   1 H      0.924     0.042     2.429     2.437
  27   7 N      2.697    -0.183    24.967     7.421
  28   6 C      3.788     0.031    20.062     6.379
  29   6 C      2.770     0.199    23.754     7.982
  30   8 O      0.856    -0.360    20.890     6.128
  31   6 C      3.809    -0.062    21.682     6.628
  32   6 C      3.849    -0.012    20.761     6.481
  33   6 C      3.756    -0.116    22.766     6.803
  34   6 C      3.758    -0.118    22.804     6.808
  35   1 H      0.860     0.211     1.049     1.605
  36   1 H      0.924     0.082     1.959     2.189
  37   1 H      0.924     0.058     2.224     2.332
  38   1 H      0.924     0.054     2.272     2.357
  39   1 H      0.924     0.043     2.414     2.430
  40   1 H      0.925     0.057     2.236     2.338
  41   1 H      0.925     0.032     2.556     2.500
  42   1 H      0.925     0.038     2.469     2.457
  43   1 H      0.925     0.057     2.239     2.340
  44   1 H      0.925     0.040     2.443     2.444
  45   1 H      0.925     0.044     2.391     2.418
  46   1 H      0.862     0.177     1.231     1.738
  47   1 H      0.930     0.093     1.853     2.129

 Mol. C6AA /au·bohr⁶  :      20928.053359
 Mol. C8AA /au·bohr⁸  :     460738.414366
 Mol. α(0) /au        :        214.368790


Wiberg/Mayer (AO) data.
largest (>0.10) Wiberg bond orders for each atom
          total WBO             WBO to atom ...
     1  N   3.054        C    7 1.003    C    2 1.001    H   46 0.954
     2  C   3.987        N    1 1.001    C    5 0.972    H    8 0.967    C    3 0.945
     3  C   3.940        O    4 1.609    N   15 1.309    C    2 0.945
     4  O   1.911        C    3 1.609    N   15 0.191
     5  C   3.995        C    6 1.007    H    9 0.979    H   10 0.977    C    2 0.972
     6  C   3.996        C    5 1.007    C    7 1.005    H   12 0.977    H   11 0.976
     7  C   3.985        C    6 1.005    N    1 1.003    H   14 0.975    H   13 0.974
     8  H   0.999        C    2 0.967
     9  H   0.999        C    5 0.979
    10  H   0.997        C    5 0.977
    11  H   0.999        C    6 0.976
    12  H   0.997        C    6 0.977
    13  H   0.999        C    7 0.974
    14  H   0.999        C    7 0.975
    15  N   3.464        C    3 1.309    C   16 0.991    H   23 0.875    O    4 0.191
    16  C   3.977        N   15 0.991    C   19 0.976    H   24 0.954    C   17 0.930
    17  C   3.946        O   18 1.644    N   27 1.294    C   16 0.930
    18  O   1.953        C   17 1.644    N   27 0.197
    19  C   3.984        H   25 0.980    C   16 0.976    H   26 0.969    C   20 0.909
    20  C   3.935        O   22 1.516    O   21 1.488    C   19 0.909
    21  O   1.834        C   20 1.488    O   22 0.215
    22  O   1.808        C   20 1.516    O   21 0.215
    23  H   0.949        N   15 0.875
    24  H   0.998        C   16 0.954
    25  H   0.999        C   19 0.980
    26  H   0.998        C   19 0.969
    27  N   3.457        C   17 1.294    C   28 0.979    H   35 0.912    O   18 0.197
    28  C   3.963        C   29 0.995    N   27 0.979    H   36 0.940    C   31 0.938
    29  C   3.902        O   30 1.891    C   28 0.995    H   47 0.951
    30  O   2.056        C   29 1.891
    31  C   3.980        C   32 0.994    H   38 0.975    H   37 0.967    C   28 0.938
    32  C   3.993        C   33 1.010    C   34 1.005    C   31 0.994    H   39 0.969
    33  C   3.995        C   32 1.010    H   42 0.986    H   40 0.984    H   41 0.983
    34  C   3.993        C   32 1.005    H   44 0.987    H   45 0.986    H   43 0.984
    35  H   0.955        N   27 0.912
    36  H   0.993        C   28 0.940
    37  H   0.997        C   31 0.967
    38  H   0.997        C   31 0.975
    39  H   0.998        C   32 0.969
    40  H   0.997        C   33 0.984
    41  H   0.999        C   33 0.983
    42  H   0.998        C   33 0.986
    43  H   0.996        C   34 0.984
    44  H   0.998        C   34 0.987
    45  H   0.998        C   34 0.986
    46  H   0.969        N    1 0.954
    47  H   0.991        C   29 0.951
 
molecular dipole:
                 x           y           z       tot (Debye)
 q only:     -303.985    -104.440    -218.242
   full:     -303.993    -104.749    -218.112     987.570
molecular quadrupole (traceless):
                xx          xy          yy          xz          yz          zz
 q only:   -63165.498  -47609.379   59125.576  -99511.492  -34209.389    4039.922
  q+dip:   -63168.115  -47754.447   59032.689  -99448.647  -34288.311    4135.426
   full:   -63167.153  -47753.093   59033.562  -99448.793  -34288.368    4133.591


           -------------------------------------------------
          | TOTAL ENERGY              -73.822386238400 Eh   |
          | GRADIENT NORM               0.218165931326 Eh/α |
          | HOMO-LUMO GAP               1.362922557037 eV   |
           -------------------------------------------------

------------------------------------------------------------------------
 * finished run on 2019/05/31 at 05:35:30.881     
------------------------------------------------------------------------
 total:
 * wall-time:     0 d,  0 h,  0 min,  0.161 sec
 *  cpu-time:     0 d,  0 h,  0 min,  0.206 sec
 * ratio c/w:     1.275 speedup
 SCF:
 * wall-time:     0 d,  0 h,  0 min,  0.054 sec
 *  cpu-time:     0 d,  0 h,  0 min,  0.108 sec
 * ratio c/w:     2.000 speedup

