      -----------------------------------------------------------      
     |                   =====================                   |     
     |                           x T B                           |     
     |                   =====================                   |     
     |                         S. Grimme                         |     
     |          Mulliken Center for Theoretical Chemistry        |     
     |                    University of Bonn                     |     
     |                Version 6.1 RC1 (SAW190329)                |     
      -----------------------------------------------------------      

   This program is distributed in the hope that it will be useful,
   but WITHOUT ANY WARRANTY; without even the implied warranty of
   MERCHANTABILITY or FITNESS FOR A PARTICULAR PURPOSE.
   
   FOR NON-COMMERCIAL, ACADEMIA USE ONLY.
   
   Cite this work as:
   S. Grimme, C. Bannwarth, P. Shushkov, J. Comput. Theory Chem., 2017,
   13, 1989-2009. DOI: 10.1021/acs.jctc.7b00118
   C. Bannwarth, S. Ehlert and S. Grimme., J. Comput. Theory Chem., 2019,
   just accepted. DOI: 10.1021/acs.jctc.8b01176
   
   for sTDA-xTB:
   S. Grimme and C. Bannwarth, J. Chem. Phys., 2016, 145, 054103.
   DOI: 10.1063/1.4959605
   
   in the mass-spec context:
   V. Asgeirsson, C. Bauer and S. Grimme, Chem. Sci., 2017, 8, 4879.
   DOI: 10.1039/c7sc00601b
   
   for metadynamics refer to:
   S. Grimme, ChemRxiv, Preprint. DOI: 10.26434/chemrxiv.7660532.v1
   
   with help from (in alphabetical order)
   C. Bannwarth, F. Bohle, G. Brandenburg, E. Caldeweyher, M. Checinski,
   S. Dohm, S. Ehlert, S. Ehrlich, F. März, H. Neugebauer, J. Pisarek,
   P. Pracht, P. Shushkov, and S. Spicher.
   
 * started run on 2019/05/31 at 05:35:21.500     

           -------------------------------------------------
          |                Calculation Setup                |
           -------------------------------------------------

          program call               : /home/lum/install/xtb/xtb-190329/bin/xtb xtb_tmp.xyz --chrg 1 --grad --gfn 2 --etemp 500 --acc 0.1 --gbsa h2o --parallel 2
          hostname                   : cpu02
          coordinate file            : xtb_tmp.xyz
          omp threads                :                     2
          number of atoms            :                   251
          number of electrons        :                   688
          charge                     :                     1
          spin                       :                   0.0
          first test random number   :      0.68509473243405


molecular fragmentation (1/2 indicates fragments):
111111111111112222222222222222222222222222222222222222222222222222222222
222222222222222222222222222222222222222222222222222222222222222222222222
222222222222222222222222222222222222222222222222222222222222222222222222
22222222222222222222222222211222222
# atoms in fragment 1/2:    16   235
 fragment masses (1/2) :      116.12     1622.86
CMA distance (Bohr)    :  19.705
constraining FC (au)   :  0.0500

########################################################################
# WARNING! Please study the warnings concerning your input carefully
#  - XTBPATH is not set, using XTBHOME instead
#  - Process number higher than OMP_NUM_THREADS, I hope you know what you are doing.
########################################################################

           ------------------------------------------------- 
          |                 G F N 2 - x T B                 |
          | Geometry, Frequencies, Noncovalent interactions |
          |            JCTC 2018 parametrisation            |
           ------------------------------------------------- 
 
             k(s)              :                1.8500
             k(p)              :                2.2300
             k(d)              :                2.2300
             k(f)              :                2.0000
             kEN (H0ij)        :               -2.0000
             D4 a1             :                0.5200
             D4 a2             :                5.0000
             D4 s6             :                1.0000
             D4 s8             :                2.7000
             D4 s9             :                5.0000
             alphaj            :                2.0000

  Z AO/shell   Hii/eV     exponent
  1     Wed Apr 25 08:07:45 CEST 2018   EN: 2.200 GM2: 0.406  GM3: 0.0800  RAES: 1.40
     1s    -10.707211    1.230000
  6     Wed Apr 25 08:07:45 CEST 2018   EN: 2.550 GM2: 0.538  GM3: 0.1500  RAES: 3.00
     2s    -13.970922    2.096432
     2p    -10.063292    1.800000
  7     Wed Apr 25 08:07:45 CEST 2018   EN: 3.040 GM2: 0.461  GM3:-0.0640  RAES: 1.90
     2s    -16.686243    2.339881
     2p    -12.523956    2.014332
  8     Wed Apr 25 08:07:45 CEST 2018   EN: 3.440 GM2: 0.452  GM3:-0.0517  RAES: 1.80
     2s    -20.229985    2.439742
     2p    -15.503117    2.137023

 Solvent             : h2o
 Using internal parameter file: .param_gbsa2_h2o
 Gsolv ref. state (COSMO-RS): gsolv [1 M gas/solution]
 temperature (mdtemp)       :    298.150000000000     
 dielectric constant        :    80.2000000000000     
 rho                        :    1.00000000000000     
 mass                       :    18.0000000000000     
 surface tension            :    15.5689454083859     
 probe radius               :   0.975313790000000     
 vdW radii scaling          :    1.00000000000000     
 Gshift (Eh)                :   1.857443126794793E-003
 c1                         :    1.55243817000000     
 soset                      :   0.130326360000000     
 HB correction              :  T
 Number of grid points      :          230

            Z     q(EN)     CN     RAES       Cart. coordinates
     1  N   5.0   -0.70    3.00    1.93   252.57937   126.09046   245.52528
     2  C   4.0    0.08    3.98    3.59   253.39077   128.53331   244.62824
     3  C   4.0    0.09    3.00    3.02   256.23509   128.50929   244.12887
     4  O   6.0   -0.37    1.00    1.80   257.11926   129.55741   242.24726
     5  C   4.0   -0.10    3.99    3.60   252.60677   130.53824   246.54279
     6  C   4.0    0.28    3.00    3.02   249.72293   130.52808   246.82540
     7  O   6.0   -0.42    1.00    1.80   248.33269   129.50754   245.30404
     8  N   5.0   -0.65    3.00    1.93   248.86462   131.79504   248.84073
     9  H   1.0    0.28    1.00    1.43   251.86392   126.02018   247.30238
    10  H   1.0    0.15    0.99    1.43   252.47066   128.91878   242.80733
    11  H   1.0    0.12    0.99    1.43   253.51043   130.11881   248.34697
    12  H   1.0    0.13    0.99    1.43   253.22346   132.39484   245.89279
    13  H   1.0    0.29    1.00    1.43   247.00176   131.71239   249.23310
    14  H   1.0    0.27    1.00    1.43   250.05081   132.57380   250.10129
    15  N   5.0   -0.70    3.00    1.93   247.31978   109.15863   249.26881
    16  C   4.0    0.08    3.98    3.59   245.39654   111.09059   249.19608
    17  C   4.0    0.07    3.00    3.02   243.03381   110.44930   250.73080
    18  O   6.0   -0.42    1.00    1.80   241.69725   112.14343   251.55348
    19  C   4.0   -0.09    3.98    3.58   244.59571   111.81299   246.47848
    20  C   4.0   -0.23    3.98    3.59   246.86796   112.84291   245.03780
    21  C   4.0   -0.22    3.98    3.59   243.38304   109.61720   245.05446
    22  H   1.0    0.27    1.00    1.43   246.88418   107.44366   248.54303
    23  H   1.0    0.14    0.99    1.43   246.22856   112.77338   250.07497
    24  H   1.0    0.11    0.99    1.43   243.18422   113.31211   246.68892
    25  H   1.0    0.09    0.99    1.43   246.29218   113.43384   243.16000
    26  H   1.0    0.10    0.99    1.43   247.67847   114.44734   246.03350
    27  H   1.0    0.10    0.99    1.43   248.31244   111.39121   244.85311
    28  H   1.0    0.09    0.99    1.43   242.76108   110.25520   243.20438
    29  H   1.0    0.10    0.99    1.43   244.71783   108.07903   244.77537
    30  H   1.0    0.11    0.99    1.43   241.75369   108.88583   246.07087
    31  N   5.0   -0.69    3.01    1.93   248.97998   107.15172   240.39378
    32  C   4.0    0.06    3.99    3.60   249.38801   107.97898   237.81753
    33  C   4.0    0.08    3.01    3.02   252.24080   107.91660   237.42594
    34  O   6.0   -0.39    1.00    1.80   253.67985   108.71912   239.04847
    35  C   4.0   -0.09    3.98    3.58   248.23391   110.61439   237.37284
    36  C   4.0   -0.17    3.98    3.59   245.35329   110.32573   237.33166
    37  C   4.0   -0.22    3.98    3.59   249.26467   111.76978   234.94155
    38  C   4.0   -0.24    3.98    3.58   243.93875   112.82536   237.48961
    39  H   1.0    0.29    1.00    1.43   250.24118   107.85106   241.65787
    40  H   1.0    0.12    0.99    1.43   248.48582   106.59007   236.57632
    41  H   1.0    0.12    0.99    1.43   248.78540   111.81256   238.96288
    42  H   1.0    0.10    0.99    1.43   244.82052   109.31495   235.61575
    43  H   1.0    0.10    0.99    1.43   244.80896   109.13486   238.92574
    44  H   1.0    0.11    0.99    1.43   248.39518   113.59691   234.59795
    45  H   1.0    0.12    0.99    1.43   251.29849   112.04134   235.07811
    46  H   1.0    0.10    0.99    1.43   248.91569   110.52292   233.34455
    47  H   1.0    0.10    0.99    1.43   241.91680   112.47342   237.42116
    48  H   1.0    0.09    0.99    1.43   244.37226   113.77795   239.25533
    49  H   1.0    0.11    0.99    1.43   244.43529   114.07661   235.94121
    50  N   5.0   -0.71    3.00    1.93   245.20315   123.92641   227.05900
    51  C   4.0    0.09    3.99    3.59   242.47141   123.97041   226.86713
    52  C   4.0    0.28    3.02    3.02   241.30695   121.96174   228.58154
    53  O   6.0   -0.48    1.00    1.80   239.30775   122.32522   229.72312
    54  C   4.0   -0.09    3.99    3.60   241.64877   123.44296   224.14972
    55  C   4.0    0.28    3.00    3.02   242.40866   125.56924   222.35643
    56  O   6.0   -0.36    1.00    1.80   244.08335   127.08290   222.80580
    57  N   5.0   -0.64    3.00    1.93   241.06643   125.61911   220.20005
    58  H   1.0    0.29    1.00    1.43   246.21588   123.92417   225.43774
    59  H   1.0    0.16    0.99    1.43   241.78938   125.83256   227.48923
    60  H   1.0    0.12    0.99    1.43   242.57453   121.70436   223.52298
    61  H   1.0    0.12    0.99    1.43   239.60557   123.18862   224.09827
    62  H   1.0    0.31    1.00    1.43   241.48061   126.94942   218.90325
    63  H   1.0    0.27    1.00    1.43   239.68334   124.36883   219.83815
    64  N   5.0   -0.48    3.01    1.93   242.51216   119.76587   228.64323
    65  C   4.0    0.07    4.00    3.62   241.59425   117.69722   230.17710
    66  C   4.0    0.28    3.01    3.02   241.68251   118.39782   232.98434
    67  O   6.0   -0.48    1.00    1.80   239.95530   117.77976   234.40678
    68  C   4.0   -0.15    3.98    3.59   243.07643   115.27417   229.64027
    69  C   4.0   -0.15    3.98    3.59   241.57671   112.95699   230.50194
    70  C   4.0   -0.05    3.98    3.59   243.10067   110.51063   230.24569
    71  N   5.0   -0.48    3.02    1.93   243.69678   109.89506   227.63815
    72  C   4.0    0.38    3.00    3.02   242.14753   108.79857   225.98762
    73  N   5.0   -0.64    3.02    1.93   242.96705   108.36138   223.64625
    74  N   5.0   -0.64    3.02    1.93   239.79944   108.16718   226.60339
    75  H   1.0    0.24    1.00    1.43   244.12584   119.52359   227.63502
    76  H   1.0    0.13    0.99    1.43   239.59117   117.39739   229.71386
    77  H   1.0    0.12    0.99    1.43   243.42635   115.19464   227.60991
    78  H   1.0    0.11    0.99    1.43   244.90063   115.38075   230.59863
    79  H   1.0    0.11    0.99    1.43   241.04946   113.18738   232.47929
    80  H   1.0    0.12    0.99    1.43   239.85124   112.83812   229.38391
    81  H   1.0    0.10    0.99    1.43   244.89006   110.71699   231.24588
    82  H   1.0    0.11    0.99    1.43   242.07361   108.94137   231.10725
    83  H   1.0    0.23    1.00    1.43   245.41874   110.42227   227.01408
    84  H   1.0    0.27    1.00    1.43   244.77223   108.70628   223.15694
    85  H   1.0    0.28    1.00    1.43   241.86735   107.45910   222.38173
    86  H   1.0    0.26    1.00    1.43   239.12618   108.44958   228.36043
    87  H   1.0    0.27    1.00    1.43   238.69374   107.25423   225.35038
    88  N   5.0   -0.48    3.01    1.93   243.69779   119.68882   233.75656
    89  C   4.0    0.07    4.00    3.62   243.78743   120.65603   236.31474
    90  C   4.0    0.29    3.02    3.02   241.61411   122.51418   236.73527
    91  O   6.0   -0.47    1.00    1.80   240.31739   122.41845   238.65079
    92  C   4.0   -0.13    3.99    3.60   246.27783   121.99832   236.91742
    93  C   4.0   -0.03    3.03    3.02   248.44502   120.26084   237.53990
    94  C   4.0   -0.09    3.04    3.02   250.73934   120.51952   236.29811
    95  C   4.0   -0.10    3.03    3.02   248.24852   118.47130   239.45414
    96  C   4.0   -0.09    3.03    3.02   252.79198   119.03133   236.94075
    97  C   4.0   -0.10    3.03    3.02   250.28825   116.96336   240.08611
    98  C   4.0   -0.09    3.03    3.02   252.56409   117.23491   238.82567
    99  H   1.0    0.24    1.00    1.43   245.12631   120.11407   232.55213
   100  H   1.0    0.12    0.99    1.43   243.47050   119.07820   237.62337
   101  H   1.0    0.11    0.99    1.43   246.76717   123.20107   235.31653
   102  H   1.0    0.11    0.99    1.43   245.94062   123.21161   238.55778
   103  H   1.0    0.12    1.00    1.43   250.92405   121.89461   234.80133
   104  H   1.0    0.10    1.00    1.43   246.48935   118.25438   240.46517
   105  H   1.0    0.13    1.00    1.43   254.56801   119.27278   235.96487
   106  H   1.0    0.11    1.00    1.43   250.12343   115.57519   241.57146
   107  H   1.0    0.13    0.99    1.43   254.14266   116.02694   239.29226
   108  N   5.0   -0.47    3.01    1.93   241.23464   124.23636   234.93133
   109  C   4.0    0.08    4.00    3.62   239.13561   125.98039   235.19438
   110  C   4.0    0.31    3.01    3.02   236.70537   124.48980   235.74145
   111  O   6.0   -0.48    1.00    1.80   235.18350   125.20569   237.34046
   112  C   4.0   -0.10    3.99    3.60   238.71537   127.53334   232.79426
   113  C   4.0    0.28    2.99    3.02   240.88643   129.30761   232.11829
   114  O   6.0   -0.39    1.00    1.80   241.94042   129.20815   230.07010
   115  N   5.0   -0.64    3.00    1.93   241.47854   131.02189   233.88421
   116  H   1.0    0.26    1.00    1.43   242.42221   124.39769   233.42977
   117  H   1.0    0.12    0.99    1.43   239.45993   127.20628   236.83868
   118  H   1.0    0.15    0.99    1.43   238.44661   126.25044   231.20272
   119  H   1.0    0.12    0.99    1.43   237.00763   128.66637   233.03184
   120  H   1.0    0.30    1.00    1.43   242.87191   132.26578   233.51623
   121  H   1.0    0.26    1.00    1.43   240.51682   131.16790   235.51612
   122  N   5.0   -0.46    3.01    1.93   236.37515   122.46739   234.28913
   123  C   4.0    0.08    3.99    3.61   234.13505   120.89295   234.45100
   124  C   4.0    0.29    3.01    3.02   233.93574   119.75079   237.10016
   125  O   6.0   -0.47    1.00    1.80   231.95595   119.85179   238.32149
   126  C   4.0   -0.01    3.98    3.59   234.28138   118.81227   232.41917
   127  O   6.0   -0.46    1.99    1.82   234.26169   119.77875   229.95230
   128  H   1.0    0.30    1.00    1.43   237.60573   122.13874   232.84652
   129  H   1.0    0.14    0.99    1.43   232.44326   122.05351   234.13870
   130  H   1.0    0.14    0.99    1.43   235.97978   117.67675   232.76807
   131  H   1.0    0.13    0.99    1.43   232.61197   117.61019   232.57159
   132  H   1.0    0.30    0.99    1.43   235.76090   120.79681   229.66363
   133  N   5.0   -0.47    3.01    1.93   236.02110   118.65386   237.95793
   134  C   4.0    0.07    3.99    3.61   236.13898   117.54934   240.47021
   135  C   4.0    0.30    3.01    3.02   235.27632   119.49208   242.43379
   136  O   6.0   -0.47    1.00    1.80   233.57985   119.00915   243.93631
   137  C   4.0   -0.22    3.98    3.59   238.81691   116.65831   241.02408
   138  H   1.0    0.30    1.00    1.43   237.59629   118.51813   236.85794
   139  H   1.0    0.12    0.99    1.43   234.80855   115.96129   240.58585
   140  H   1.0    0.09    0.99    1.43   238.89731   115.81510   242.89450
   141  H   1.0    0.10    0.99    1.43   239.36863   115.25777   239.63034
   142  H   1.0    0.12    0.99    1.43   240.11298   118.24896   240.95086
   143  N   5.0   -0.48    3.01    1.93   236.52878   121.67601   242.38781
   144  C   4.0    0.07    4.00    3.62   235.97347   123.69974   244.14745
   145  C   4.0    0.30    3.01    3.02   233.14604   124.26591   244.11192
   146  O   6.0   -0.45    1.00    1.80   231.90977   124.46689   246.05769
   147  C   4.0   -0.09    3.98    3.59   237.50976   126.08542   243.50277
   148  C   4.0   -0.15    3.98    3.59   240.31979   125.66051   244.09006
   149  C   4.0   -0.21    3.98    3.59   236.47893   128.34568   244.97517
   150  C   4.0   -0.21    3.98    3.58   242.02550   127.61505   242.83563
   151  H   1.0    0.30    1.00    1.43   237.86018   122.00500   241.04628
   152  H   1.0    0.12    0.99    1.43   236.42438   123.07975   246.07800
   153  H   1.0    0.14    0.99    1.43   237.27936   126.43908   241.47728
   154  H   1.0    0.11    0.99    1.43   240.58727   125.71866   246.13359
   155  H   1.0    0.12    0.99    1.43   240.88052   123.79075   243.43054
   156  H   1.0    0.11    0.99    1.43   237.64153   130.00524   244.65671
   157  H   1.0    0.13    0.99    1.43   234.55745   128.79685   244.40304
   158  H   1.0    0.12    0.99    1.43   236.46004   127.93976   246.99064
   159  H   1.0    0.13    0.99    1.43   243.97391   127.35997   243.43385
   160  H   1.0    0.12    0.99    1.43   241.93730   127.42437   240.79155
   161  H   1.0    0.12    0.99    1.43   241.47003   129.52622   243.33666
   162  N   5.0   -0.47    3.01    1.93   232.13263   124.55865   241.81919
   163  C   4.0    0.09    4.00    3.61   229.48715   125.21939   241.53640
   164  C   4.0    0.30    3.01    3.02   227.85672   123.33468   242.99102
   165  O   6.0   -0.46    1.00    1.80   226.17835   124.00610   244.44847
   166  C   4.0    0.04    3.98    3.58   228.76604   125.27735   238.70345
   167  O   6.0   -0.46    1.99    1.82   230.09271   127.19993   237.43247
   168  C   4.0   -0.18    3.98    3.59   225.95153   125.79530   238.37398
   169  H   1.0    0.30    1.00    1.43   233.24092   124.48544   240.25577
   170  H   1.0    0.14    0.99    1.43   229.14174   127.09669   242.35474
   171  H   1.0    0.14    0.99    1.43   229.23879   123.42133   237.89521
   172  H   1.0    0.30    0.99    1.43   231.88299   126.80464   237.40419
   173  H   1.0    0.13    0.99    1.43   225.52516   125.94522   236.37269
   174  H   1.0    0.12    0.99    1.43   224.83056   124.28945   239.20021
   175  H   1.0    0.13    0.99    1.43   225.46924   127.57516   239.27633
   176  N   5.0   -0.47    3.01    1.93   228.34727   120.91551   242.48301
   177  C   4.0    0.08    4.00    3.61   226.96471   118.89609   243.71609
   178  C   4.0    0.30    3.01    3.02   227.19169   119.12644   246.60351
   179  O   6.0   -0.43    1.00    1.80   225.30951   119.18065   247.95289
   180  C   4.0   -0.10    3.99    3.60   227.92325   116.30065   242.85863
   181  C   4.0    0.28    3.00    3.02   226.63653   115.53015   240.39629
   182  O   6.0   -0.37    1.00    1.80   224.68532   114.29831   240.37380
   183  N   5.0   -0.64    3.00    1.93   227.80097   116.28252   238.27788
   184  H   1.0    0.30    1.00    1.43   229.82049   120.45910   241.34355
   185  H   1.0    0.15    0.99    1.43   224.94426   119.08522   243.27294
   186  H   1.0    0.13    0.99    1.43   229.97158   116.36261   242.66160
   187  H   1.0    0.12    0.99    1.43   227.41112   114.90647   244.28781
   188  H   1.0    0.30    1.00    1.43   226.92318   115.94780   236.62014
   189  H   1.0    0.31    1.00    1.43   229.27692   117.49803   238.31195
   190  N   5.0   -0.48    3.01    1.93   229.54980   119.20145   247.46451
   191  C   4.0    0.08    4.00    3.61   230.07740   119.14993   250.14951
   192  C   4.0    0.30    3.01    3.02   228.88363   121.40914   251.47411
   193  O   6.0   -0.42    1.00    1.80   227.90601   121.16418   253.57237
   194  C   4.0   -0.14    3.99    3.60   232.92313   119.11140   250.64422
   195  C   4.0   -0.10    3.98    3.58   234.23837   116.64922   249.85248
   196  C   4.0   -0.21    3.98    3.59   237.08635   116.97962   250.20211
   197  C   4.0   -0.21    3.98    3.59   233.29600   114.38572   251.37069
   198  H   1.0    0.30    1.00    1.43   231.04981   119.17952   246.26643
   199  H   1.0    0.14    0.99    1.43   229.17854   117.47362   250.97197
   200  H   1.0    0.13    0.99    1.43   233.77373   120.69499   249.63140
   201  H   1.0    0.12    0.99    1.43   233.22714   119.40879   252.66295
   202  H   1.0    0.13    0.99    1.43   233.86268   116.30178   247.84929
   203  H   1.0    0.13    0.99    1.43   238.08371   115.22365   249.82620
   204  H   1.0    0.11    0.99    1.43   237.81174   118.42933   248.93906
   205  H   1.0    0.12    0.99    1.43   237.51604   117.53943   252.13252
   206  H   1.0    0.12    0.99    1.43   234.35784   112.70368   250.85859
   207  H   1.0    0.12    0.99    1.43   233.55035   114.70962   253.38222
   208  H   1.0    0.12    0.99    1.43   231.30608   114.01606   251.02250
   209  N   5.0   -0.47    3.00    1.93   228.97696   123.60519   250.26578
   210  C   4.0    0.04    4.00    3.61   227.82873   125.85924   251.30470
   211  C   4.0    0.30    3.01    3.02   224.99978   125.45453   251.69481
   212  O   6.0   -0.34    1.00    1.80   223.93780   125.90953   253.69877
   213  H   1.0    0.32    1.00    1.43   229.92530   123.75559   248.60559
   214  H   1.0    0.14    0.99    1.43   228.65965   126.32877   253.14052
   215  H   1.0    0.12    0.99    1.43   228.13512   127.41560   249.99343
   216  N   5.0   -0.46    3.01    1.93   223.77551   124.53408   249.68316
   217  C   4.0    0.09    4.00    3.62   221.11712   123.89878   249.88238
   218  C   4.0    0.30    3.02    3.02   220.68518   122.22344   252.19847
   219  O   6.0   -0.33    1.00    1.80   219.03441   122.71739   253.76118
   220  C   4.0   -0.09    3.99    3.60   220.15823   122.56524   247.49433
   221  C   4.0    0.29    3.00    3.02   219.19740   124.51263   245.59633
   222  O   6.0   -0.34    1.00    1.80   216.98967   125.18584   245.56524
   223  N   5.0   -0.64    3.00    1.93   220.94085   125.44255   244.02259
   224  H   1.0    0.30    1.00    1.43   224.70268   124.14882   248.05130
   225  H   1.0    0.17    0.99    1.43   220.02337   125.63399   250.21225
   226  H   1.0    0.14    0.99    1.43   221.66768   121.40563   246.71045
   227  H   1.0    0.14    0.99    1.43   218.56517   121.35522   247.98944
   228  H   1.0    0.30    1.00    1.43   220.41676   126.79403   242.78723
   229  H   1.0    0.31    1.00    1.43   222.78380   124.94933   244.13624
   230  N   5.0   -0.47    3.01    1.93   222.14684   120.18344   252.37745
   231  C   4.0    0.09    4.00    3.62   221.76898   118.50655   254.50012
   232  C   4.0    0.11    3.00    3.02   222.19086   119.90475   256.99988
   233  O   6.0   -0.34    1.00    1.80   220.63328   119.63898   258.69964
   234  C   4.0    0.04    3.97    3.58   223.34974   116.05189   254.32969
   235  O   6.0   -0.47    1.99    1.82   225.81113   116.44155   253.43739
   236  C   4.0   -0.18    3.98    3.59   222.08148   114.16335   252.55246
   237  H   1.0    0.31    1.00    1.43   223.44584   119.72230   251.03317
   238  H   1.0    0.15    0.99    1.43   219.76984   117.94118   254.55216
   239  H   1.0    0.13    0.99    1.43   223.40551   115.25121   256.25572
   240  H   1.0    0.31    0.99    1.43   226.55960   117.95168   254.17442
   241  H   1.0    0.13    0.99    1.43   223.24905   112.48050   252.42916
   242  H   1.0    0.12    0.99    1.43   220.22466   113.64538   253.25163
   243  H   1.0    0.14    0.99    1.43   221.91411   114.98280   250.67710
   244  H   1.0    0.32    1.00    1.43   251.35315   125.49153   244.51028
   245  H   1.0    0.15    1.00    1.43   257.39888   127.63685   245.33532
   246  H   1.0    0.30    1.00    1.43   248.68191   109.68033   248.39417
   247  H   1.0    0.14    1.00    1.43   242.58273   108.64415   251.06099
   248  H   1.0    0.28    1.00    1.43   247.43569   107.64294   240.90994
   249  H   1.0    0.13    1.00    1.43   252.95978   107.21307   235.82620
   250  H   1.0    0.33    1.00    1.43   245.73470   125.29971   227.90992
   251  H   1.0    0.18    1.00    1.43   223.71027   121.00623   257.22166

           ------------------------------------------------- 
          |        Self-Consistent Charge Iterations        |
           ------------------------------------------------- 

          ...................................................
          :                      SETUP                      :
          :.................................................:
          :  # basis functions                 617          :
          :  # atomic orbitals                 617          :
          :  # shells                          373          :
          :  # electrons                       688          :
          :  max. iterations                   250          :
          :  Hamiltonian                  GFN2-xTB          :
          :  restarted?                      false          :
          :  GBSA solvation                   true          :
          :  PC potential                    false          :
          :  electronic temp.          500.0000000     K    :
          :  accuracy                    0.1000000          :
          :  -> integral cutoff          0.3500000E+02      :
          :  -> integral neglect         0.1000000E-08      :
          :  -> SCF convergence          0.1000000E-06 Eh   :
          :  -> wf. convergence          0.1000000E-04 e    :
          :  Broyden damping             0.4000000          :
          ...................................................

 iter      E             dE          RMSdq      gap      omega  full diag
   1   -395.6009830 -0.395601E+03  0.429E+00    1.47       0.0  T
   2   -396.6797995 -0.107882E+01  0.222E+00    1.58       1.0  T
   3   -396.7162108 -0.364113E-01  0.117E+00    2.20       1.0  T
   4   -396.7248270 -0.861622E-02  0.259E-01    2.02       1.0  T
   5   -396.7343586 -0.953158E-02  0.999E-02    2.13       1.0  T
   6   -396.7346681 -0.309543E-03  0.445E-02    2.08       1.0  T
   7   -396.7347146 -0.464616E-04  0.206E-02    2.07       1.0  T
   8   -396.7347447 -0.300711E-04  0.796E-03    2.07       1.0  T
   9   -396.7347483 -0.365923E-05  0.319E-03    2.07       2.0  T
  10   -396.7347487 -0.419033E-06  0.152E-03    2.07       4.2  T
  11   -396.7347488 -0.696697E-07  0.533E-04    2.07      11.9  T
  12   -396.7347488 -0.231971E-07  0.231E-04    2.07      27.4  T
  13   -396.7347488 -0.351042E-08  0.107E-04    2.07      58.9  T
  14   -396.7347488 -0.483567E-09  0.484E-05    2.07     130.4  T
  15   -396.7347488 -0.104535E-09  0.181E-05    2.07     349.3  T

   *** convergence criteria satisfied after 15 iterations ***

         #    Occupation            Energy/Eh            Energy/eV
      -------------------------------------------------------------
         1        2.0000           -0.7417532             -20.1841
       ...           ...                  ...                  ...
       338        2.0000           -0.3992261             -10.8635
       339        2.0000           -0.3968057             -10.7976
       340        2.0000           -0.3920984             -10.6695
       341        2.0000           -0.3798550             -10.3364
       342        2.0000           -0.3732803             -10.1575
       343        2.0000           -0.3680871             -10.0162
       344        2.0000           -0.3677705             -10.0075 (HOMO)
       345                         -0.2916149              -7.9352 (LUMO)
       346                         -0.2859561              -7.7813
       347                         -0.2836757              -7.7192
       348                         -0.2799702              -7.6184
       349                         -0.2602735              -7.0824
       ...                                ...                  ...
       617                          0.6604590              17.9720
      -------------------------------------------------------------
                  HL-Gap            0.0761556 Eh            2.0723 eV
             Fermi-level           -0.3292453 Eh           -8.9592 eV

 SCC (total)                   0 d,  0 h,  0 min,  2.595 sec
 SCC setup                      ...        0 min,  0.036 sec (  1.390%)
 Dispersion                     ...        0 min,  0.026 sec (  1.010%)
 integral evaluation            ...        0 min,  0.136 sec (  5.252%)
 zeroth order Hamiltonian       ...        0 min,  0.002 sec (  0.079%)
 iterations                     ...        0 min,  2.076 sec ( 79.995%)
 molecular gradient             ...        0 min,  0.310 sec ( 11.929%)
 printout                       ...        0 min,  0.009 sec (  0.344%)

         :::::::::::::::::::::::::::::::::::::::::::::::::::::
         ::                     SUMMARY                     ::
         :::::::::::::::::::::::::::::::::::::::::::::::::::::
         :: total energy             -391.986233415206 Eh   ::
         :: total w/o Gsasa/hb       -391.930036295475 Eh   ::
         :: gradient norm               0.451477018068 Eh/α ::
         :: HOMO-LUMO gap               2.072299545494 eV   ::
         ::.................................................::
         :: SCC energy               -396.748695998059 Eh   ::
         :: -> isotropic ES             1.205541861058 Eh   ::
         :: -> anisotropic ES          -0.035260920265 Eh   ::
         :: -> anisotropic XC           0.123820824790 Eh   ::
         :: -> dispersion              -0.315123430811 Eh   ::
         :: -> Gsolv                   -0.313081878139 Eh   ::
         ::    -> Gborn                -0.256884758409 Eh   ::
         ::    -> Gsasa                -0.015804613467 Eh   ::
         ::    -> Ghb                  -0.042249949390 Eh   ::
         ::    -> Gshift                0.001857443127 Eh   ::
         :: repulsion energy            4.739914728031 Eh   ::
         :: add. restraining            0.000000000000 Eh   ::
         :::::::::::::::::::::::::::::::::::::::::::::::::::::

           -------------------------------------------------
          |                Property Printout                |
           -------------------------------------------------

    * Orbital Energies and Occupations

         #    Occupation            Energy/Eh            Energy/eV
      -------------------------------------------------------------
         1        2.0000           -0.7417532             -20.1841
       ...           ...                  ...                  ...
       332        2.0000           -0.4088893             -11.1264
       333        2.0000           -0.4088189             -11.1245
       334        2.0000           -0.4086270             -11.1193
       335        2.0000           -0.4044870             -11.0067
       336        2.0000           -0.4014924             -10.9252
       337        2.0000           -0.3998495             -10.8805
       338        2.0000           -0.3992261             -10.8635
       339        2.0000           -0.3968057             -10.7976
       340        2.0000           -0.3920984             -10.6695
       341        2.0000           -0.3798550             -10.3364
       342        2.0000           -0.3732803             -10.1575
       343        2.0000           -0.3680871             -10.0162
       344        2.0000           -0.3677705             -10.0075 (HOMO)
       345                         -0.2916149              -7.9352 (LUMO)
       346                         -0.2859561              -7.7813
       347                         -0.2836757              -7.7192
       348                         -0.2799702              -7.6184
       349                         -0.2602735              -7.0824
       350                         -0.2536853              -6.9031
       351                         -0.2502692              -6.8102
       352                         -0.2485154              -6.7624
       353                         -0.2460209              -6.6946
       354                         -0.2444608              -6.6521
       355                         -0.2371162              -6.4523
       ...                                ...                  ...
       617                          0.6604590              17.9720
      -------------------------------------------------------------
                  HL-Gap            0.0761556 Eh            2.0723 eV
             Fermi-level           -0.3292453 Eh           -8.9592 eV

   #   Z        covCN         q      C6AA      α(0)
   1   7 N      2.638    -0.385    29.964     8.130
   2   6 C      3.786     0.048    19.791     6.336
   3   6 C      2.765     0.197    23.807     7.991
   4   8 O      0.856    -0.382    21.330     6.192
   5   6 C      3.810    -0.105    22.488     6.750
   6   6 C      2.744     0.292    22.043     7.687
   7   8 O      0.859    -0.481    23.375     6.482
   8   7 N      2.638    -0.293    27.566     7.798
   9   1 H      0.860     0.164     1.308     1.792
  10   1 H      0.923     0.065     2.146     2.291
  11   1 H      0.924     0.073     2.054     2.241
  12   1 H      0.924     0.073     2.054     2.241
  13   1 H      0.860     0.236     0.940     1.518
  14   1 H      0.860     0.229     0.970     1.543
  15   7 N      2.633    -0.394    30.218     8.164
  16   6 C      3.784     0.032    20.051     6.378
  17   6 C      2.765     0.200    23.733     7.978
  18   8 O      0.856    -0.386    21.396     6.202
  19   6 C      3.852    -0.018    20.865     6.497
  20   6 C      3.756    -0.109    22.646     6.785
  21   6 C      3.754    -0.114    22.739     6.800
  22   1 H      0.860     0.161     1.330     1.807
  23   1 H      0.924     0.066     2.132     2.284
  24   1 H      0.924     0.038     2.475     2.460
  25   1 H      0.925     0.059     2.212     2.326
  26   1 H      0.925     0.040     2.455     2.450
  27   1 H      0.925     0.040     2.452     2.449
  28   1 H      0.925     0.061     2.190     2.314
  29   1 H      0.925     0.044     2.391     2.418
  30   1 H      0.925     0.030     2.591     2.517
  31   7 N      2.642    -0.388    30.052     8.142
  32   6 C      3.789     0.031    20.069     6.380
  33   6 C      2.772     0.207    23.610     7.958
  34   8 O      0.856    -0.387    21.423     6.206
  35   6 C      3.853    -0.024    20.967     6.513
  36   6 C      3.806    -0.071    21.845     6.654
  37   6 C      3.754    -0.120    22.866     6.818
  38   6 C      3.752    -0.113    22.729     6.799
  39   1 H      0.860     0.150     1.402     1.855
  40   1 H      0.924     0.062     2.174     2.306
  41   1 H      0.924     0.043     2.416     2.431
  42   1 H      0.924     0.057     2.236     2.338
  43   1 H      0.924     0.039     2.468     2.457
  44   1 H      0.925     0.060     2.195     2.317
  45   1 H      0.925     0.025     2.656     2.549
  46   1 H      0.925     0.056     2.250     2.346
  47   1 H      0.925     0.047     2.358     2.401
  48   1 H      0.925     0.034     2.535     2.490
  49   1 H      0.925     0.049     2.329     2.387
  50   7 N      2.636    -0.383    29.896     8.121
  51   6 C      3.788     0.033    20.037     6.375
  52   6 C      2.763     0.259    22.640     7.792
  53   8 O      0.859    -0.512    24.047     6.575
  54   6 C      3.813    -0.109    22.570     6.762
  55   6 C      2.743     0.293    22.027     7.685
  56   8 O      0.859    -0.498    23.740     6.533
  57   7 N      2.639    -0.297    27.654     7.810
  58   1 H      0.860     0.169     1.281     1.773
  59   1 H      0.923     0.055     2.263     2.352
  60   1 H      0.924     0.091     1.866     2.136
  61   1 H      0.925     0.071     2.071     2.250
  62   1 H      0.860     0.225     0.989     1.558
  63   1 H      0.860     0.234     0.949     1.526
  64   7 N      2.691    -0.161    24.487     7.349
  65   6 C      3.801     0.002    20.540     6.453
  66   6 C      2.761     0.266    22.519     7.771
  67   8 O      0.859    -0.471    23.161     6.452
  68   6 C      3.805    -0.093    22.265     6.717
  69   6 C      3.803    -0.092    22.244     6.715
  70   6 C      3.738    -0.032    21.229     6.575
  71   7 N      2.699    -0.139    24.008     7.277
  72   6 C      2.736     0.232    23.124     7.873
  73   7 N      2.655    -0.260    26.743     7.680
  74   7 N      2.651    -0.242    26.309     7.618
  75   1 H      0.860     0.233     0.952     1.528
  76   1 H      0.923     0.100     1.784     2.088
  77   1 H      0.924     0.090     1.883     2.146
  78   1 H      0.924     0.073     2.052     2.240
  79   1 H      0.925     0.079     1.987     2.204
  80   1 H      0.925     0.078     1.996     2.210
  81   1 H      0.924     0.095     1.832     2.117
  82   1 H      0.924     0.089     1.889     2.150
  83   1 H      0.860     0.234     0.949     1.526
  84   1 H      0.860     0.247     0.894     1.481
  85   1 H      0.860     0.248     0.890     1.478
  86   1 H      0.860     0.248     0.890     1.478
  87   1 H      0.860     0.248     0.892     1.480
  88   7 N      2.689    -0.170    24.670     7.377
  89   6 C      3.802     0.012    20.376     6.427
  90   6 C      2.766     0.270    22.442     7.758
  91   8 O      0.859    -0.469    23.110     6.445
  92   6 C      3.812    -0.080    22.017     6.679
  93   6 C      2.967     0.010    27.797     8.648
  94   6 C      2.927    -0.042    29.033     8.836
  95   6 C      2.925    -0.041    29.017     8.834
  96   6 C      2.919    -0.030    28.757     8.794
  97   6 C      2.919    -0.029    28.729     8.790
  98   6 C      2.921    -0.030    28.743     8.792
  99   1 H      0.860     0.219     1.013     1.576
 100   1 H      0.924     0.104     1.750     2.069
 101   1 H      0.924     0.064     2.151     2.294
 102   1 H      0.924     0.071     2.072     2.251
 103   1 H      0.926     0.041     2.432     2.439
 104   1 H      0.926     0.046     2.371     2.408
 105   1 H      0.926     0.033     2.543     2.494
 106   1 H      0.926     0.040     2.447     2.446
 107   1 H      0.926     0.028     2.615     2.529
 108   7 N      2.689    -0.172    24.721     7.384
 109   6 C      3.803     0.023    20.178     6.395
 110   6 C      2.758     0.279    22.287     7.731
 111   8 O      0.858    -0.500    23.783     6.538
 112   6 C      3.810    -0.117    22.722     6.785
 113   6 C      2.742     0.289    22.093     7.696
 114   8 O      0.859    -0.487    23.495     6.499
 115   7 N      2.638    -0.284    27.322     7.763
 116   1 H      0.860     0.207     1.072     1.622
 117   1 H      0.923     0.077     2.010     2.217
 118   1 H      0.924     0.100     1.788     2.091
 119   1 H      0.924     0.086     1.915     2.164
 120   1 H      0.860     0.237     0.937     1.516
 121   1 H      0.860     0.228     0.974     1.546
 122   7 N      2.691    -0.177    24.834     7.401
 123   6 C      3.794     0.004    20.522     6.451
 124   6 C      2.757     0.265    22.529     7.773
 125   8 O      0.859    -0.508    23.970     6.564
 126   6 C      3.678     0.058    19.814     6.377
 127   8 O      1.655    -0.463    22.121     6.349
 128   1 H      0.860     0.238     0.933     1.513
 129   1 H      0.923     0.080     1.980     2.200
 130   1 H      0.924     0.072     2.065     2.247
 131   1 H      0.924     0.074     2.046     2.237
 132   1 H      0.804     0.333     0.630     1.247
 133   7 N      2.691    -0.172    24.713     7.383
 134   6 C      3.797     0.017    20.297     6.415
 135   6 C      2.757     0.275    22.355     7.743
 136   8 O      0.858    -0.496    23.697     6.527
 137   6 C      3.757    -0.140    23.257     6.876
 138   1 H      0.860     0.251     0.880     1.470
 139   1 H      0.923     0.080     1.976     2.198
 140   1 H      0.925     0.071     2.076     2.253
 141   1 H      0.925     0.092     1.856     2.130
 142   1 H      0.925     0.074     2.039     2.233
 143   7 N      2.691    -0.187    25.060     7.435
 144   6 C      3.801     0.019    20.258     6.408
 145   6 C      2.760     0.283    22.213     7.718
 146   8 O      0.859    -0.495    23.673     6.523
 147   6 C      3.853    -0.027    21.023     6.521
 148   6 C      3.803    -0.067    21.788     6.645
 149   6 C      3.755    -0.115    22.757     6.802
 150   6 C      3.752    -0.110    22.669     6.790
 151   1 H      0.860     0.244     0.908     1.493
 152   1 H      0.923     0.066     2.135     2.285
 153   1 H      0.924     0.058     2.228     2.334
 154   1 H      0.924     0.044     2.398     2.422
 155   1 H      0.924     0.053     2.277     2.360
 156   1 H      0.925     0.061     2.183     2.311
 157   1 H      0.925     0.030     2.593     2.518
 158   1 H      0.925     0.043     2.406     2.426
 159   1 H      0.925     0.055     2.259     2.350
 160   1 H      0.925     0.034     2.528     2.487
 161   1 H      0.925     0.040     2.448     2.447
 162   7 N      2.691    -0.190    25.116     7.443
 163   6 C      3.800     0.009    20.434     6.436
 164   6 C      2.758     0.275    22.352     7.742
 165   8 O      0.858    -0.500    23.787     6.539
 166   6 C      3.726     0.112    18.834     6.196
 167   8 O      1.656    -0.470    22.251     6.368
 168   6 C      3.754    -0.132    23.098     6.853
 169   1 H      0.860     0.230     0.964     1.538
 170   1 H      0.923     0.072     2.061     2.245
 171   1 H      0.923     0.042     2.424     2.435
 172   1 H      0.804     0.331     0.634     1.251
 173   1 H      0.925     0.080     1.982     2.202
 174   1 H      0.925     0.046     2.374     2.409
 175   1 H      0.925     0.062     2.180     2.309
 176   7 N      2.690    -0.180    24.905     7.412
 177   6 C      3.799     0.029    20.091     6.382
 178   6 C      2.758     0.274    22.369     7.745
 179   8 O      0.858    -0.495    23.667     6.523
 180   6 C      3.809    -0.113    22.660     6.776
 181   6 C      2.744     0.292    22.048     7.688
 182   8 O      0.859    -0.499    23.762     6.536
 183   7 N      2.638    -0.290    27.471     7.784
 184   1 H      0.860     0.235     0.945     1.523
 185   1 H      0.923     0.067     2.115     2.274
 186   1 H      0.925     0.093     1.853     2.129
 187   1 H      0.924     0.083     1.953     2.186
 188   1 H      0.860     0.234     0.948     1.525
 189   1 H      0.860     0.233     0.953     1.529
 190   7 N      2.690    -0.182    24.949     7.418
 191   6 C      3.800     0.014    20.337     6.421
 192   6 C      2.760     0.276    22.332     7.739
 193   8 O      0.859    -0.514    24.092     6.581
 194   6 C      3.811    -0.074    21.901     6.661
 195   6 C      3.849    -0.013    20.778     6.484
 196   6 C      3.758    -0.114    22.742     6.799
 197   6 C      3.755    -0.120    22.848     6.816
 198   1 H      0.860     0.244     0.906     1.491
 199   1 H      0.924     0.091     1.866     2.136
 200   1 H      0.924     0.054     2.271     2.357
 201   1 H      0.924     0.053     2.278     2.360
 202   1 H      0.924     0.049     2.333     2.389
 203   1 H      0.925     0.055     2.260     2.351
 204   1 H      0.925     0.038     2.474     2.460
 205   1 H      0.925     0.040     2.451     2.448
 206   1 H      0.925     0.052     2.301     2.372
 207   1 H      0.925     0.039     2.462     2.454
 208   1 H      0.925     0.037     2.491     2.468
 209   7 N      2.688    -0.178    24.859     7.405
 210   6 C      3.749    -0.030    21.175     6.563
 211   6 C      2.758     0.284    22.186     7.713
 212   8 O      0.859    -0.500    23.791     6.540
 213   1 H      0.860     0.242     0.914     1.498
 214   1 H      0.924     0.087     1.912     2.163
 215   1 H      0.925     0.093     1.850     2.127
 216   7 N      2.691    -0.186    25.036     7.431
 217   6 C      3.802     0.036    19.962     6.361
 218   6 C      2.768     0.285    22.176     7.712
 219   8 O      0.859    -0.508    23.959     6.563
 220   6 C      3.809    -0.110    22.593     6.766
 221   6 C      2.744     0.292    22.043     7.688
 222   8 O      0.859    -0.503    23.847     6.547
 223   7 N      2.638    -0.286    27.386     7.772
 224   1 H      0.860     0.228     0.976     1.547
 225   1 H      0.923     0.064     2.159     2.298
 226   1 H      0.925     0.090     1.882     2.145
 227   1 H      0.924     0.074     2.039     2.233
 228   1 H      0.860     0.231     0.961     1.536
 229   1 H      0.860     0.235     0.944     1.522
 230   7 N      2.688    -0.174    24.769     7.392
 231   6 C      3.802     0.017    20.294     6.414
 232   6 C      2.764     0.210    23.542     7.946
 233   8 O      0.856    -0.366    21.017     6.146
 234   6 C      3.724     0.124    18.666     6.169
 235   8 O      1.656    -0.464    22.134     6.351
 236   6 C      3.754    -0.133    23.116     6.856
 237   1 H      0.860     0.238     0.933     1.513
 238   1 H      0.923     0.082     1.959     2.189
 239   1 H      0.923     0.026     2.649     2.545
 240   1 H      0.804     0.325     0.651     1.268
 241   1 H      0.925     0.081     1.968     2.194
 242   1 H      0.925     0.058     2.217     2.328
 243   1 H      0.925     0.066     2.131     2.283
 244   1 H      0.862     0.190     1.158     1.685
 245   1 H      0.930     0.081     1.965     2.192
 246   1 H      0.862     0.188     1.171     1.695
 247   1 H      0.930     0.065     2.137     2.286
 248   1 H      0.862     0.183     1.197     1.714
 249   1 H      0.930     0.064     2.148     2.292
 250   1 H      0.862     0.171     1.264     1.761
 251   1 H      0.930     0.070     2.084     2.257

 Mol. C6AA /au·bohr⁶  :     574440.394704
 Mol. C8AA /au·bohr⁸  :   12707517.759186
 Mol. α(0) /au        :       1133.502163


Wiberg/Mayer (AO) data.
largest (>0.10) Wiberg bond orders for each atom
          total WBO             WBO to atom ...
     1  N   3.001        C    2 1.017    H    9 0.954    H  244 0.952
     2  C   3.986        N    1 1.017    C    3 0.974    C    5 0.969    H   10 0.955
     3  C   3.888        O    4 1.892    C    2 0.974    H  245 0.953
     4  O   2.025        C    3 1.892
     5  C   3.993        C    2 0.969    H   11 0.963    C    6 0.955    H   12 0.955
     6  C   3.949        O    7 1.657    N    8 1.305    C    5 0.955
     7  O   1.966        C    6 1.657    N    8 0.200
     8  N   3.390        C    6 1.305    H   14 0.930    H   13 0.922    O    7 0.200
     9  H   0.973        N    1 0.954
    10  H   0.996        C    2 0.955
    11  H   0.995        C    5 0.963
    12  H   0.995        C    5 0.955
    13  H   0.943        N    8 0.922
    14  H   0.948        N    8 0.930
    15  N   2.999        C   16 1.028    H   22 0.954    H  246 0.946
    16  C   3.983        N   15 1.028    C   17 0.990    H   23 0.944    C   19 0.927
    17  C   3.896        O   18 1.881    C   16 0.990    H  247 0.954
    18  O   2.030        C   17 1.881
    19  C   3.991        C   21 1.010    C   20 1.008    H   24 0.967    C   16 0.927
    20  C   3.995        C   19 1.008    H   26 0.986    H   27 0.980    H   25 0.976
    21  C   3.995        C   19 1.010    H   30 0.985    H   29 0.982    H   28 0.982
    22  H   0.974        N   15 0.954
    23  H   0.996        C   16 0.944
    24  H   0.998        C   19 0.967
    25  H   0.997        C   20 0.976
    26  H   0.998        C   20 0.986
    27  H   0.998        C   20 0.980
    28  H   0.996        C   21 0.982
    29  H   0.998        C   21 0.982
    30  H   0.999        C   21 0.985
    31  N   2.993        C   32 1.012    H   39 0.956    H  248 0.942
    32  C   3.980        N   31 1.012    C   33 0.986    H   40 0.955    C   35 0.937
    33  C   3.891        O   34 1.885    C   32 0.986    H  249 0.956
    34  O   2.033        C   33 1.885
    35  C   3.989        C   37 1.009    C   36 0.995    H   41 0.963    C   32 0.937
    36  C   3.994        C   38 1.018    C   35 0.995    H   42 0.972    H   43 0.966
    37  C   3.994        C   35 1.009    H   45 0.982    H   46 0.982    H   44 0.980
    38  C   3.993        C   36 1.018    H   48 0.982    H   47 0.981    H   49 0.981
    39  H   0.978        N   31 0.956
    40  H   0.996        C   32 0.955
    41  H   0.998        C   35 0.963
    42  H   0.997        C   36 0.972
    43  H   0.998        C   36 0.966
    44  H   0.996        C   37 0.980
    45  H   0.999        C   37 0.982
    46  H   0.997        C   37 0.982
    47  H   0.997        C   38 0.981
    48  H   0.999        C   38 0.982
    49  H   0.998        C   38 0.981
    50  N   2.994        C   51 1.016    H  250 0.958    H   58 0.951
    51  C   3.984        N   50 1.016    C   54 0.977    H   59 0.951    C   52 0.943
    52  C   3.945        O   53 1.568    N   64 1.339    C   51 0.943
    53  O   1.945        C   52 1.568    N   64 0.189
    54  C   3.993        C   51 0.977    H   61 0.965    C   55 0.961    H   60 0.950
    55  C   3.941        O   56 1.655    N   57 1.298    C   54 0.961
    56  O   1.962        C   55 1.655    N   57 0.200
    57  N   3.386        C   55 1.298    H   62 0.928    H   63 0.927    O   56 0.200
    58  H   0.971        N   50 0.951
    59  H   0.997        C   51 0.951
    60  H   0.992        C   54 0.950
    61  H   0.995        C   54 0.965
    62  H   0.949        N   57 0.928
    63  H   0.945        N   57 0.927
    64  N   3.492        C   52 1.339    C   65 0.975    H   75 0.909    O   53 0.189
    65  C   3.955        C   68 0.976    N   64 0.975    H   76 0.943    C   66 0.938
    66  C   3.946        O   67 1.612    N   88 1.307    C   65 0.938
    67  O   1.987        C   66 1.612    N   88 0.193
    68  C   3.979        C   69 1.007    C   65 0.976    H   78 0.971    H   77 0.965
    69  C   3.987        C   68 1.007    C   70 0.997    H   80 0.970    H   79 0.967
    70  C   3.952        C   69 0.997    N   71 0.985    H   81 0.962    H   82 0.960
    71  N   3.467        C   72 1.310    C   70 0.985    H   83 0.917    N   74 0.101
    72  C   3.977        N   74 1.328    N   71 1.310    N   73 1.310
    73  N   3.387        C   72 1.310    H   84 0.919    H   85 0.919    N   74 0.102
    74  N   3.408        C   72 1.328    H   87 0.919    H   86 0.913    N   73 0.102    N   71 0.101
    75  H   0.945        N   64 0.909
    76  H   0.990        C   65 0.943
    77  H   0.992        C   68 0.965
    78  H   0.995        C   68 0.971
    79  H   0.993        C   69 0.967
    80  H   0.994        C   69 0.970
    81  H   0.991        C   70 0.962
    82  H   0.992        C   70 0.960
    83  H   0.945        N   71 0.917
    84  H   0.939        N   73 0.919
    85  H   0.938        N   73 0.919
    86  H   0.938        N   74 0.913
    87  H   0.939        N   74 0.919
    88  N   3.477        C   66 1.307    C   89 0.981    H   99 0.917    O   67 0.193
    89  C   3.964        N   88 0.981    C   92 0.973    H  100 0.940    C   90 0.936
    90  C   3.942        O   91 1.620    N  108 1.295    C   89 0.936
    91  O   1.993        C   90 1.620    N  108 0.191
    92  C   3.986        C   93 1.004    C   89 0.973    H  101 0.967    H  102 0.954
    93  C   3.987        C   94 1.419    C   95 1.408    C   92 1.004    C   98 0.110
    94  C   3.990        C   96 1.439    C   93 1.419    H  103 0.968    C   97 0.110
    95  C   3.991        C   97 1.449    C   93 1.408    H  104 0.965    C   96 0.113
    96  C   3.992        C   98 1.444    C   94 1.439    H  105 0.971    C   95 0.113
    97  C   3.992        C   95 1.449    C   98 1.434    H  106 0.967    C   94 0.110
    98  C   3.992        C   96 1.444    C   97 1.434    H  107 0.972    C   93 0.110
    99  H   0.952        N   88 0.917
   100  H   0.989        C   89 0.940
   101  H   0.996        C   92 0.967
   102  H   0.994        C   92 0.954
   103  H   0.998        C   94 0.968
   104  H   0.998        C   95 0.965
   105  H   0.999        C   96 0.971
   106  H   0.998        C   97 0.967
   107  H   0.999        C   98 0.972
   108  N   3.466        C   90 1.295    C  109 0.981    H  116 0.922    O   91 0.191
   109  C   3.968        N  108 0.981    C  112 0.978    H  117 0.946    C  110 0.931
   110  C   3.950        O  111 1.582    N  122 1.338    C  109 0.931
   111  O   1.961        C  110 1.582    N  122 0.192
   112  C   3.983        C  109 0.978    H  118 0.959    C  113 0.958    H  119 0.952
   113  C   3.947        O  114 1.647    N  115 1.315    C  112 0.958
   114  O   1.966        C  113 1.647    N  115 0.205
   115  N   3.405        C  113 1.315    H  121 0.928    H  120 0.923    O  114 0.205
   116  H   0.957        N  108 0.922
   117  H   0.994        C  109 0.946
   118  H   0.990        C  112 0.959
   119  H   0.992        C  112 0.952
   120  H   0.944        N  115 0.923
   121  H   0.948        N  115 0.928
   122  N   3.484        C  110 1.338    C  123 0.977    H  128 0.874    O  111 0.192
   123  C   3.961        N  122 0.977    C  126 0.962    H  129 0.951    C  124 0.939
   124  C   3.952        O  125 1.562    N  133 1.359    C  123 0.939
   125  O   1.952        C  124 1.562    N  133 0.197
   126  C   3.952        O  127 1.017    H  131 0.968    C  123 0.962    H  130 0.954
   127  O   1.954        C  126 1.017    H  132 0.856
   128  H   0.943        N  122 0.874
   129  H   0.993        C  123 0.951
   130  H   0.995        C  126 0.954
   131  H   0.994        C  126 0.968
   132  H   0.889        O  127 0.856
   133  N   3.500        C  124 1.359    C  134 0.973    H  138 0.868    O  125 0.197
   134  C   3.961        C  137 0.996    N  133 0.973    H  139 0.951    C  135 0.934
   135  C   3.944        O  136 1.597    N  143 1.326    C  134 0.934
   136  O   1.973        C  135 1.597    N  143 0.197
   137  C   3.978        C  134 0.996    H  140 0.980    H  142 0.977    H  141 0.972
   138  H   0.937        N  133 0.868
   139  H   0.993        C  134 0.951
   140  H   0.994        C  137 0.980
   141  H   0.991        C  137 0.972
   142  H   0.994        C  137 0.977
   143  N   3.476        C  135 1.326    C  144 0.981    H  151 0.873    O  136 0.197
   144  C   3.967        N  143 0.981    C  147 0.963    H  152 0.951    C  145 0.939
   145  C   3.941        O  146 1.600    N  162 1.308    C  144 0.939
   146  O   1.976        C  145 1.600    N  162 0.191
   147  C   3.985        C  149 1.009    C  148 0.993    C  144 0.963    H  153 0.959
   148  C   3.994        C  150 1.019    C  147 0.993    H  154 0.976    H  155 0.971
   149  C   3.993        C  147 1.009    H  158 0.986    H  157 0.984    H  156 0.979
   150  C   3.993        C  148 1.019    H  160 0.985    H  159 0.984    H  161 0.983
   151  H   0.940        N  143 0.873
   152  H   0.995        C  144 0.951
   153  H   0.997        C  147 0.959
   154  H   0.998        C  148 0.976
   155  H   0.997        C  148 0.971
   156  H   0.996        C  149 0.979
   157  H   0.999        C  149 0.984
   158  H   0.998        C  149 0.986
   159  H   0.996        C  150 0.984
   160  H   0.999        C  150 0.985
   161  H   0.998        C  150 0.983
   162  N   3.464        C  145 1.308    C  163 0.981    H  169 0.882    O  146 0.191
   163  C   3.966        N  162 0.981    H  170 0.951    C  166 0.948    C  164 0.942
   164  C   3.947        O  165 1.583    N  176 1.324    C  163 0.942
   165  O   1.955        C  164 1.583    N  176 0.190
   166  C   3.957        C  168 1.005    O  167 1.003    H  171 0.953    C  163 0.948
   167  O   1.950        C  166 1.003    H  172 0.850
   168  C   3.988        C  166 1.005    H  175 0.984    H  174 0.983    H  173 0.980
   169  H   0.947        N  162 0.882
   170  H   0.994        C  163 0.951
   171  H   0.998        C  166 0.953
   172  H   0.890        O  167 0.850
   173  H   0.993        C  168 0.980
   174  H   0.998        C  168 0.983
   175  H   0.996        C  168 0.984
   176  N   3.479        C  164 1.324    C  177 0.980    H  184 0.886    O  165 0.190
   177  C   3.967        N  176 0.980    C  180 0.972    H  185 0.954    C  178 0.924
   178  C   3.951        O  179 1.603    N  190 1.337    C  177 0.924
   179  O   1.970        C  178 1.603    N  190 0.202
   180  C   3.984        C  177 0.972    H  187 0.966    C  181 0.959    H  186 0.959
   181  C   3.950        O  182 1.650    N  183 1.315    C  180 0.959
   182  O   1.953        C  181 1.650    N  183 0.205
   183  N   3.394        C  181 1.315    H  188 0.924    H  189 0.895    O  182 0.205
   184  H   0.945        N  176 0.886
   185  H   0.995        C  177 0.954
   186  H   0.991        C  180 0.959
   187  H   0.993        C  180 0.966
   188  H   0.945        N  183 0.924
   189  H   0.946        N  183 0.895
   190  N   3.486        C  178 1.337    C  191 0.978    H  198 0.872    O  179 0.202
   191  C   3.962        N  190 0.978    C  194 0.977    C  192 0.942    H  199 0.937
   192  C   3.945        O  193 1.591    N  209 1.328    C  191 0.942
   193  O   1.945        C  192 1.591    N  209 0.190
   194  C   3.984        C  195 0.991    C  191 0.977    H  201 0.971    H  200 0.970
   195  C   3.993        C  197 1.011    C  196 1.007    C  194 0.991    H  202 0.964
   196  C   3.993        C  195 1.007    H  204 0.986    H  205 0.986    H  203 0.983
   197  C   3.995        C  195 1.011    H  207 0.986    H  206 0.984    H  208 0.982
   198  H   0.940        N  190 0.872
   199  H   0.991        C  191 0.937
   200  H   0.997        C  194 0.970
   201  H   0.996        C  194 0.971
   202  H   0.998        C  195 0.964
   203  H   0.996        C  196 0.983
   204  H   0.999        C  196 0.986
   205  H   0.998        C  196 0.986
   206  H   0.997        C  197 0.984
   207  H   0.998        C  197 0.986
   208  H   0.999        C  197 0.982
   209  N   3.476        C  192 1.328    C  210 0.995    H  213 0.870    O  193 0.190
   210  C   3.969        N  209 0.995    H  214 0.961    H  215 0.958    C  211 0.947
   211  C   3.945        O  212 1.637    N  216 1.297    C  210 0.947
   212  O   1.957        C  211 1.637    N  216 0.198
   213  H   0.941        N  209 0.870
   214  H   0.992        C  210 0.961
   215  H   0.991        C  210 0.958
   216  N   3.459        C  211 1.297    C  217 0.982    H  224 0.897    O  212 0.198
   217  C   3.971        N  216 0.982    C  220 0.970    H  225 0.954    C  218 0.932
   218  C   3.949        O  219 1.622    N  230 1.313    C  217 0.932
   219  O   1.944        C  218 1.622    N  230 0.197
   220  C   3.985        C  217 0.970    H  227 0.967    C  221 0.959    H  226 0.958
   221  C   3.950        O  222 1.642    N  223 1.323    C  220 0.959
   222  O   1.944        C  221 1.642    N  223 0.206
   223  N   3.403        C  221 1.323    H  228 0.925    H  229 0.894    O  222 0.206
   224  H   0.948        N  216 0.897
   225  H   0.996        C  217 0.954
   226  H   0.992        C  220 0.958
   227  H   0.994        C  220 0.967
   228  H   0.946        N  223 0.925
   229  H   0.945        N  223 0.894
   230  N   3.473        C  218 1.313    C  231 0.986    H  237 0.882    O  219 0.197
   231  C   3.965        N  230 0.986    C  232 0.974    H  238 0.946    C  234 0.936
   232  C   3.900        O  233 1.894    C  231 0.974    H  251 0.954
   233  O   2.038        C  232 1.894
   234  C   3.957        O  235 1.007    C  236 0.999    H  239 0.956    C  231 0.936
   235  O   1.958        C  234 1.007    H  240 0.840
   236  C   3.987        C  234 0.999    H  242 0.984    H  243 0.984    H  241 0.979
   237  H   0.943        N  230 0.882
   238  H   0.993        C  231 0.946
   239  H   0.999        C  234 0.956
   240  H   0.895        O  235 0.840
   241  H   0.993        C  236 0.979
   242  H   0.996        C  236 0.984
   243  H   0.996        C  236 0.984
   244  H   0.964        N    1 0.952
   245  H   0.993        C    3 0.953
   246  H   0.965        N   15 0.946
   247  H   0.996        C   17 0.954
   248  H   0.967        N   31 0.942
   249  H   0.996        C   33 0.956
   250  H   0.971        N   50 0.958
   251  H   0.995        C  232 0.954
 
molecular dipole:
                 x           y           z       tot (Debye)
 q only:      260.600     106.413     211.187
   full:      262.609     107.810     209.728     897.122
molecular quadrupole (traceless):
                xx          xy          yy          xz          yz          zz
 q only:    39522.286   42054.991  -44208.220   83756.776   33389.202    4685.934
  q+dip:    40625.762   42920.861  -43985.545   83978.010   33633.233    3359.783
   full:    40623.648   42920.802  -43981.667   83981.329   33634.270    3358.018


           -------------------------------------------------
          | TOTAL ENERGY             -391.986233415206 Eh   |
          | GRADIENT NORM               0.451477018068 Eh/α |
          | HOMO-LUMO GAP               2.072299545494 eV   |
           -------------------------------------------------

------------------------------------------------------------------------
 * finished run on 2019/05/31 at 05:35:24.496     
------------------------------------------------------------------------
 total:
 * wall-time:     0 d,  0 h,  0 min,  2.995 sec
 *  cpu-time:     0 d,  0 h,  0 min,  4.924 sec
 * ratio c/w:     1.644 speedup
 SCF:
 * wall-time:     0 d,  0 h,  0 min,  2.596 sec
 *  cpu-time:     0 d,  0 h,  0 min,  4.458 sec
 * ratio c/w:     1.717 speedup

