      -----------------------------------------------------------      
     |                   =====================                   |     
     |                           x T B                           |     
     |                   =====================                   |     
     |                         S. Grimme                         |     
     |          Mulliken Center for Theoretical Chemistry        |     
     |                    University of Bonn                     |     
     |                Version 6.1 RC1 (SAW190329)                |     
      -----------------------------------------------------------      

   This program is distributed in the hope that it will be useful,
   but WITHOUT ANY WARRANTY; without even the implied warranty of
   MERCHANTABILITY or FITNESS FOR A PARTICULAR PURPOSE.
   
   FOR NON-COMMERCIAL, ACADEMIA USE ONLY.
   
   Cite this work as:
   S. Grimme, C. Bannwarth, P. Shushkov, J. Comput. Theory Chem., 2017,
   13, 1989-2009. DOI: 10.1021/acs.jctc.7b00118
   C. Bannwarth, S. Ehlert and S. Grimme., J. Comput. Theory Chem., 2019,
   just accepted. DOI: 10.1021/acs.jctc.8b01176
   
   for sTDA-xTB:
   S. Grimme and C. Bannwarth, J. Chem. Phys., 2016, 145, 054103.
   DOI: 10.1063/1.4959605
   
   in the mass-spec context:
   V. Asgeirsson, C. Bauer and S. Grimme, Chem. Sci., 2017, 8, 4879.
   DOI: 10.1039/c7sc00601b
   
   for metadynamics refer to:
   S. Grimme, ChemRxiv, Preprint. DOI: 10.26434/chemrxiv.7660532.v1
   
   with help from (in alphabetical order)
   C. Bannwarth, F. Bohle, G. Brandenburg, E. Caldeweyher, M. Checinski,
   S. Dohm, S. Ehlert, S. Ehrlich, F. März, H. Neugebauer, J. Pisarek,
   P. Pracht, P. Shushkov, and S. Spicher.
   
 * started run on 2019/05/31 at 05:34:50.957     

           -------------------------------------------------
          |                Calculation Setup                |
           -------------------------------------------------

          program call               : /home/lum/install/xtb/xtb-190329/bin/xtb xtb_tmp.xyz --chrg -1 --grad --gfn 2 --etemp 500 --acc 0.1 --gbsa h2o --parallel 2
          hostname                   : cpu02
          coordinate file            : xtb_tmp.xyz
          omp threads                :                     2
          number of atoms            :                   427
          number of electrons        :                  1138
          charge                     :                    -1
          spin                       :                   0.0
          first test random number   :      0.57536375844195


molecular fragmentation (1/2 indicates fragments):
111111111111111122222222222222222222222222222222222222222222222222222222
222222222222222222222222222222222222222222222222222222222222222222222222
222222222222222222222222222222222222222222222222222222222222222222222222
222222222222222222222222222222222222222222222222222222222222222222222222
222222222222222222222222222222222222222222222222222222222222222222222222
2222222222222222222222222222222222222222222222222221122222222222222
# atoms in fragment 1/2:    18   409
 fragment masses (1/2) :      101.15     2744.23
CMA distance (Bohr)    :  24.860
constraining FC (au)   :  0.0500

########################################################################
# WARNING! Please study the warnings concerning your input carefully
#  - XTBPATH is not set, using XTBHOME instead
#  - Process number higher than OMP_NUM_THREADS, I hope you know what you are doing.
########################################################################

           ------------------------------------------------- 
          |                 G F N 2 - x T B                 |
          | Geometry, Frequencies, Noncovalent interactions |
          |            JCTC 2018 parametrisation            |
           ------------------------------------------------- 
 
             k(s)              :                1.8500
             k(p)              :                2.2300
             k(d)              :                2.2300
             k(f)              :                2.0000
             kEN (H0ij)        :               -2.0000
             D4 a1             :                0.5200
             D4 a2             :                5.0000
             D4 s6             :                1.0000
             D4 s8             :                2.7000
             D4 s9             :                5.0000
             alphaj            :                2.0000

  Z AO/shell   Hii/eV     exponent
  1     Wed Apr 25 08:07:45 CEST 2018   EN: 2.200 GM2: 0.406  GM3: 0.0800  RAES: 1.40
     1s    -10.707211    1.230000
  6     Wed Apr 25 08:07:45 CEST 2018   EN: 2.550 GM2: 0.538  GM3: 0.1500  RAES: 3.00
     2s    -13.970922    2.096432
     2p    -10.063292    1.800000
  7     Wed Apr 25 08:07:45 CEST 2018   EN: 3.040 GM2: 0.461  GM3:-0.0640  RAES: 1.90
     2s    -16.686243    2.339881
     2p    -12.523956    2.014332
  8     Wed Apr 25 08:07:45 CEST 2018   EN: 3.440 GM2: 0.452  GM3:-0.0517  RAES: 1.80
     2s    -20.229985    2.439742
     2p    -15.503117    2.137023

 Solvent             : h2o
 Using internal parameter file: .param_gbsa2_h2o
 Gsolv ref. state (COSMO-RS): gsolv [1 M gas/solution]
 temperature (mdtemp)       :    298.150000000000     
 dielectric constant        :    80.2000000000000     
 rho                        :    1.00000000000000     
 mass                       :    18.0000000000000     
 surface tension            :    15.5689454083859     
 probe radius               :   0.975313790000000     
 vdW radii scaling          :    1.00000000000000     
 Gshift (Eh)                :   1.857443126794793E-003
 c1                         :    1.55243817000000     
 soset                      :   0.130326360000000     
 HB correction              :  T
 Number of grid points      :          230

            Z     q(EN)     CN     RAES       Cart. coordinates
     1  N   5.0   -0.68    3.00    1.93   383.93293   130.05414   211.81587
     2  C   4.0    0.07    3.98    3.59   383.39813   128.46813   209.65605
     3  C   4.0    0.07    3.00    3.02   382.67563   130.14706   207.43545
     4  O   6.0   -0.40    1.00    1.80   381.44580   132.10020   207.70224
     5  C   4.0   -0.09    3.98    3.58   381.35008   126.47788   210.24553
     6  C   4.0   -0.20    3.98    3.59   378.78815   127.68900   210.76793
     7  C   4.0   -0.22    3.98    3.59   381.14348   124.57312   208.09635
     8  H   1.0    0.28    1.00    1.43   382.56191   131.22645   212.45834
     9  H   1.0    0.11    0.99    1.43   385.16933   127.48815   209.21702
    10  H   1.0    0.10    0.99    1.43   381.97747   125.50171   211.95730
    11  H   1.0    0.11    0.99    1.43   377.41535   126.22714   211.20511
    12  H   1.0    0.11    0.99    1.43   378.89742   128.99788   212.34888
    13  H   1.0    0.13    0.99    1.43   378.12655   128.72329   209.11582
    14  H   1.0    0.12    0.99    1.43   379.72805   123.16479   208.56551
    15  H   1.0    0.12    0.99    1.43   380.55969   125.50308   206.36040
    16  H   1.0    0.11    0.99    1.43   382.93694   123.63593   207.74269
    17  N   5.0   -0.71    3.00    1.93   378.38135   132.09457   202.28308
    18  C   4.0    0.08    3.99    3.60   375.66886   131.68382   202.38378
    19  C   4.0    0.27    3.00    3.02   374.91043   129.67936   200.42999
    20  O   6.0   -0.47    1.00    1.80   373.24061   128.13893   200.85717
    21  C   4.0   -0.10    3.99    3.60   374.27524   134.17593   202.01410
    22  C   4.0    0.26    3.00    3.02   374.46343   135.76028   204.41877
    23  O   6.0   -0.42    1.00    1.80   374.29892   134.81619   206.51579
    24  N   5.0   -0.65    3.00    1.93   374.87025   138.23009   204.03384
    25  H   1.0    0.28    1.00    1.43   379.06483   133.88979   202.27197
    26  H   1.0    0.14    0.99    1.43   375.15737   130.91891   204.25024
    27  H   1.0    0.11    0.99    1.43   375.04345   135.20870   200.40892
    28  H   1.0    0.10    0.99    1.43   372.26593   133.82823   201.69254
    29  H   1.0    0.27    1.00    1.43   374.78948   139.45220   205.51632
    30  H   1.0    0.25    1.00    1.43   374.73368   138.97154   202.28424
    31  N   5.0   -0.48    3.01    1.93   376.21441   129.78191   198.27356
    32  C   4.0    0.07    3.99    3.60   375.88867   128.08157   196.14761
    33  C   4.0    0.29    3.01    3.02   375.93060   125.27820   196.86622
    34  O   6.0   -0.43    1.00    1.80   374.91175   123.71826   195.49985
    35  C   4.0   -0.21    3.99    3.60   377.98455   128.54476   194.22340
    36  H   1.0    0.25    1.00    1.43   377.54001   131.14086   198.08276
    37  H   1.0    0.12    0.99    1.43   374.04292   128.43715   195.26995
    38  H   1.0    0.12    0.99    1.43   377.72573   127.28321   192.62588
    39  H   1.0    0.10    0.99    1.43   377.91920   130.48781   193.55909
    40  H   1.0    0.13    0.99    1.43   379.81736   128.15931   195.07513
    41  N   5.0   -0.47    3.01    1.93   377.17390   124.62673   198.96341
    42  C   4.0    0.08    4.00    3.62   377.33858   121.99749   199.69540
    43  C   4.0    0.28    3.01    3.02   374.78943   120.95224   200.53429
    44  O   6.0   -0.48    1.00    1.80   374.34775   118.67391   200.40003
    45  C   4.0   -0.11    3.98    3.59   379.29725   121.68284   201.77971
    46  C   4.0    0.31    2.99    3.02   382.01494   122.23220   200.70400
    47  O   6.0   -0.41    1.00    1.80   383.43254   123.53547   202.05120
    48  O   6.0   -0.38    1.00    1.80   382.51045   121.30231   198.60192
    49  H   1.0    0.26    1.00    1.43   378.00569   125.90029   200.12092
    50  H   1.0    0.16    0.99    1.43   377.97601   120.90165   198.04810
    51  H   1.0    0.11    0.99    1.43   378.93136   122.97613   203.33689
    52  H   1.0    0.12    0.99    1.43   379.29078   119.74250   202.47420
    53  N   5.0   -0.48    3.00    1.93   373.16508   122.62442   201.49499
    54  C   4.0    0.07    3.99    3.60   370.55812   122.04626   202.12301
    55  C   4.0    0.28    3.01    3.02   370.28635   120.44913   204.50809
    56  O   6.0   -0.45    1.00    1.80   368.33929   119.25826   204.90793
    57  C   4.0   -0.12    3.99    3.60   369.12174   120.73551   199.96157
    58  C   4.0   -0.09    3.98    3.58   369.12775   122.19318   197.46478
    59  C   4.0   -0.23    3.99    3.60   367.40106   120.85219   195.57521
    60  C   4.0   -0.22    3.98    3.59   368.22718   124.90362   197.83971
    61  H   1.0    0.29    1.00    1.43   373.57725   124.49118   201.34118
    62  H   1.0    0.11    0.99    1.43   369.64981   123.85853   202.54079
    63  H   1.0    0.13    0.99    1.43   369.95911   118.87930   199.68255
    64  H   1.0    0.10    0.99    1.43   367.17821   120.48761   200.60015
    65  H   1.0    0.16    0.99    1.43   371.04801   122.23939   196.70169
    66  H   1.0    0.11    0.99    1.43   367.38079   121.87953   193.79897
    67  H   1.0    0.11    0.99    1.43   368.04444   118.94326   195.18521
    68  H   1.0    0.09    0.99    1.43   365.47894   120.76846   196.29633
    69  H   1.0    0.10    0.99    1.43   368.08032   125.83623   196.02263
    70  H   1.0    0.09    0.99    1.43   366.38292   124.91835   198.74350
    71  H   1.0    0.13    0.99    1.43   369.54149   125.99093   198.98417
    72  N   5.0   -0.47    3.00    1.93   372.17568   120.47190   206.18113
    73  C   4.0    0.09    3.99    3.61   372.13484   118.86108   208.40060
    74  C   4.0    0.30    3.01    3.02   369.43932   118.43170   209.36837
    75  O   6.0   -0.45    1.00    1.80   368.58651   116.30287   209.62664
    76  C   4.0    0.03    3.98    3.58   373.77849   120.03393   210.52723
    77  O   6.0   -0.51    1.99    1.82   376.18155   120.69436   209.58727
    78  C   4.0   -0.23    3.98    3.59   373.98403   118.22979   212.75927
    79  H   1.0    0.27    1.00    1.43   373.80162   121.42486   205.86535
    80  H   1.0    0.12    0.99    1.43   372.89941   116.99310   207.90324
    81  H   1.0    0.12    0.99    1.43   372.89768   121.81516   211.12274
    82  H   1.0    0.25    0.99    1.43   377.33707   119.31992   209.92903
    83  H   1.0    0.10    0.99    1.43   375.10112   119.10141   214.24664
    84  H   1.0    0.11    0.99    1.43   372.12665   117.77987   213.50667
    85  H   1.0    0.10    0.99    1.43   374.89208   116.48052   212.16940
    86  N   5.0   -0.48    3.01    1.93   368.18889   120.50810   210.11474
    87  C   4.0    0.06    3.99    3.61   365.82173   120.36454   211.49227
    88  C   4.0    0.29    3.01    3.02   363.77539   119.05934   209.91996
    89  O   6.0   -0.45    1.00    1.80   362.45305   117.36404   210.77710
    90  C   4.0   -0.14    3.98    3.59   364.94429   123.02892   212.21629
    91  C   4.0   -0.12    3.97    3.58   366.65778   124.31729   214.14495
    92  C   4.0    0.31    2.99    3.02   366.27784   127.25268   214.03279
    93  O   6.0   -0.41    1.00    1.80   366.74455   128.28200   211.96107
    94  O   6.0   -0.39    1.00    1.80   365.55484   128.31074   216.00493
    95  H   1.0    0.24    1.00    1.43   368.91440   122.24960   209.84712
    96  H   1.0    0.12    0.99    1.43   366.09872   119.22249   213.20316
    97  H   1.0    0.15    0.99    1.43   364.87521   124.21990   210.52624
    98  H   1.0    0.12    0.99    1.43   363.03525   122.92218   212.99026
    99  H   1.0    0.11    0.99    1.43   366.26853   123.67573   216.06340
   100  H   1.0    0.11    0.99    1.43   368.64954   123.97580   213.72253
   101  N   5.0   -0.47    3.01    1.93   363.50813   119.96344   207.58504
   102  C   4.0    0.07    3.99    3.61   361.59257   119.01515   205.86752
   103  C   4.0    0.30    3.01    3.02   361.98809   116.18229   205.40985
   104  O   6.0   -0.48    1.00    1.80   360.23484   114.68025   205.55631
   105  C   4.0   -0.23    3.98    3.59   361.69401   120.48666   203.39950
   106  H   1.0    0.26    1.00    1.43   364.69563   121.30769   206.94023
   107  H   1.0    0.12    0.99    1.43   359.73677   119.21922   206.76953
   108  H   1.0    0.09    0.99    1.43   360.24687   119.80102   202.11744
   109  H   1.0    0.11    0.99    1.43   361.38136   122.48536   203.76817
   110  H   1.0    0.11    0.99    1.43   363.53746   120.24982   202.52728
   111  N   5.0   -0.49    3.01    1.93   364.33280   115.52122   204.76833
   112  C   4.0    0.07    4.00    3.62   364.98655   112.89715   204.34188
   113  C   4.0    0.30    3.01    3.02   364.40475   111.28037   206.65618
   114  O   6.0   -0.49    1.00    1.80   363.37135   109.20753   206.40324
   115  C   4.0   -0.15    3.98    3.59   367.76354   112.63796   203.58870
   116  C   4.0   -0.17    3.98    3.59   368.16867   113.30029   200.80645
   117  C   4.0   -0.15    3.98    3.59   370.98141   113.37685   200.16288
   118  C   4.0   -0.05    3.98    3.58   371.39379   113.91762   197.36014
   119  N   5.0   -0.73    3.98    2.82   374.04922   114.71837   196.93168
   120  H   1.0    0.30    1.00    1.43   365.75531   116.80611   204.82993
   121  H   1.0    0.12    0.99    1.43   363.77421   112.15683   202.82769
   122  H   1.0    0.14    0.99    1.43   368.88100   113.87817   204.79991
   123  H   1.0    0.11    0.99    1.43   368.36443   110.69625   203.92936
   124  H   1.0    0.10    0.99    1.43   367.22633   111.88770   199.63939
   125  H   1.0    0.11    0.99    1.43   367.32482   115.13854   200.41632
   126  H   1.0    0.14    0.99    1.43   371.87495   114.87020   201.26939
   127  H   1.0    0.11    0.99    1.43   371.84670   111.58140   200.68118
   128  H   1.0    0.11    0.99    1.43   370.98527   112.25031   196.22067
   129  H   1.0    0.11    0.99    1.43   370.15667   115.45158   196.75447
   130  H   1.0    0.25    1.00    1.43   374.34058   115.22621   195.07965
   131  H   1.0    0.30    0.99    1.43   374.44026   116.27092   198.10243
   132  H   1.0    0.25    1.00    1.43   375.27487   113.28805   197.40608
   133  N   5.0   -0.47    3.01    1.93   365.07615   112.19522   208.89355
   134  C   4.0    0.07    4.00    3.61   364.50867   110.81902   211.19952
   135  C   4.0    0.30    3.01    3.02   361.67486   110.21955   211.30245
   136  O   6.0   -0.46    1.00    1.80   360.89343   108.08531   211.76686
   137  C   4.0   -0.21    3.98    3.59   365.29953   112.36765   213.49058
   138  H   1.0    0.30    1.00    1.43   366.07012   113.82833   209.06658
   139  H   1.0    0.12    0.99    1.43   365.50418   108.99662   211.18257
   140  H   1.0    0.10    0.99    1.43   364.87267   111.33963   215.21517
   141  H   1.0    0.12    0.99    1.43   367.31767   112.73691   213.40819
   142  H   1.0    0.14    0.99    1.43   364.29748   114.16158   213.50730
   143  N   5.0   -0.47    3.01    1.93   360.15977   112.18205   210.86708
   144  C   4.0    0.07    3.99    3.61   357.42718   111.94098   210.93516
   145  C   4.0    0.29    3.01    3.02   356.55446   109.90163   209.06798
   146  O   6.0   -0.46    1.00    1.80   355.10055   108.20575   209.69267
   147  C   4.0   -0.22    3.98    3.59   356.23319   114.47716   210.28684
   148  H   1.0    0.30    1.00    1.43   360.88616   113.93875   210.60992
   149  H   1.0    0.12    0.99    1.43   356.84129   111.30711   212.82349
   150  H   1.0    0.09    0.99    1.43   354.18829   114.30759   210.25987
   151  H   1.0    0.11    0.99    1.43   356.77585   115.87571   211.69014
   152  H   1.0    0.13    0.99    1.43   356.89267   115.08652   208.43969
   153  N   5.0   -0.48    3.01    1.93   357.43404   110.17095   206.72715
   154  C   4.0    0.07    4.00    3.61   356.75148   108.41991   204.73756
   155  C   4.0    0.29    3.01    3.02   357.40123   105.70676   205.49687
   156  O   6.0   -0.45    1.00    1.80   355.93546   103.94921   205.11774
   157  C   4.0   -0.14    3.99    3.60   358.12677   109.10737   202.29373
   158  C   4.0   -0.10    3.98    3.58   357.20501   111.56294   201.05526
   159  C   4.0   -0.24    3.99    3.60   358.90583   112.13829   198.79629
   160  C   4.0   -0.23    3.98    3.59   354.45734   111.37903   200.19765
   161  H   1.0    0.30    1.00    1.43   358.62948   111.60987   206.29429
   162  H   1.0    0.11    0.99    1.43   354.69594   108.45934   204.46609
   163  H   1.0    0.13    0.99    1.43   360.13581   109.26352   202.73613
   164  H   1.0    0.10    0.99    1.43   357.89923   107.55235   200.95922
   165  H   1.0    0.13    0.99    1.43   357.37466   113.10058   202.42327
   166  H   1.0    0.09    0.99    1.43   358.21335   113.78659   197.79030
   167  H   1.0    0.10    0.99    1.43   360.82753   112.50451   199.42124
   168  H   1.0    0.09    0.99    1.43   358.92045   110.53794   197.50773
   169  H   1.0    0.10    0.99    1.43   353.91712   113.07132   199.16721
   170  H   1.0    0.09    0.99    1.43   354.20032   109.75786   198.96193
   171  H   1.0    0.09    0.99    1.43   353.18601   111.18275   201.79676
   172  N   5.0   -0.47    3.01    1.93   359.67922   105.41401   206.52932
   173  C   4.0    0.09    4.00    3.61   360.59516   102.96180   207.32495
   174  C   4.0    0.28    3.01    3.02   358.74208   101.82255   209.22160
   175  O   6.0   -0.43    1.00    1.80   357.89705    99.67298   208.98662
   176  C   4.0    0.04    3.98    3.58   363.26061   103.20261   208.48935
   177  O   6.0   -0.47    1.99    1.82   364.99887   104.15724   206.72162
   178  C   4.0   -0.19    3.98    3.59   364.20932   100.62875   209.36823
   179  H   1.0    0.31    1.00    1.43   360.80949   106.93975   206.78704
   180  H   1.0    0.15    0.99    1.43   360.67597   101.69107   205.68349
   181  H   1.0    0.14    0.99    1.43   363.11823   104.48685   210.12160
   182  H   1.0    0.31    0.99    1.43   364.54728   105.88936   206.30893
   183  H   1.0    0.11    0.99    1.43   366.07345   100.83766   210.19850
   184  H   1.0    0.12    0.99    1.43   362.92319    99.83051   210.75320
   185  H   1.0    0.13    0.99    1.43   364.33761    99.35636   207.76202
   186  N   5.0   -0.48    3.01    1.93   358.11552   103.34405   211.13068
   187  C   4.0    0.08    3.99    3.61   356.34059   102.57319   213.07220
   188  C   4.0    0.29    3.01    3.02   353.86216   101.61237   211.90733
   189  O   6.0   -0.40    1.00    1.80   352.73734    99.78935   212.78137
   190  C   4.0   -0.21    3.99    3.60   355.79298   104.79635   214.81562
   191  H   1.0    0.30    1.00    1.43   358.86572   105.10430   211.26994
   192  H   1.0    0.13    0.99    1.43   357.13471   100.98040   214.14092
   193  H   1.0    0.11    0.99    1.43   354.44267   104.23431   216.25486
   194  H   1.0    0.11    0.99    1.43   357.52990   105.42027   215.71630
   195  H   1.0    0.14    0.99    1.43   355.01209   106.34333   213.71229
   196  N   5.0   -0.47    3.01    1.93   353.02215   102.98534   209.96129
   197  C   4.0    0.08    3.99    3.60   350.70902   102.43107   208.62308
   198  C   4.0    0.29    3.01    3.02   350.88175   100.14560   206.84036
   199  O   6.0   -0.41    1.00    1.80   348.98758    99.40281   205.73074
   200  C   4.0   -0.20    3.99    3.60   349.89121   104.74309   207.11202
   201  H   1.0    0.30    1.00    1.43   353.98542   104.54954   209.41863
   202  H   1.0    0.14    0.99    1.43   349.25491   101.92037   210.01621
   203  H   1.0    0.11    0.99    1.43   348.16847   104.30701   206.08497
   204  H   1.0    0.11    0.99    1.43   349.57359   106.33346   208.36965
   205  H   1.0    0.13    0.99    1.43   351.37782   105.21840   205.77568
   206  N   5.0   -0.47    3.00    1.93   353.14727    99.07123   206.57900
   207  C   4.0    0.04    3.99    3.61   353.52435    96.83375   205.07558
   208  C   4.0    0.28    3.01    3.02   354.00095    97.35820   202.27431
   209  O   6.0   -0.39    1.00    1.80   353.57854    95.74704   200.66692
   210  H   1.0    0.32    1.00    1.43   354.65643    99.71074   207.56688
   211  H   1.0    0.13    0.99    1.43   355.14014    95.79537   205.82955
   212  H   1.0    0.15    0.99    1.43   351.83780    95.64094   205.18686
   213  N   5.0   -0.47    3.01    1.93   354.89710    99.65175   201.73088
   214  C   4.0    0.08    4.00    3.62   355.28219   100.45077   199.14505
   215  C   4.0    0.28    3.01    3.02   357.97614    99.79702   198.29459
   216  O   6.0   -0.39    1.00    1.80   359.84038   100.41869   199.49420
   217  C   4.0   -0.09    3.98    3.59   354.81877   103.30611   198.93435
   218  C   4.0   -0.23    3.98    3.59   355.60621   104.30832   196.35053
   219  C   4.0   -0.21    3.98    3.59   352.04256   103.88490   199.45193
   220  H   1.0    0.30    1.00    1.43   355.24799   100.92086   203.12690
   221  H   1.0    0.13    0.99    1.43   353.92344    99.40377   197.98365
   222  H   1.0    0.13    0.99    1.43   355.97742   104.19107   200.39763
   223  H   1.0    0.09    0.99    1.43   355.15163   106.30697   196.22903
   224  H   1.0    0.12    0.99    1.43   357.62731   104.09198   196.04559
   225  H   1.0    0.10    0.99    1.43   354.58207   103.31243   194.87294
   226  H   1.0    0.10    0.99    1.43   351.73307   105.91423   199.48176
   227  H   1.0    0.11    0.99    1.43   350.85317   103.06418   197.99067
   228  H   1.0    0.13    0.99    1.43   351.46499   103.10662   201.26404
   229  N   5.0   -0.49    3.00    1.93   358.08490    98.63030   196.02132
   230  C   4.0    0.09    3.99    3.60   360.43472    97.61574   195.04183
   231  C   4.0    0.05    3.00    3.02   361.58762    99.24377   192.94232
   232  O   6.0   -0.42    1.00    1.80   363.80040    99.03286   192.32045
   233  C   4.0    0.03    3.98    3.58   359.98162    94.94275   193.94257
   234  O   6.0   -0.46    1.99    1.82   358.30543    93.70637   195.61535
   235  C   4.0   -0.21    3.98    3.59   362.45922    93.51025   193.62197
   236  H   1.0    0.25    1.00    1.43   356.51346    97.70024   195.46169
   237  H   1.0    0.16    0.99    1.43   361.78970    97.49947   196.60382
   238  H   1.0    0.11    0.99    1.43   359.05073    95.15903   192.08593
   239  H   1.0    0.25    0.99    1.43   358.24686    91.93248   195.20247
   240  H   1.0    0.10    0.99    1.43   362.14867    91.76550   192.58267
   241  H   1.0    0.13    0.99    1.43   363.81423    94.66407   192.60008
   242  H   1.0    0.12    0.99    1.43   363.23398    93.06436   195.47199
   243  N   5.0   -0.69    3.00    1.93   364.95259   111.44826   190.85386
   244  C   4.0    0.06    3.98    3.59   363.69761   113.85618   191.19376
   245  C   4.0    0.27    3.01    3.02   365.26510   116.00919   190.03002
   246  O   6.0   -0.40    1.00    1.80   367.55862   115.91454   189.83698
   247  C   4.0   -0.23    3.99    3.60   363.36925   114.36929   194.01570
   248  H   1.0    0.27    1.00    1.43   366.45949   111.12523   191.97511
   249  H   1.0    0.10    0.99    1.43   361.87483   113.74017   190.22808
   250  H   1.0    0.09    0.99    1.43   362.32432   116.10734   194.30265
   251  H   1.0    0.08    0.99    1.43   362.33286   112.82363   194.88013
   252  H   1.0    0.10    0.99    1.43   365.20886   114.53713   194.91317
   253  N   5.0   -0.50    3.01    1.93   363.85399   118.01887   189.39450
   254  C   4.0    0.07    3.98    3.59   364.78104   120.24093   188.08875
   255  C   4.0    0.27    3.01    3.02   363.05039   122.46980   188.75280
   256  O   6.0   -0.45    1.00    1.80   360.98540   122.09031   189.72790
   257  C   4.0   -0.01    3.98    3.58   364.75206   119.76201   185.19802
   258  O   6.0   -0.45    1.99    1.82   362.32729   119.22499   184.27661
   259  H   1.0    0.24    1.00    1.43   361.94592   117.84906   189.43775
   260  H   1.0    0.11    0.99    1.43   366.72910   120.59153   188.68217
   261  H   1.0    0.13    0.99    1.43   365.38606   121.44643   184.18798
   262  H   1.0    0.12    0.99    1.43   366.05471   118.19715   184.80308
   263  H   1.0    0.27    0.99    1.43   361.69677   117.68716   185.05758
   264  N   5.0   -0.48    3.00    1.93   363.92603   124.78364   188.23545
   265  C   4.0    0.07    3.99    3.61   362.44796   127.04394   188.70151
   266  C   4.0    0.06    3.00    3.02   361.70720   128.26665   186.19732
   267  O   6.0   -0.40    1.00    1.80   363.27316   128.59333   184.51232
   268  C   4.0   -0.09    3.98    3.59   363.90889   129.03722   190.24850
   269  C   4.0   -0.24    3.98    3.59   362.08556   131.10105   191.10606
   270  C   4.0   -0.23    3.98    3.59   365.18781   127.80415   192.51359
   271  H   1.0    0.24    1.00    1.43   365.58892   125.01708   187.33280
   272  H   1.0    0.13    0.99    1.43   360.76286   126.44608   189.73766
   273  H   1.0    0.13    0.99    1.43   365.35192   129.89130   189.03429
   274  H   1.0    0.10    0.99    1.43   363.10498   132.52369   192.17676
   275  H   1.0    0.11    0.99    1.43   361.20138   132.01529   189.49348
   276  H   1.0    0.09    0.99    1.43   360.60501   130.30822   192.29016
   277  H   1.0    0.09    0.99    1.43   366.09607   129.24056   193.66512
   278  H   1.0    0.10    0.99    1.43   363.80331   126.80223   193.65614
   279  H   1.0    0.11    0.99    1.43   366.61344   126.45964   191.89828
   280  N   5.0   -0.68    3.00    1.93   353.95893   124.33039   192.88179
   281  C   4.0    0.08    3.99    3.60   355.75924   122.27594   192.70773
   282  C   4.0    0.09    3.00    3.02   354.65353   120.40442   190.79635
   283  O   6.0   -0.45    1.00    1.80   352.50928   119.54210   191.04814
   284  C   4.0   -0.09    3.98    3.58   356.28785   121.05385   195.27605
   285  C   4.0   -0.24    3.99    3.60   358.14286   118.87814   194.91056
   286  C   4.0   -0.24    3.99    3.60   357.41515   123.01270   197.06280
   287  H   1.0    0.32    1.00    1.43   352.31688   124.03112   193.83375
   288  H   1.0    0.13    0.99    1.43   357.51285   123.05679   191.94818
   289  H   1.0    0.11    0.99    1.43   354.50848   120.33289   196.04877
   290  H   1.0    0.08    0.99    1.43   358.67883   118.09881   196.73300
   291  H   1.0    0.10    0.99    1.43   357.32300   117.37830   193.76867
   292  H   1.0    0.11    0.99    1.43   359.82150   119.58219   193.95544
   293  H   1.0    0.09    0.99    1.43   357.68453   122.19746   198.92556
   294  H   1.0    0.10    0.99    1.43   359.23386   123.63174   196.33855
   295  H   1.0    0.10    0.99    1.43   356.18462   124.64567   197.22060
   296  N   5.0   -0.70    3.01    1.93   355.25624   113.82601   187.10356
   297  C   4.0    0.06    3.98    3.59   356.02840   111.22074   187.47399
   298  C   4.0    0.07    3.01    3.02   354.91244   109.79005   185.22867
   299  O   6.0   -0.41    1.00    1.80   352.66776   109.22170   185.16187
   300  C   4.0   -0.08    3.98    3.59   354.92933   110.17666   189.95602
   301  C   4.0   -0.23    3.98    3.59   355.57959   107.38455   190.24347
   302  C   4.0   -0.24    3.98    3.59   355.89620   111.68109   192.21122
   303  H   1.0    0.29    1.00    1.43   353.39293   114.10058   186.72648
   304  H   1.0    0.10    0.99    1.43   358.09541   111.13728   187.49163
   305  H   1.0    0.13    0.99    1.43   352.87135   110.36918   189.81746
   306  H   1.0    0.10    0.99    1.43   354.59540   106.61766   191.86958
   307  H   1.0    0.12    0.99    1.43   354.99637   106.32495   188.58053
   308  H   1.0    0.10    0.99    1.43   357.59936   107.13768   190.52919
   309  H   1.0    0.09    0.99    1.43   355.03064   110.99577   193.94047
   310  H   1.0    0.09    0.99    1.43   357.93355   111.46540   192.36430
   311  H   1.0    0.10    0.99    1.43   355.44212   113.67321   191.99359
   312  N   5.0   -0.67    3.00    1.93   347.36795   120.28805   192.69524
   313  C   4.0    0.07    3.98    3.59   346.63246   120.90504   195.26110
   314  C   4.0    0.07    3.00    3.02   346.98165   123.74510   195.67503
   315  O   6.0   -0.43    1.00    1.80   349.00930   124.75042   195.17195
   316  C   4.0   -0.13    3.99    3.60   348.30293   119.48749   197.17331
   317  C   4.0   -0.05    3.03    3.02   347.85122   116.68964   197.09036
   318  C   4.0   -0.11    3.03    3.02   349.09826   115.16720   195.34724
   319  C   4.0   -0.12    3.03    3.02   346.14738   115.58168   198.75077
   320  C   4.0   -0.09    3.03    3.02   348.65848   112.59316   195.26276
   321  C   4.0   -0.10    3.03    3.02   345.72165   113.00583   198.70651
   322  C   4.0    0.10    3.03    3.02   346.98179   111.49715   196.96482
   323  O   6.0   -0.47    1.99    1.83   346.55680   108.95402   196.83412
   324  H   1.0    0.33    1.00    1.43   349.23931   120.45164   192.27060
   325  H   1.0    0.11    0.99    1.43   344.65299   120.39741   195.52468
   326  H   1.0    0.12    0.99    1.43   350.27496   119.91138   196.74040
   327  H   1.0    0.09    0.99    1.43   347.84721   120.22517   199.04026
   328  H   1.0    0.13    1.00    1.43   350.43380   115.99749   194.04684
   329  H   1.0    0.10    1.00    1.43   345.14045   116.74495   200.09154
   330  H   1.0    0.12    1.00    1.43   349.61992   111.41288   193.90680
   331  H   1.0    0.11    1.00    1.43   344.41575   112.17362   200.03461
   332  H   1.0    0.25    0.99    1.43   345.71286   108.38833   198.36348
   333  N   5.0   -0.66    3.00    1.93   368.94189   137.65666   207.42509
   334  C   4.0    0.09    3.98    3.59   368.10199   135.11745   207.97599
   335  C   4.0    0.28    3.02    3.02   365.57133   134.76028   206.63381
   336  O   6.0   -0.37    1.00    1.80   364.18679   136.56593   206.19937
   337  C   4.0    0.00    3.98    3.59   367.74616   134.77521   210.84067
   338  O   6.0   -0.43    1.99    1.82   365.78694   136.26317   211.80953
   339  H   1.0    0.27    1.00    1.43   369.59003   138.70172   208.90291
   340  H   1.0    0.11    0.99    1.43   369.47942   133.71813   207.30225
   341  H   1.0    0.14    0.99    1.43   367.45984   132.76191   211.25772
   342  H   1.0    0.13    0.99    1.43   369.47235   135.41128   211.78505
   343  H   1.0    0.28    0.99    1.43   364.14392   135.55415   211.33115
   344  N   5.0   -0.50    3.01    1.93   364.96795   132.39954   206.00617
   345  C   4.0    0.08    4.00    3.62   362.58873   131.82567   204.78092
   346  C   4.0    0.26    3.01    3.02   361.40949   129.53370   206.07590
   347  O   6.0   -0.43    1.00    1.80   362.53031   127.53784   206.40860
   348  C   4.0   -0.08    3.98    3.58   362.93262   131.44989   201.90552
   349  C   4.0   -0.16    3.98    3.59   360.39071   130.72862   200.72136
   350  C   4.0   -0.21    3.98    3.59   364.99718   129.52177   201.35124
   351  C   4.0   -0.24    3.98    3.59   360.44894   130.78875   197.84274
   352  H   1.0    0.26    1.00    1.43   366.04605   130.92861   206.56004
   353  H   1.0    0.13    0.99    1.43   361.35805   133.45950   205.08954
   354  H   1.0    0.12    0.99    1.43   363.53382   133.28270   201.14911
   355  H   1.0    0.12    0.99    1.43   359.86071   128.84331   201.37370
   356  H   1.0    0.12    0.99    1.43   358.96295   132.05265   201.40930
   357  H   1.0    0.09    0.99    1.43   365.17494   129.22819   199.33145
   358  H   1.0    0.12    0.99    1.43   366.80977   130.19485   202.05090
   359  H   1.0    0.12    0.99    1.43   364.57080   127.73504   202.27064
   360  H   1.0    0.10    0.99    1.43   358.55489   130.53634   197.09594
   361  H   1.0    0.10    0.99    1.43   361.17987   132.59388   197.19402
   362  H   1.0    0.09    0.99    1.43   361.64516   129.29544   197.10690
   363  N   5.0   -0.48    3.01    1.93   359.02898   129.94772   206.82252
   364  C   4.0    0.08    3.99    3.60   357.50706   128.13440   208.17172
   365  C   4.0    0.27    3.01    3.02   355.18791   127.49088   206.55844
   366  O   6.0   -0.40    1.00    1.80   354.37610   128.97390   204.98732
   367  C   4.0   -0.01    3.98    3.58   356.73497   129.26187   210.78073
   368  O   6.0   -0.45    1.99    1.82   356.39398   131.88588   210.71906
   369  H   1.0    0.25    1.00    1.43   358.14918   131.59585   206.38185
   370  H   1.0    0.12    0.99    1.43   358.64791   126.43656   208.47273
   371  H   1.0    0.14    0.99    1.43   354.92881   128.44968   211.37445
   372  H   1.0    0.12    0.99    1.43   358.19019   128.75149   212.16896
   373  H   1.0    0.27    0.99    1.43   358.03182   132.71451   210.52483
   374  N   5.0   -0.49    3.01    1.93   354.23732   125.15728   206.89411
   375  C   4.0    0.07    4.00    3.62   351.84798   124.47075   205.73905
   376  C   4.0    0.06    3.00    3.02   349.72508   125.27852   207.52382
   377  O   6.0   -0.40    1.00    1.80   349.98424   125.21598   209.82903
   378  C   4.0   -0.09    3.98    3.59   351.76895   121.62888   205.14636
   379  C   4.0   -0.16    3.98    3.59   353.82501   121.01327   203.19772
   380  C   4.0   -0.24    3.98    3.59   349.14861   120.92401   204.17672
   381  C   4.0   -0.24    3.98    3.58   354.27252   118.18696   202.86513
   382  H   1.0    0.24    1.00    1.43   354.65236   124.21974   208.50425
   383  H   1.0    0.13    0.99    1.43   351.68200   125.54824   203.98359
   384  H   1.0    0.11    0.99    1.43   352.15155   120.60023   206.90314
   385  H   1.0    0.10    0.99    1.43   353.27587   121.85924   201.39837
   386  H   1.0    0.12    0.99    1.43   355.57934   121.91241   203.80322
   387  H   1.0    0.09    0.99    1.43   349.14513   118.98824   203.49744
   388  H   1.0    0.10    0.99    1.43   347.73709   121.10863   205.65811
   389  H   1.0    0.10    0.99    1.43   348.61286   122.17968   202.63869
   390  H   1.0    0.09    0.99    1.43   355.85975   117.87254   201.60176
   391  H   1.0    0.10    0.99    1.43   354.69632   117.30862   204.67323
   392  H   1.0    0.09    0.99    1.43   352.62772   117.26306   202.05755
   393  N   5.0   -0.67    3.00    1.93   341.91466   114.36588   209.40389
   394  C   4.0    0.06    3.98    3.58   342.89228   116.17431   207.60937
   395  C   4.0    0.06    3.00    3.02   340.84891   116.91798   205.69166
   396  O   6.0   -0.38    1.00    1.80   339.06702   115.53417   205.20573
   397  C   4.0   -0.15    3.99    3.60   345.13083   115.01124   206.17693
   398  C   4.0   -0.10    3.98    3.58   347.19363   113.88631   207.88041
   399  C   4.0   -0.24    3.98    3.59   349.29787   112.78552   206.23503
   400  C   4.0   -0.23    3.98    3.59   348.26255   115.84213   209.70875
   401  H   1.0    0.27    1.00    1.43   341.84084   112.55311   208.81887
   402  H   1.0    0.10    0.99    1.43   343.45580   117.86553   208.65299
   403  H   1.0    0.11    0.99    1.43   344.39507   113.51755   204.95754
   404  H   1.0    0.09    0.99    1.43   345.94634   116.47956   204.98747
   405  H   1.0    0.11    0.99    1.43   346.37369   112.35403   209.00212
   406  H   1.0    0.11    0.99    1.43   350.70140   111.84502   207.40653
   407  H   1.0    0.10    0.99    1.43   348.53789   111.40876   204.91543
   408  H   1.0    0.09    0.99    1.43   350.22804   114.27923   205.17662
   409  H   1.0    0.10    0.99    1.43   349.81327   115.02812   210.78428
   410  H   1.0    0.10    0.99    1.43   348.95652   117.48960   208.69669
   411  H   1.0    0.10    0.99    1.43   346.83372   116.46030   211.05083
   412  H   1.0    0.28    1.00    1.43   384.32661   129.07912   213.15262
   413  H   1.0    0.12    1.00    1.43   383.20325   129.67525   205.68329
   414  H   1.0    0.32    1.00    1.43   379.11517   131.37526   203.63831
   415  H   1.0    0.13    1.00    1.43   360.52205   100.51905   192.04270
   416  H   1.0    0.28    1.00    1.43   363.85479   110.18702   191.16475
   417  H   1.0    0.13    1.00    1.43   359.92305   128.81697   185.90580
   418  H   1.0    0.29    1.00    1.43   354.68183   125.65360   193.66862
   419  H   1.0    0.13    1.00    1.43   355.67933   119.85926   189.30585
   420  H   1.0    0.29    1.00    1.43   355.59316   114.72324   188.50856
   421  H   1.0    0.13    1.00    1.43   356.01819   109.29944   183.77689
   422  H   1.0    0.31    1.00    1.43   346.95763   118.67192   192.36008
   423  H   1.0    0.12    1.00    1.43   345.55676   124.78293   196.35596
   424  H   1.0    0.31    1.00    1.43   370.22362   137.60100   206.30857
   425  H   1.0    0.12    1.00    1.43   348.07587   125.87618   206.82097
   426  H   1.0    0.28    1.00    1.43   342.88721   114.36798   210.79914
   427  H   1.0    0.11    1.00    1.43   340.95248   118.57931   204.79706

           ------------------------------------------------- 
          |        Self-Consistent Charge Iterations        |
           ------------------------------------------------- 

          ...................................................
          :                      SETUP                      :
          :.................................................:
          :  # basis functions                1024          :
          :  # atomic orbitals                1024          :
          :  # shells                          626          :
          :  # electrons                      1138          :
          :  max. iterations                   250          :
          :  Hamiltonian                  GFN2-xTB          :
          :  restarted?                      false          :
          :  GBSA solvation                   true          :
          :  PC potential                    false          :
          :  electronic temp.          500.0000000     K    :
          :  accuracy                    0.1000000          :
          :  -> integral cutoff          0.3500000E+02      :
          :  -> integral neglect         0.1000000E-08      :
          :  -> SCF convergence          0.1000000E-06 Eh   :
          :  -> wf. convergence          0.1000000E-04 e    :
          :  Broyden damping             0.4000000          :
          ...................................................

 iter      E             dE          RMSdq      gap      omega  full diag
   1   -652.1539131 -0.652154E+03  0.421E+00    2.35       0.0  T
   2   -653.9131090 -0.175920E+01  0.216E+00    1.51       1.0  T
   3   -653.9781995 -0.650905E-01  0.118E+00    1.84       1.0  T
   4   -654.0036828 -0.254833E-01  0.266E-01    1.31       1.0  T
   5   -654.0201384 -0.164556E-01  0.108E-01    1.41       1.0  T
   6   -654.0206637 -0.525255E-03  0.485E-02    1.37       1.0  T
   7   -654.0207369 -0.732392E-04  0.198E-02    1.36       1.0  T
   8   -654.0207827 -0.457565E-04  0.885E-03    1.36       1.0  T
   9   -654.0207890 -0.631700E-05  0.449E-03    1.35       1.1  T
  10   -654.0207907 -0.170118E-05  0.192E-03    1.35       2.5  T
  11   -654.0207910 -0.286316E-06  0.736E-04    1.35       6.6  T
  12   -654.0207910 -0.423730E-07  0.353E-04    1.35      13.7  T
  13   -654.0207910 -0.137418E-07  0.164E-04    1.35      29.5  T
  14   -654.0207910 -0.213129E-08  0.703E-05    1.35      68.8  T
  15   -654.0207910 -0.621412E-09  0.284E-05    1.35     170.1  T

   *** convergence criteria satisfied after 15 iterations ***

         #    Occupation            Energy/Eh            Energy/eV
      -------------------------------------------------------------
         1        2.0000           -0.7396029             -20.1256
       ...           ...                  ...                  ...
       563        2.0000           -0.3686341             -10.0310
       564        2.0000           -0.3679258             -10.0118
       565        2.0000           -0.3661998              -9.9648
       566        2.0000           -0.3627477              -9.8709
       567        2.0000           -0.3557588              -9.6807
       568        2.0000           -0.3523955              -9.5892
       569        2.0000           -0.3475726              -9.4579 (HOMO)
       570        0.0000           -0.2979416              -8.1074 (LUMO)
       571                         -0.2943656              -8.0101
       572                         -0.2918200              -7.9408
       573                         -0.2914683              -7.9313
       574                         -0.2839968              -7.7279
       ...                                ...                  ...
      1024                          0.6635671              18.0566
      -------------------------------------------------------------
                  HL-Gap            0.0496310 Eh            1.3505 eV
             Fermi-level           -0.3228214 Eh           -8.7844 eV

 SCC (total)                   0 d,  0 h,  0 min,  5.918 sec
 SCC setup                      ...        0 min,  0.099 sec (  1.667%)
 Dispersion                     ...        0 min,  0.104 sec (  1.754%)
 integral evaluation            ...        0 min,  0.233 sec (  3.943%)
 zeroth order Hamiltonian       ...        0 min,  0.003 sec (  0.058%)
 iterations                     ...        0 min,  4.431 sec ( 74.882%)
 molecular gradient             ...        0 min,  1.011 sec ( 17.086%)
 printout                       ...        0 min,  0.036 sec (  0.610%)

         :::::::::::::::::::::::::::::::::::::::::::::::::::::
         ::                     SUMMARY                     ::
         :::::::::::::::::::::::::::::::::::::::::::::::::::::
         :: total energy             -646.234226675244 Eh   ::
         :: total w/o Gsasa/hb       -646.164118770917 Eh   ::
         :: gradient norm               0.634204243719 Eh/α ::
         :: HOMO-LUMO gap               1.350527801489 eV   ::
         ::.................................................::
         :: SCC energy               -654.032679131406 Eh   ::
         :: -> isotropic ES             1.903820339679 Eh   ::
         :: -> anisotropic ES          -0.031910782348 Eh   ::
         :: -> anisotropic XC           0.197870196736 Eh   ::
         :: -> dispersion              -0.530820599931 Eh   ::
         :: -> Gsolv                   -0.379704636234 Eh   ::
         ::    -> Gborn                -0.309596731906 Eh   ::
         ::    -> Gsasa                -0.013745553338 Eh   ::
         ::    -> Ghb                  -0.058219794116 Eh   ::
         ::    -> Gshift                0.001857443127 Eh   ::
         :: repulsion energy            7.750359892163 Eh   ::
         :: add. restraining            0.000000000000 Eh   ::
         :::::::::::::::::::::::::::::::::::::::::::::::::::::

           -------------------------------------------------
          |                Property Printout                |
           -------------------------------------------------

    * Orbital Energies and Occupations

         #    Occupation            Energy/Eh            Energy/eV
      -------------------------------------------------------------
         1        2.0000           -0.7396029             -20.1256
       ...           ...                  ...                  ...
       557        2.0000           -0.3877928             -10.5524
       558        2.0000           -0.3877523             -10.5513
       559        2.0000           -0.3833850             -10.4324
       560        2.0000           -0.3788363             -10.3087
       561        2.0000           -0.3764460             -10.2436
       562        2.0000           -0.3731141             -10.1530
       563        2.0000           -0.3686341             -10.0310
       564        2.0000           -0.3679258             -10.0118
       565        2.0000           -0.3661998              -9.9648
       566        2.0000           -0.3627477              -9.8709
       567        2.0000           -0.3557588              -9.6807
       568        2.0000           -0.3523955              -9.5892
       569        2.0000           -0.3475726              -9.4579 (HOMO)
       570        0.0000           -0.2979416              -8.1074 (LUMO)
       571                         -0.2943656              -8.0101
       572                         -0.2918200              -7.9408
       573                         -0.2914683              -7.9313
       574                         -0.2839968              -7.7279
       575                         -0.2820411              -7.6747
       576                         -0.2776575              -7.5554
       577                         -0.2773100              -7.5460
       578                         -0.2501659              -6.8074
       579                         -0.2469999              -6.7212
       580                         -0.2457766              -6.6879
       ...                                ...                  ...
      1024                          0.6635671              18.0566
      -------------------------------------------------------------
                  HL-Gap            0.0496310 Eh            1.3505 eV
             Fermi-level           -0.3228214 Eh           -8.7844 eV

   #   Z        covCN         q      C6AA      α(0)
   1   7 N      2.637    -0.384    29.929     8.125
   2   6 C      3.785     0.036    19.982     6.367
   3   6 C      2.767     0.207    23.604     7.957
   4   8 O      0.856    -0.378    21.241     6.179
   5   6 C      3.851    -0.016    20.821     6.490
   6   6 C      3.755    -0.101    22.480     6.760
   7   6 C      3.757    -0.114    22.734     6.798
   8   1 H      0.860     0.159     1.340     1.814
   9   1 H      0.924     0.061     2.189     2.314
  10   1 H      0.924     0.050     2.318     2.381
  11   1 H      0.925     0.046     2.371     2.408
  12   1 H      0.925     0.040     2.451     2.448
  13   1 H      0.925     0.021     2.718     2.578
  14   1 H      0.925     0.063     2.169     2.303
  15   1 H      0.925     0.021     2.716     2.577
  16   1 H      0.925     0.046     2.371     2.408
  17   7 N      2.636    -0.387    30.011     8.136
  18   6 C      3.789     0.043    19.857     6.346
  19   6 C      2.751     0.261    22.595     7.784
  20   8 O      0.858    -0.498    23.744     6.533
  21   6 C      3.809    -0.103    22.460     6.746
  22   6 C      2.745     0.291    22.070     7.692
  23   8 O      0.859    -0.504    23.870     6.550
  24   7 N      2.637    -0.291    27.501     7.789
  25   1 H      0.860     0.174     1.248     1.750
  26   1 H      0.923     0.034     2.533     2.489
  27   1 H      0.925     0.081     1.968     2.194
  28   1 H      0.924     0.072     2.062     2.246
  29   1 H      0.860     0.228     0.972     1.544
  30   1 H      0.860     0.241     0.919     1.502
  31   7 N      2.690    -0.174    24.768     7.391
  32   6 C      3.790     0.019    20.274     6.413
  33   6 C      2.761     0.279    22.274     7.729
  34   8 O      0.859    -0.466    23.049     6.437
  35   6 C      3.759    -0.133    23.104     6.853
  36   1 H      0.860     0.226     0.982     1.552
  37   1 H      0.924     0.093     1.853     2.129
  38   1 H      0.925     0.081     1.969     2.194
  39   1 H      0.925     0.084     1.940     2.178
  40   1 H      0.925     0.054     2.266     2.354
  41   7 N      2.690    -0.179    24.866     7.406
  42   6 C      3.803     0.031    20.046     6.374
  43   6 C      2.754     0.267    22.496     7.767
  44   8 O      0.858    -0.467    23.069     6.440
  45   6 C      3.802    -0.102    22.444     6.745
  46   6 C      2.682     0.372    20.696     7.445
  47   8 O      0.856    -0.636    27.028     6.970
  48   8 O      0.856    -0.628    26.826     6.944
  49   1 H      0.860     0.176     1.240     1.744
  50   1 H      0.923     0.089     1.887     2.148
  51   1 H      0.925     0.022     2.696     2.568
  52   1 H      0.924     0.049     2.328     2.386
  53   7 N      2.686    -0.177    24.836     7.402
  54   6 C      3.791     0.020    20.241     6.407
  55   6 C      2.758     0.270    22.431     7.756
  56   8 O      0.860    -0.467    23.063     6.439
  57   6 C      3.811    -0.080    22.023     6.680
  58   6 C      3.850    -0.019    20.876     6.499
  59   6 C      3.758    -0.120    22.844     6.814
  60   6 C      3.757    -0.126    22.970     6.833
  61   1 H      0.860     0.206     1.076     1.625
  62   1 H      0.924     0.082     1.955     2.187
  63   1 H      0.925     0.080     1.980     2.201
  64   1 H      0.924     0.070     2.087     2.259
  65   1 H      0.924     0.045     2.383     2.414
  66   1 H      0.925     0.041     2.431     2.438
  67   1 H      0.925     0.047     2.353     2.399
  68   1 H      0.925     0.052     2.291     2.367
  69   1 H      0.925     0.049     2.332     2.388
  70   1 H      0.925     0.046     2.374     2.410
  71   1 H      0.925     0.030     2.592     2.518
  72   7 N      2.688    -0.171    24.706     7.382
  73   6 C      3.795     0.004    20.519     6.450
  74   6 C      2.754     0.284    22.194     7.714
  75   8 O      0.859    -0.462    22.966     6.425
  76   6 C      3.726     0.111    18.858     6.200
  77   8 O      1.655    -0.478    22.420     6.392
  78   6 C      3.753    -0.140    23.262     6.878
  79   1 H      0.860     0.205     1.080     1.628
  80   1 H      0.923     0.087     1.904     2.158
  81   1 H      0.924     0.031     2.570     2.507
  82   1 H      0.805     0.344     0.602     1.219
  83   1 H      0.925     0.072     2.069     2.249
  84   1 H      0.925     0.052     2.291     2.367
  85   1 H      0.925     0.073     2.055     2.242
  86   7 N      2.689    -0.181    24.916     7.414
  87   6 C      3.796     0.022    20.204     6.400
  88   6 C      2.756     0.272    22.408     7.752
  89   8 O      0.859    -0.481    23.370     6.482
  90   6 C      3.807    -0.054    21.535     6.606
  91   6 C      3.797    -0.095    22.312     6.726
  92   6 C      2.683     0.370    20.728     7.451
  93   8 O      0.856    -0.644    27.235     6.997
  94   8 O      0.856    -0.646    27.270     7.001
  95   1 H      0.860     0.190     1.159     1.686
  96   1 H      0.923     0.069     2.093     2.263
  97   1 H      0.924     0.051     2.311     2.377
  98   1 H      0.924     0.042     2.420     2.433
  99   1 H      0.925     0.024     2.670     2.555
 100   1 H      0.924     0.020     2.735     2.586
 101   7 N      2.693    -0.167    24.605     7.367
 102   6 C      3.796     0.018    20.274     6.412
 103   6 C      2.759     0.271    22.421     7.754
 104   8 O      0.859    -0.475    23.234     6.463
 105   6 C      3.757    -0.133    23.102     6.853
 106   1 H      0.860     0.206     1.075     1.624
 107   1 H      0.924     0.080     1.982     2.202
 108   1 H      0.925     0.086     1.920     2.167
 109   1 H      0.925     0.067     2.124     2.279
 110   1 H      0.925     0.073     2.049     2.238
 111   7 N      2.690    -0.178    24.848     7.403
 112   6 C      3.800     0.014    20.344     6.422
 113   6 C      2.760     0.273    22.393     7.749
 114   8 O      0.859    -0.511    24.020     6.571
 115   6 C      3.807    -0.081    22.049     6.684
 116   6 C      3.804    -0.081    22.037     6.683
 117   6 C      3.804    -0.096    22.332     6.728
 118   6 C      3.732    -0.041    21.394     6.602
 119   7 N      3.483    -0.160    24.454     7.345
 120   1 H      0.860     0.234     0.946     1.524
 121   1 H      0.923     0.091     1.869     2.138
 122   1 H      0.924     0.063     2.160     2.299
 123   1 H      0.924     0.067     2.113     2.273
 124   1 H      0.924     0.070     2.082     2.256
 125   1 H      0.925     0.067     2.119     2.277
 126   1 H      0.924     0.076     2.021     2.223
 127   1 H      0.925     0.078     2.000     2.211
 128   1 H      0.924     0.117     1.642     2.004
 129   1 H      0.924     0.103     1.760     2.075
 130   1 H      0.859     0.292     0.737     1.345
 131   1 H      0.857     0.291     0.741     1.349
 132   1 H      0.859     0.290     0.743     1.350
 133   7 N      2.690    -0.175    24.786     7.394
 134   6 C      3.798     0.024    20.169     6.394
 135   6 C      2.757     0.276    22.327     7.738
 136   8 O      0.858    -0.503    23.841     6.547
 137   6 C      3.757    -0.135    23.149     6.860
 138   1 H      0.860     0.235     0.945     1.523
 139   1 H      0.923     0.072     2.063     2.246
 140   1 H      0.925     0.066     2.131     2.283
 141   1 H      0.925     0.075     2.026     2.226
 142   1 H      0.925     0.067     2.115     2.274
 143   7 N      2.691    -0.180    24.895     7.410
 144   6 C      3.796     0.024    20.172     6.395
 145   6 C      2.758     0.274    22.364     7.744
 146   8 O      0.858    -0.503    23.856     6.548
 147   6 C      3.757    -0.135    23.140     6.858
 148   1 H      0.860     0.230     0.967     1.541
 149   1 H      0.923     0.064     2.155     2.295
 150   1 H      0.925     0.068     2.106     2.270
 151   1 H      0.925     0.069     2.101     2.266
 152   1 H      0.925     0.081     1.972     2.196
 153   7 N      2.691    -0.183    24.969     7.421
 154   6 C      3.799     0.023    20.191     6.398
 155   6 C      2.758     0.277    22.318     7.736
 156   8 O      0.858    -0.504    23.864     6.550
 157   6 C      3.812    -0.079    21.993     6.675
 158   6 C      3.849    -0.021    20.908     6.504
 159   6 C      3.759    -0.124    22.933     6.827
 160   6 C      3.756    -0.118    22.816     6.811
 161   1 H      0.860     0.239     0.925     1.507
 162   1 H      0.924     0.074     2.044     2.236
 163   1 H      0.924     0.058     2.222     2.331
 164   1 H      0.924     0.057     2.238     2.340
 165   1 H      0.924     0.055     2.253     2.347
 166   1 H      0.925     0.060     2.195     2.317
 167   1 H      0.925     0.043     2.414     2.430
 168   1 H      0.925     0.048     2.346     2.395
 169   1 H      0.925     0.055     2.262     2.352
 170   1 H      0.925     0.039     2.458     2.452
 171   1 H      0.925     0.033     2.544     2.494
 172   7 N      2.692    -0.193    25.178     7.452
 173   6 C      3.799     0.014    20.348     6.423
 174   6 C      2.757     0.276    22.331     7.738
 175   8 O      0.858    -0.506    23.921     6.557
 176   6 C      3.727     0.115    18.790     6.189
 177   8 O      1.656    -0.470    22.248     6.367
 178   6 C      3.754    -0.126    22.982     6.836
 179   1 H      0.860     0.231     0.959     1.534
 180   1 H      0.923     0.071     2.073     2.252
 181   1 H      0.923     0.029     2.596     2.520
 182   1 H      0.804     0.332     0.631     1.248
 183   1 H      0.925     0.075     2.031     2.229
 184   1 H      0.925     0.040     2.449     2.447
 185   1 H      0.925     0.063     2.159     2.298
 186   7 N      2.691    -0.187    25.055     7.434
 187   6 C      3.796     0.027    20.122     6.388
 188   6 C      2.754     0.279    22.277     7.729
 189   8 O      0.858    -0.506    23.926     6.558
 190   6 C      3.758    -0.133    23.107     6.853
 191   1 H      0.860     0.231     0.962     1.536
 192   1 H      0.923     0.063     2.159     2.298
 193   1 H      0.925     0.068     2.113     2.273
 194   1 H      0.925     0.072     2.058     2.244
 195   1 H      0.925     0.075     2.032     2.229
 196   7 N      2.690    -0.184    24.993     7.425
 197   6 C      3.792     0.028    20.105     6.385
 198   6 C      2.756     0.275    22.342     7.740
 199   8 O      0.859    -0.502    23.832     6.545
 200   6 C      3.758    -0.123    22.910     6.824
 201   1 H      0.860     0.223     0.997     1.564
 202   1 H      0.923     0.069     2.099     2.265
 203   1 H      0.925     0.074     2.041     2.234
 204   1 H      0.925     0.071     2.076     2.253
 205   1 H      0.925     0.064     2.148     2.292
 206   7 N      2.685    -0.175    24.794     7.395
 207   6 C      3.747    -0.026    21.114     6.554
 208   6 C      2.754     0.276    22.329     7.738
 209   8 O      0.859    -0.499    23.764     6.536
 210   1 H      0.860     0.212     1.048     1.603
 211   1 H      0.924     0.082     1.963     2.191
 212   1 H      0.924     0.087     1.910     2.161
 213   7 N      2.691    -0.173    24.745     7.388
 214   6 C      3.803     0.018    20.270     6.410
 215   6 C      2.754     0.279    22.274     7.728
 216   8 O      0.858    -0.474    23.211     6.459
 217   6 C      3.855    -0.015    20.799     6.486
 218   6 C      3.756    -0.121    22.874     6.819
 219   6 C      3.757    -0.118    22.805     6.809
 220   1 H      0.860     0.218     1.017     1.580
 221   1 H      0.924     0.064     2.149     2.293
 222   1 H      0.924     0.047     2.361     2.403
 223   1 H      0.925     0.067     2.120     2.277
 224   1 H      0.925     0.043     2.413     2.429
 225   1 H      0.925     0.052     2.297     2.370
 226   1 H      0.925     0.061     2.186     2.312
 227   1 H      0.925     0.050     2.315     2.379
 228   1 H      0.925     0.033     2.541     2.493
 229   7 N      2.688    -0.180    24.890     7.410
 230   6 C      3.791     0.019    20.266     6.411
 231   6 C      2.766     0.197    23.802     7.990
 232   8 O      0.856    -0.350    20.699     6.100
 233   6 C      3.727     0.122    18.684     6.171
 234   8 O      1.656    -0.489    22.665     6.427
 235   6 C      3.752    -0.142    23.303     6.884
 236   1 H      0.860     0.218     1.020     1.582
 237   1 H      0.924     0.100     1.787     2.091
 238   1 H      0.922     0.030     2.588     2.516
 239   1 H      0.805     0.347     0.596     1.212
 240   1 H      0.925     0.066     2.134     2.284
 241   1 H      0.925     0.072     2.068     2.249
 242   1 H      0.925     0.064     2.156     2.296
 243   7 N      2.636    -0.390    30.095     8.148
 244   6 C      3.787     0.029    20.097     6.385
 245   6 C      2.752     0.269    22.454     7.759
 246   8 O      0.858    -0.469    23.106     6.445
 247   6 C      3.758    -0.137    23.197     6.867
 248   1 H      0.860     0.165     1.304     1.789
 249   1 H      0.924     0.037     2.494     2.470
 250   1 H      0.925     0.055     2.254     2.348
 251   1 H      0.925     0.062     2.173     2.305
 252   1 H      0.925     0.055     2.255     2.348
 253   7 N      2.693    -0.175    24.780     7.393
 254   6 C      3.787     0.003    20.549     6.456
 255   6 C      2.756     0.270    22.433     7.756
 256   8 O      0.859    -0.463    22.970     6.426
 257   6 C      3.676     0.071    19.609     6.344
 258   8 O      1.655    -0.472    22.305     6.376
 259   1 H      0.860     0.203     1.092     1.637
 260   1 H      0.924     0.083     1.950     2.184
 261   1 H      0.924     0.059     2.211     2.325
 262   1 H      0.924     0.048     2.350     2.397
 263   1 H      0.804     0.334     0.628     1.245
 264   7 N      2.688    -0.155    24.355     7.330
 265   6 C      3.796     0.018    20.274     6.411
 266   6 C      2.769     0.201    23.719     7.976
 267   8 O      0.856    -0.367    21.031     6.148
 268   6 C      3.855    -0.015    20.812     6.488
 269   6 C      3.757    -0.127    22.990     6.836
 270   6 C      3.756    -0.119    22.824     6.812
 271   1 H      0.860     0.204     1.084     1.631
 272   1 H      0.924     0.096     1.818     2.108
 273   1 H      0.924     0.052     2.298     2.371
 274   1 H      0.925     0.059     2.208     2.324
 275   1 H      0.925     0.040     2.452     2.449
 276   1 H      0.925     0.061     2.192     2.315
 277   1 H      0.925     0.056     2.252     2.347
 278   1 H      0.925     0.056     2.248     2.345
 279   1 H      0.925     0.047     2.353     2.399
 280   7 N      2.640    -0.400    30.361     8.183
 281   6 C      3.790     0.033    20.031     6.374
 282   6 C      2.769     0.205    23.655     7.965
 283   8 O      0.856    -0.373    21.154     6.166
 284   6 C      3.852    -0.014    20.796     6.486
 285   6 C      3.759    -0.121    22.865     6.817
 286   6 C      3.759    -0.117    22.782     6.805
 287   1 H      0.860     0.172     1.259     1.758
 288   1 H      0.924     0.069     2.100     2.266
 289   1 H      0.924     0.033     2.543     2.494
 290   1 H      0.925     0.053     2.282     2.362
 291   1 H      0.925     0.030     2.586     2.515
 292   1 H      0.925     0.054     2.269     2.356
 293   1 H      0.925     0.048     2.345     2.395
 294   1 H      0.925     0.047     2.357     2.401
 295   1 H      0.925     0.038     2.471     2.458
 296   7 N      2.643    -0.376    29.717     8.096
 297   6 C      3.786     0.032    20.053     6.378
 298   6 C      2.774     0.207    23.600     7.956
 299   8 O      0.856    -0.376    21.212     6.175
 300   6 C      3.854    -0.018    20.865     6.497
 301   6 C      3.756    -0.120    22.861     6.817
 302   6 C      3.756    -0.113    22.723     6.797
 303   1 H      0.860     0.154     1.374     1.836
 304   1 H      0.924     0.057     2.238     2.339
 305   1 H      0.924     0.038     2.476     2.461
 306   1 H      0.925     0.052     2.293     2.368
 307   1 H      0.925     0.026     2.643     2.542
 308   1 H      0.925     0.046     2.373     2.409
 309   1 H      0.925     0.054     2.266     2.354
 310   1 H      0.925     0.049     2.328     2.386
 311   1 H      0.925     0.036     2.505     2.475
 312   7 N      2.636    -0.397    30.298     8.175
 313   6 C      3.784     0.044    19.854     6.347
 314   6 C      2.769     0.198    23.772     7.985
 315   8 O      0.856    -0.358    20.869     6.125
 316   6 C      3.813    -0.069    21.803     6.646
 317   6 C      2.970     0.001    27.994     8.679
 318   6 C      2.924    -0.040    29.002     8.832
 319   6 C      2.925    -0.044    29.086     8.844
 320   6 C      2.917    -0.058    29.442     8.898
 321   6 C      2.917    -0.072    29.797     8.951
 322   6 C      2.847     0.143    24.884     8.176
 323   8 O      1.658    -0.439    21.619     6.277
 324   1 H      0.860     0.186     1.179     1.701
 325   1 H      0.924     0.044     2.391     2.418
 326   1 H      0.924     0.058     2.223     2.332
 327   1 H      0.925     0.046     2.374     2.410
 328   1 H      0.926     0.053     2.283     2.363
 329   1 H      0.926     0.038     2.474     2.460
 330   1 H      0.926     0.050     2.323     2.383
 331   1 H      0.926     0.031     2.569     2.506
 332   1 H      0.804     0.338     0.616     1.233
 333   7 N      2.640    -0.371    29.582     8.078
 334   6 C      3.784     0.033    20.036     6.376
 335   6 C      2.764     0.270    22.437     7.757
 336   8 O      0.859    -0.472    23.180     6.455
 337   6 C      3.679     0.084    19.386     6.307
 338   8 O      1.654    -0.457    21.990     6.330
 339   1 H      0.860     0.165     1.301     1.787
 340   1 H      0.923     0.014     2.834     2.633
 341   1 H      0.923     0.021     2.714     2.576
 342   1 H      0.924     0.047     2.356     2.400
 343   1 H      0.803     0.314     0.680     1.296
 344   7 N      2.691    -0.175    24.778     7.393
 345   6 C      3.805     0.017    20.283     6.411
 346   6 C      2.754     0.272    22.399     7.750
 347   8 O      0.858    -0.475    23.245     6.464
 348   6 C      3.852    -0.020    20.900     6.502
 349   6 C      3.803    -0.062    21.687     6.630
 350   6 C      3.754    -0.117    22.795     6.808
 351   6 C      3.752    -0.117    22.796     6.809
 352   1 H      0.860     0.190     1.161     1.688
 353   1 H      0.924     0.062     2.176     2.307
 354   1 H      0.924     0.049     2.332     2.388
 355   1 H      0.924     0.037     2.495     2.470
 356   1 H      0.924     0.031     2.567     2.505
 357   1 H      0.925     0.073     2.050     2.239
 358   1 H      0.925     0.026     2.640     2.541
 359   1 H      0.925     0.050     2.316     2.380
 360   1 H      0.925     0.051     2.310     2.377
 361   1 H      0.925     0.048     2.344     2.394
 362   1 H      0.925     0.059     2.207     2.323
 363   7 N      2.695    -0.169    24.665     7.376
 364   6 C      3.789     0.004    20.517     6.451
 365   6 C      2.758     0.270    22.432     7.756
 366   8 O      0.858    -0.459    22.894     6.415
 367   6 C      3.674     0.073    19.586     6.342
 368   8 O      1.654    -0.455    21.938     6.323
 369   1 H      0.860     0.213     1.042     1.599
 370   1 H      0.924     0.076     2.017     2.221
 371   1 H      0.924     0.069     2.102     2.267
 372   1 H      0.923     0.033     2.539     2.492
 373   1 H      0.803     0.324     0.653     1.270
 374   7 N      2.691    -0.169    24.660     7.375
 375   6 C      3.801     0.018    20.281     6.412
 376   6 C      2.767     0.200    23.751     7.981
 377   8 O      0.856    -0.374    21.176     6.170
 378   6 C      3.853    -0.023    20.940     6.508
 379   6 C      3.804    -0.070    21.844     6.654
 380   6 C      3.756    -0.120    22.846     6.815
 381   6 C      3.752    -0.113    22.722     6.798
 382   1 H      0.860     0.208     1.068     1.619
 383   1 H      0.924     0.101     1.779     2.086
 384   1 H      0.924     0.056     2.241     2.341
 385   1 H      0.924     0.055     2.257     2.349
 386   1 H      0.924     0.044     2.403     2.424
 387   1 H      0.925     0.070     2.081     2.256
 388   1 H      0.925     0.040     2.448     2.447
 389   1 H      0.925     0.048     2.341     2.393
 390   1 H      0.925     0.051     2.305     2.374
 391   1 H      0.925     0.043     2.415     2.430
 392   1 H      0.925     0.050     2.326     2.385
 393   7 N      2.637    -0.382    29.887     8.119
 394   6 C      3.782     0.038    19.952     6.363
 395   6 C      2.766     0.197    23.805     7.990
 396   8 O      0.856    -0.372    21.136     6.164
 397   6 C      3.811    -0.071    21.843     6.652
 398   6 C      3.849    -0.009    20.699     6.471
 399   6 C      3.757    -0.114    22.742     6.799
 400   6 C      3.755    -0.114    22.740     6.799
 401   1 H      0.860     0.160     1.337     1.811
 402   1 H      0.924     0.058     2.224     2.332
 403   1 H      0.924     0.041     2.440     2.443
 404   1 H      0.925     0.051     2.301     2.372
 405   1 H      0.924     0.030     2.582     2.513
 406   1 H      0.925     0.033     2.542     2.493
 407   1 H      0.925     0.038     2.474     2.460
 408   1 H      0.925     0.053     2.278     2.360
 409   1 H      0.925     0.036     2.505     2.475
 410   1 H      0.925     0.049     2.337     2.391
 411   1 H      0.925     0.033     2.546     2.495
 412   1 H      0.862     0.187     1.174     1.697
 413   1 H      0.930     0.056     2.245     2.343
 414   1 H      0.862     0.159     1.344     1.816
 415   1 H      0.930     0.091     1.867     2.137
 416   1 H      0.862     0.178     1.223     1.732
 417   1 H      0.930     0.080     1.978     2.199
 418   1 H      0.862     0.176     1.240     1.744
 419   1 H      0.930     0.064     2.150     2.293
 420   1 H      0.862     0.182     1.200     1.716
 421   1 H      0.930     0.069     2.098     2.265
 422   1 H      0.862     0.178     1.224     1.733
 423   1 H      0.930     0.068     2.109     2.271
 424   1 H      0.862     0.173     1.257     1.756
 425   1 H      0.930     0.083     1.946     2.181
 426   1 H      0.862     0.178     1.223     1.733
 427   1 H      0.930     0.066     2.128     2.281

 Mol. C6AA /au·bohr⁶  :    1602233.967141
 Mol. C8AA /au·bohr⁸  :   35097155.609926
 Mol. α(0) /au        :       1884.774300


Wiberg/Mayer (AO) data.
largest (>0.10) Wiberg bond orders for each atom
          total WBO             WBO to atom ...
     1  N   2.996        C    2 1.021    H    8 0.954    H  412 0.950
     2  C   3.986        N    1 1.021    C    3 0.995    H    9 0.951    C    5 0.931
     3  C   3.901        O    4 1.881    C    2 0.995    H  413 0.957
     4  O   2.029        C    3 1.881
     5  C   3.993        C    6 1.012    C    7 1.009    H   10 0.963    C    2 0.931
     6  C   3.996        C    5 1.012    H   13 0.986    H   11 0.983    H   12 0.983
     7  C   3.993        C    5 1.009    H   16 0.985    H   15 0.983    H   14 0.978
     8  H   0.975        N    1 0.954
     9  H   0.996        C    2 0.951
    10  H   0.997        C    5 0.963
    11  H   0.998        C    6 0.983
    12  H   0.998        C    6 0.983
    13  H   1.000        C    6 0.986
    14  H   0.996        C    7 0.978
    15  H   1.000        C    7 0.983
    16  H   0.998        C    7 0.985
    17  N   2.995        C   18 1.013    H  414 0.960    H   25 0.950
    18  C   3.984        N   17 1.013    C   21 0.980    H   26 0.957    C   19 0.934
    19  C   3.949        O   20 1.602    N   31 1.324    C   18 0.934
    20  O   1.946        C   19 1.602    N   31 0.197
    21  C   3.993        C   18 0.980    H   27 0.967    C   22 0.959    H   28 0.952
    22  C   3.943        O   23 1.649    N   24 1.304    C   21 0.959
    23  O   1.957        C   22 1.649    N   24 0.199
    24  N   3.386        C   22 1.304    H   29 0.925    H   30 0.922    O   23 0.199
    25  H   0.970        N   17 0.950
    26  H   0.998        C   18 0.957
    27  H   0.993        C   21 0.967
    28  H   0.995        C   21 0.952
    29  H   0.947        N   24 0.925
    30  H   0.942        N   24 0.922
    31  N   3.486        C   19 1.324    C   32 0.976    H   36 0.912    O   20 0.197
    32  C   3.960        C   35 0.991    N   31 0.976    H   37 0.944    C   33 0.940
    33  C   3.949        O   34 1.643    N   41 1.285    C   32 0.940
    34  O   1.962        C   33 1.643    N   41 0.192
    35  C   3.981        C   32 0.991    H   40 0.985    H   38 0.979    H   39 0.977
    36  H   0.949        N   31 0.912
    37  H   0.991        C   32 0.944
    38  H   0.993        C   35 0.979
    39  H   0.992        C   35 0.977
    40  H   0.997        C   35 0.985
    41  N   3.468        C   33 1.285    C   42 0.976    H   49 0.933    O   34 0.192
    42  C   3.960        C   45 0.980    N   41 0.976    C   43 0.944    H   50 0.940
    43  C   3.953        O   44 1.582    N   53 1.320    C   42 0.944
    44  O   1.961        C   43 1.582    N   53 0.183
    45  C   3.981        C   42 0.980    H   51 0.974    H   52 0.965    C   46 0.890
    46  C   3.937        O   48 1.513    O   47 1.511    C   45 0.890
    47  O   1.810        C   46 1.511    O   48 0.222
    48  O   1.817        C   46 1.513    O   47 0.222
    49  H   0.969        N   41 0.933
    50  H   0.992        C   42 0.940
    51  H   0.999        C   45 0.974
    52  H   0.997        C   45 0.965
    53  N   3.481        C   43 1.320    C   54 0.975    H   61 0.899    O   44 0.183
    54  C   3.956        N   53 0.975    C   57 0.969    C   55 0.949    H   62 0.934
    55  C   3.945        O   56 1.598    N   72 1.307    C   54 0.949
    56  O   1.989        C   55 1.598    N   72 0.188
    57  C   3.978        C   58 0.996    C   54 0.969    H   63 0.964    H   64 0.961
    58  C   3.993        C   60 1.009    C   59 1.006    C   57 0.996    H   65 0.962
    59  C   3.993        C   58 1.006    H   68 0.985    H   66 0.984    H   67 0.982
    60  C   3.994        C   58 1.009    H   70 0.983    H   71 0.980    H   69 0.979
    61  H   0.957        N   53 0.899
    62  H   0.993        C   54 0.934
    63  H   0.994        C   57 0.964
    64  H   0.995        C   57 0.961
    65  H   0.998        C   58 0.962
    66  H   0.998        C   59 0.984
    67  H   0.998        C   59 0.982
    68  H   0.997        C   59 0.985
    69  H   0.997        C   60 0.979
    70  H   0.998        C   60 0.983
    71  H   0.999        C   60 0.980
    72  N   3.472        C   55 1.307    C   73 0.979    H   79 0.919    O   56 0.188
    73  C   3.963        N   72 0.979    H   80 0.948    C   76 0.948    C   74 0.941
    74  C   3.950        O   75 1.624    N   86 1.279    C   73 0.941
    75  O   1.980        C   74 1.624    N   86 0.186
    76  C   3.958        C   78 1.007    O   77 0.996    H   81 0.959    C   73 0.948
    77  O   1.954        C   76 0.996    H   82 0.863
    78  C   3.988        C   76 1.007    H   84 0.982    H   83 0.981    H   85 0.979
    79  H   0.958        N   72 0.919
    80  H   0.992        C   73 0.948
    81  H   0.999        C   76 0.959
    82  H   0.882        O   77 0.863
    83  H   0.994        C   78 0.981
    84  H   0.997        C   78 0.982
    85  H   0.995        C   78 0.979
    86  N   3.456        C   74 1.279    C   87 0.976    H   95 0.926    O   75 0.186
    87  C   3.964        C   90 0.978    N   86 0.976    H   96 0.953    C   88 0.935
    88  C   3.955        O   89 1.612    N  101 1.323    C   87 0.935
    89  O   1.959        C   88 1.612    N  101 0.199
    90  C   3.991        C   91 1.004    C   87 0.978    H   98 0.975    H   97 0.969
    91  C   3.989        C   90 1.004    H   99 0.983    H  100 0.968    C   92 0.905
    92  C   3.931        O   94 1.512    O   93 1.494    C   91 0.905
    93  O   1.795        C   92 1.494    O   94 0.217
    94  O   1.803        C   92 1.512    O   93 0.217
    95  H   0.964        N   86 0.926
    96  H   0.995        C   87 0.953
    97  H   0.997        C   90 0.969
    98  H   0.998        C   90 0.975
    99  H   0.999        C   91 0.983
   100  H   1.000        C   91 0.968
   101  N   3.486        C   88 1.323    C  102 0.967    H  106 0.920    O   89 0.199
   102  C   3.954        C  105 0.997    N  101 0.967    H  107 0.952    C  103 0.932
   103  C   3.953        O  104 1.609    N  111 1.324    C  102 0.932
   104  O   1.979        C  103 1.609    N  111 0.198
   105  C   3.980        C  102 0.997    H  109 0.980    H  108 0.975    H  110 0.974
   106  H   0.957        N  101 0.920
   107  H   0.993        C  102 0.952
   108  H   0.992        C  105 0.975
   109  H   0.995        C  105 0.980
   110  H   0.995        C  105 0.974
   111  N   3.480        C  103 1.324    C  112 0.980    H  120 0.885    O  104 0.198
   112  C   3.962        N  111 0.980    C  115 0.977    H  121 0.943    C  113 0.941
   113  C   3.942        O  114 1.555    N  133 1.347    C  112 0.941
   114  O   1.948        C  113 1.555    N  133 0.189
   115  C   3.983        C  116 1.004    C  112 0.977    H  123 0.971    H  122 0.968
   116  C   3.989        C  117 1.004    C  115 1.004    H  124 0.974    H  125 0.971
   117  C   3.985        C  118 1.009    C  116 1.004    H  127 0.972    H  126 0.966
   118  C   3.915        C  117 1.009    H  128 0.966    H  129 0.961    N  119 0.957
   119  N   3.653        C  118 0.957    H  132 0.901    H  130 0.901    H  131 0.844
   120  H   0.945        N  111 0.885
   121  H   0.991        C  112 0.943
   122  H   0.996        C  115 0.968
   123  H   0.995        C  115 0.971
   124  H   0.995        C  116 0.974
   125  H   0.996        C  116 0.971
   126  H   0.994        C  117 0.966
   127  H   0.994        C  117 0.972
   128  H   0.986        C  118 0.966
   129  H   0.989        C  118 0.961
   130  H   0.914        N  119 0.901
   131  H   0.915        N  119 0.844
   132  H   0.916        N  119 0.901
   133  N   3.495        C  113 1.347    C  134 0.977    H  138 0.885    O  114 0.189
   134  C   3.967        C  137 0.998    N  133 0.977    H  139 0.952    C  135 0.934
   135  C   3.948        O  136 1.598    N  143 1.331    C  134 0.934
   136  O   1.954        C  135 1.598    N  143 0.197
   137  C   3.984        C  134 0.998    H  140 0.982    H  141 0.978    H  142 0.978
   138  H   0.945        N  133 0.885
   139  H   0.994        C  134 0.952
   140  H   0.995        C  137 0.982
   141  H   0.994        C  137 0.978
   142  H   0.995        C  137 0.978
   143  N   3.483        C  135 1.331    C  144 0.973    H  148 0.894    O  136 0.197
   144  C   3.963        C  147 0.997    N  143 0.973    H  149 0.955    C  145 0.933
   145  C   3.950        O  146 1.602    N  153 1.333    C  144 0.933
   146  O   1.952        C  145 1.602    N  153 0.199
   147  C   3.982        C  144 0.997    H  151 0.980    H  150 0.978    H  152 0.973
   148  H   0.947        N  143 0.894
   149  H   0.995        C  144 0.955
   150  H   0.995        C  147 0.978
   151  H   0.995        C  147 0.980
   152  H   0.993        C  147 0.973
   153  N   3.483        C  145 1.333    C  154 0.978    H  161 0.878    O  146 0.199
   154  C   3.963        N  153 0.978    C  157 0.977    H  162 0.945    C  155 0.937
   155  C   3.942        O  156 1.597    N  172 1.318    C  154 0.937
   156  O   1.950        C  155 1.597    N  172 0.192
   157  C   3.981        C  158 0.990    C  154 0.977    H  163 0.966    H  164 0.963
   158  C   3.991        C  160 1.010    C  159 1.006    C  157 0.990    H  165 0.961
   159  C   3.992        C  158 1.006    H  168 0.984    H  167 0.983    H  166 0.980
   160  C   3.994        C  158 1.010    H  169 0.983    H  171 0.982    H  170 0.981
   161  H   0.942        N  153 0.878
   162  H   0.994        C  154 0.945
   163  H   0.997        C  157 0.966
   164  H   0.996        C  157 0.963
   165  H   0.996        C  158 0.961
   166  H   0.996        C  159 0.980
   167  H   0.998        C  159 0.983
   168  H   0.998        C  159 0.984
   169  H   0.997        C  160 0.983
   170  H   0.998        C  160 0.981
   171  H   0.999        C  160 0.982
   172  N   3.471        C  155 1.318    C  173 0.981    H  179 0.876    O  156 0.192
   173  C   3.966        N  172 0.981    H  180 0.952    C  176 0.951    C  174 0.939
   174  C   3.947        O  175 1.589    N  186 1.327    C  173 0.939
   175  O   1.944        C  174 1.589    N  186 0.193
   176  C   3.961        O  177 1.005    C  178 1.005    H  181 0.954    C  173 0.951
   177  O   1.948        C  176 1.005    H  182 0.843
   178  C   3.989        C  176 1.005    H  184 0.984    H  185 0.984    H  183 0.982
   179  H   0.946        N  172 0.876
   180  H   0.994        C  173 0.952
   181  H   0.999        C  176 0.954
   182  H   0.889        O  177 0.843
   183  H   0.994        C  178 0.982
   184  H   0.998        C  178 0.984
   185  H   0.996        C  178 0.984
   186  N   3.481        C  174 1.327    C  187 0.977    H  191 0.888    O  175 0.193
   187  C   3.964        C  190 0.995    N  186 0.977    H  192 0.953    C  188 0.932
   188  C   3.949        O  189 1.628    N  196 1.307    C  187 0.932
   189  O   1.939        C  188 1.628    N  196 0.198
   190  C   3.983        C  187 0.995    H  193 0.982    H  194 0.979    H  195 0.976
   191  H   0.947        N  186 0.888
   192  H   0.996        C  187 0.953
   193  H   0.995        C  190 0.982
   194  H   0.994        C  190 0.979
   195  H   0.994        C  190 0.976
   196  N   3.476        C  188 1.307    C  197 0.985    H  201 0.896    O  189 0.198
   197  C   3.965        C  200 0.994    N  196 0.985    H  202 0.944    C  198 0.933
   198  C   3.948        O  199 1.622    N  206 1.311    C  197 0.933
   199  O   1.934        C  198 1.622    N  206 0.195
   200  C   3.984        C  197 0.994    H  204 0.982    H  203 0.981    H  205 0.979
   201  H   0.950        N  196 0.896
   202  H   0.995        C  197 0.944
   203  H   0.994        C  200 0.981
   204  H   0.994        C  200 0.982
   205  H   0.996        C  200 0.979
   206  N   3.482        C  198 1.311    C  207 1.000    H  210 0.888    O  199 0.195
   207  C   3.965        N  206 1.000    H  212 0.956    H  211 0.952    C  208 0.947
   208  C   3.955        O  209 1.622    N  213 1.318    C  207 0.947
   209  O   1.936        C  208 1.622    N  213 0.199
   210  H   0.955        N  206 0.888
   211  H   0.993        C  207 0.952
   212  H   0.992        C  207 0.956
   213  N   3.483        C  208 1.318    C  214 0.978    H  220 0.894    O  209 0.199
   214  C   3.959        N  213 0.978    C  217 0.961    H  221 0.953    C  215 0.932
   215  C   3.945        O  216 1.669    N  229 1.263    C  214 0.932
   216  O   1.976        C  215 1.669    N  229 0.189
   217  C   3.986        C  219 1.008    C  218 1.007    C  214 0.961    H  222 0.955
   218  C   3.992        C  217 1.007    H  224 0.984    H  225 0.983    H  223 0.977
   219  C   3.993        C  217 1.008    H  227 0.985    H  228 0.984    H  226 0.980
   220  H   0.952        N  213 0.894
   221  H   0.995        C  214 0.953
   222  H   0.998        C  217 0.955
   223  H   0.995        C  218 0.977
   224  H   0.998        C  218 0.984
   225  H   0.997        C  218 0.983
   226  H   0.996        C  219 0.980
   227  H   0.997        C  219 0.985
   228  H   0.999        C  219 0.984
   229  N   3.431        C  215 1.263    C  230 0.990    H  236 0.915    O  216 0.189
   230  C   3.968        N  229 0.990    C  231 0.981    C  233 0.937    H  237 0.936
   231  C   3.903        O  232 1.905    C  230 0.981    H  415 0.950
   232  O   2.054        C  231 1.905
   233  C   3.953        C  235 1.005    O  234 0.989    H  238 0.959    C  230 0.937
   234  O   1.930        C  233 0.989    H  239 0.861
   235  C   3.987        C  233 1.005    H  242 0.983    H  240 0.981    H  241 0.976
   236  H   0.953        N  229 0.915
   237  H   0.990        C  230 0.936
   238  H   0.999        C  233 0.959
   239  H   0.880        O  234 0.861
   240  H   0.995        C  235 0.981
   241  H   0.995        C  235 0.976
   242  H   0.996        C  235 0.983
   243  N   2.993        C  244 1.021    H  248 0.956    H  416 0.956
   244  C   3.987        N  243 1.021    C  247 0.981    H  249 0.960    C  245 0.937
   245  C   3.941        O  246 1.669    N  253 1.265    C  244 0.937
   246  O   1.976        C  245 1.669    N  253 0.192
   247  C   3.990        H  252 0.983    C  244 0.981    H  250 0.979    H  251 0.978
   248  H   0.973        N  243 0.956
   249  H   0.999        C  244 0.960
   250  H   0.997        C  247 0.979
   251  H   0.996        C  247 0.978
   252  H   0.997        C  247 0.983
   253  N   3.447        C  245 1.265    C  254 0.995    H  259 0.920    O  246 0.192
   254  C   3.973        N  253 0.995    H  260 0.950    C  257 0.948    C  255 0.943
   255  C   3.953        O  256 1.642    N  264 1.295    C  254 0.943
   256  O   1.979        C  255 1.642    N  264 0.196
   257  C   3.956        O  258 1.013    H  261 0.969    H  262 0.966    C  254 0.948
   258  O   1.948        C  257 1.013    H  263 0.871
   259  H   0.959        N  253 0.920
   260  H   0.993        C  254 0.950
   261  H   0.996        C  257 0.969
   262  H   0.997        C  257 0.966
   263  H   0.889        O  258 0.871
   264  N   3.479        C  255 1.295    C  265 0.980    H  271 0.927    O  256 0.196
   265  C   3.960        N  264 0.980    C  266 0.975    H  272 0.951    C  268 0.938
   266  C   3.897        O  267 1.900    C  265 0.975    H  417 0.953
   267  O   2.040        C  266 1.900
   268  C   3.986        C  269 1.007    C  270 1.006    H  273 0.966    C  265 0.938
   269  C   3.991        C  268 1.007    H  275 0.984    H  274 0.983    H  276 0.982
   270  C   3.993        C  268 1.006    H  278 0.983    H  279 0.981    H  277 0.980
   271  H   0.958        N  264 0.927
   272  H   0.991        C  265 0.951
   273  H   0.997        C  268 0.966
   274  H   0.996        C  269 0.983
   275  H   0.998        C  269 0.984
   276  H   0.996        C  269 0.982
   277  H   0.997        C  270 0.980
   278  H   0.997        C  270 0.983
   279  H   0.998        C  270 0.981
   280  N   2.996        C  281 1.009    H  418 0.950    H  287 0.929
   281  C   3.980        N  280 1.009    C  282 0.979    H  288 0.955    C  284 0.947
   282  C   3.887        O  283 1.877    C  281 0.979    H  419 0.956
   283  O   2.048        C  282 1.877
   284  C   3.994        C  286 1.009    C  285 1.006    H  289 0.962    C  281 0.947
   285  C   3.994        C  284 1.006    H  291 0.981    H  290 0.981    H  292 0.980
   286  C   3.995        C  284 1.009    H  294 0.985    H  295 0.981    H  293 0.980
   287  H   0.970        N  280 0.929
   288  H   0.995        C  281 0.955
   289  H   0.999        C  284 0.962
   290  H   0.997        C  285 0.981
   291  H   0.999        C  285 0.981
   292  H   0.997        C  285 0.980
   293  H   0.998        C  286 0.980
   294  H   0.998        C  286 0.985
   295  H   0.998        C  286 0.981
   296  N   2.995        C  297 0.997    H  303 0.958    H  420 0.941
   297  C   3.980        N  296 0.997    C  298 0.976    H  304 0.961    C  300 0.958
   298  C   3.888        O  299 1.900    C  297 0.976    H  421 0.955
   299  O   2.036        C  298 1.900
   300  C   3.993        C  302 1.010    C  301 1.008    H  305 0.966    C  297 0.958
   301  C   3.995        C  300 1.008    H  308 0.986    H  307 0.984    H  306 0.980
   302  C   3.995        C  300 1.010    H  310 0.983    H  309 0.980    H  311 0.975
   303  H   0.976        N  296 0.958
   304  H   0.997        C  297 0.961
   305  H   0.998        C  300 0.966
   306  H   0.997        C  301 0.980
   307  H   0.999        C  301 0.984
   308  H   0.998        C  301 0.986
   309  H   0.997        C  302 0.980
   310  H   0.998        C  302 0.983
   311  H   0.999        C  302 0.975
   312  N   2.996        C  313 1.018    H  422 0.950    H  324 0.922
   313  C   3.987        N  312 1.018    C  314 0.981    H  325 0.966    C  316 0.931
   314  C   3.892        O  315 1.889    C  313 0.981    H  423 0.955
   315  O   2.059        C  314 1.889
   316  C   3.993        C  317 1.014    H  327 0.965    H  326 0.964    C  313 0.931
   317  C   3.988        C  319 1.405    C  318 1.399    C  316 1.014
   318  C   3.990        C  320 1.457    C  317 1.399    H  328 0.965    C  321 0.104
   319  C   3.989        C  321 1.453    C  317 1.405    H  329 0.968    C  320 0.107
   320  C   3.987        C  318 1.457    C  322 1.367    H  330 0.967    C  319 0.107
   321  C   3.987        C  319 1.453    C  322 1.372    H  331 0.966    C  318 0.104
   322  C   3.933        C  321 1.372    C  320 1.367    O  323 1.064
   323  O   2.082        C  322 1.064    H  332 0.864
   324  H   0.965        N  312 0.922
   325  H   0.998        C  313 0.966
   326  H   0.996        C  316 0.964
   327  H   0.997        C  316 0.965
   328  H   0.997        C  318 0.965
   329  H   0.998        C  319 0.968
   330  H   0.997        C  320 0.967
   331  H   0.999        C  321 0.966
   332  H   0.885        O  323 0.864
   333  N   2.996        C  334 1.023    H  424 0.957    H  339 0.954
   334  C   3.990        N  333 1.023    C  337 0.961    H  340 0.957    C  335 0.938
   335  C   3.950        O  336 1.644    N  344 1.289    C  334 0.938
   336  O   1.960        C  335 1.644    N  344 0.196
   337  C   3.958        O  338 1.010    H  341 0.967    H  342 0.967    C  334 0.961
   338  O   1.957        C  337 1.010    H  343 0.886
   339  H   0.972        N  333 0.954
   340  H   1.000        C  334 0.957
   341  H   1.000        C  337 0.967
   342  H   0.997        C  337 0.967
   343  H   0.901        O  338 0.886
   344  N   3.464        C  335 1.289    C  345 0.972    H  352 0.931    O  336 0.196
   345  C   3.955        N  344 0.972    H  353 0.953    C  348 0.947    C  346 0.943
   346  C   3.948        O  347 1.644    N  363 1.288    C  345 0.943
   347  O   1.966        C  346 1.644    N  363 0.198
   348  C   3.983        C  350 1.011    C  349 0.993    H  354 0.964    C  345 0.947
   349  C   3.994        C  351 1.018    C  348 0.993    H  356 0.976    H  355 0.975
   350  C   3.992        C  348 1.011    H  358 0.985    H  359 0.982    H  357 0.976
   351  C   3.992        C  349 1.018    H  361 0.986    H  360 0.985    H  362 0.981
   352  H   0.964        N  344 0.931
   353  H   0.996        C  345 0.953
   354  H   0.997        C  348 0.964
   355  H   0.999        C  349 0.975
   356  H   0.999        C  349 0.976
   357  H   0.994        C  350 0.976
   358  H   0.999        C  350 0.985
   359  H   0.997        C  350 0.982
   360  H   0.997        C  351 0.985
   361  H   0.998        C  351 0.986
   362  H   0.996        C  351 0.981
   363  N   3.472        C  346 1.288    C  364 0.994    H  369 0.915    O  347 0.198
   364  C   3.967        N  363 0.994    H  370 0.954    C  367 0.944    C  365 0.936
   365  C   3.956        O  366 1.668    N  374 1.277    C  364 0.936
   366  O   1.983        C  365 1.668    N  374 0.195
   367  C   3.957        O  368 1.018    H  372 0.971    H  371 0.969    C  364 0.944
   368  O   1.966        C  367 1.018    H  373 0.878
   369  H   0.955        N  363 0.915
   370  H   0.994        C  364 0.954
   371  H   0.995        C  367 0.969
   372  H   0.999        C  367 0.971
   373  H   0.895        O  368 0.878
   374  N   3.447        C  365 1.277    C  375 0.975    H  382 0.923    O  366 0.195
   375  C   3.955        C  376 0.978    N  374 0.975    H  383 0.943    C  378 0.942
   376  C   3.896        O  377 1.894    C  375 0.978    H  425 0.952
   377  O   2.036        C  376 1.894
   378  C   3.980        C  380 1.008    C  379 0.991    H  384 0.962    C  375 0.942
   379  C   3.992        C  381 1.018    C  378 0.991    H  385 0.974    H  386 0.973
   380  C   3.991        C  378 1.008    H  388 0.981    H  389 0.980    H  387 0.973
   381  C   3.992        C  379 1.018    H  391 0.985    H  392 0.982    H  390 0.981
   382  H   0.957        N  374 0.923
   383  H   0.990        C  375 0.943
   384  H   0.997        C  378 0.962
   385  H   0.997        C  379 0.974
   386  H   0.998        C  379 0.973
   387  H   0.995        C  380 0.973
   388  H   0.998        C  380 0.981
   389  H   0.998        C  380 0.980
   390  H   0.996        C  381 0.981
   391  H   0.998        C  381 0.985
   392  H   0.997        C  381 0.982
   393  N   3.001        C  394 1.024    H  401 0.956    H  426 0.953
   394  C   3.987        N  393 1.024    C  395 0.980    H  402 0.951    C  397 0.949
   395  C   3.900        O  396 1.896    C  394 0.980    H  427 0.955
   396  O   2.037        C  395 1.896
   397  C   3.991        C  398 0.990    H  403 0.974    H  404 0.969    C  394 0.949
   398  C   3.995        C  400 1.010    C  399 1.005    C  397 0.990    H  405 0.966
   399  C   3.993        C  398 1.005    H  407 0.986    H  406 0.985    H  408 0.983
   400  C   3.995        C  398 1.010    H  411 0.983    H  410 0.983    H  409 0.982
   401  H   0.974        N  393 0.956
   402  H   0.997        C  394 0.951
   403  H   0.998        C  397 0.974
   404  H   0.997        C  397 0.969
   405  H   0.999        C  398 0.966
   406  H   0.998        C  399 0.985
   407  H   0.999        C  399 0.986
   408  H   0.997        C  399 0.983
   409  H   0.998        C  400 0.982
   410  H   0.998        C  400 0.983
   411  H   0.999        C  400 0.983
   412  H   0.965        N    1 0.950
   413  H   0.997        C    3 0.957
   414  H   0.975        N   17 0.960
   415  H   0.992        C  231 0.950
   416  H   0.968        N  243 0.956
   417  H   0.993        C  266 0.953
   418  H   0.969        N  280 0.950
   419  H   0.996        C  282 0.956
   420  H   0.967        N  296 0.941
   421  H   0.995        C  298 0.955
   422  H   0.968        N  312 0.950
   423  H   0.995        C  314 0.955
   424  H   0.970        N  333 0.957
   425  H   0.993        C  376 0.952
   426  H   0.968        N  393 0.953
   427  H   0.996        C  395 0.955
 
molecular dipole:
                 x           y           z       tot (Debye)
 q only:     -361.739    -119.043    -217.778
   full:     -359.348    -116.993    -214.751    1104.840
molecular quadrupole (traceless):
                xx          xy          yy          xz          yz          zz
 q only:  -100226.035  -64922.445   74731.891 -118219.340  -38958.710   25494.144
  q+dip:   -99340.152  -63363.078   73727.421 -115827.369  -37783.989   25612.731
   full:   -99341.196  -63365.245   73726.804 -115825.262  -37783.658   25614.392


           -------------------------------------------------
          | TOTAL ENERGY             -646.234226675244 Eh   |
          | GRADIENT NORM               0.634204243719 Eh/α |
          | HOMO-LUMO GAP               1.350527801489 eV   |
           -------------------------------------------------

------------------------------------------------------------------------
 * finished run on 2019/05/31 at 05:34:57.576     
------------------------------------------------------------------------
 total:
 * wall-time:     0 d,  0 h,  0 min,  6.619 sec
 *  cpu-time:     0 d,  0 h,  0 min, 12.942 sec
 * ratio c/w:     1.955 speedup
 SCF:
 * wall-time:     0 d,  0 h,  0 min,  5.919 sec
 *  cpu-time:     0 d,  0 h,  0 min, 11.828 sec
 * ratio c/w:     1.998 speedup

