      -----------------------------------------------------------      
     |                   =====================                   |     
     |                           x T B                           |     
     |                   =====================                   |     
     |                         S. Grimme                         |     
     |          Mulliken Center for Theoretical Chemistry        |     
     |                    University of Bonn                     |     
     |                 Version 6.0.1 (SAW181210)                 |     
      -----------------------------------------------------------      

   This program is distributed in the hope that it will be useful,
   but WITHOUT ANY WARRANTY; without even the implied warranty of
   MERCHANTABILITY or FITNESS FOR A PARTICULAR PURPOSE.
   
   FOR NON-COMMERCIAL, ACADEMIA USE ONLY.
   
   Cite this work as:
   S. Grimme, C. Bannwarth, P. Shushkov, J. Comput. Theory Chem., 2017,
   13, 1989-2009.
   C. Bannwarth, S. Ehlert and S. Grimme., ChemRxiv, 2018, preprint.
   http://doi.org/10.26434/chemrxiv.7246238.v1
   
   for sTDA-xTB:
   S. Grimme and C. Bannwarth, J. Chem. Phys., 2016, 145, 054103.
   
   in the mass-spec context:
   V. Asgeirsson, C. Bauer and S. Grimme, Chem. Sci., 2017, 8, 4879.
   
   if GBSA is used:
   P. Shushkov, F. März and S. Grimme, unpublished.
   
   for ANC optimizer:
   S. Grimme, unpublished.
   Rational Function algorithm used in ANCopt:
   F. Eckert, P. Pulay, H.-J. Werner, J. Comput. Chem., 1997, 18, 1473.
   
   with help from (in alphabetical order)
   C. Bannwarth, F. Bohle, G. Brandenburg, E. Caldeweyher, M. Checinski,
   S. Dohm, S. Ehlert, S. Ehrlich, F. März, H. Neugebauer, J. Pisarek,
   P. Pracht, P. Shushkov, and S. Spicher.
   
 * started run on 2019/03/07 at 11:37:45.449     
========================================================================
 # omp threads = 1
========================================================================
number of atoms            : 328
number of electrons        : 906
charge                     : -1
spin                       : .0
first test random number   : .2249
           ------------------------------------------------- 
          |                 G F N 2 - x T B                 |
          | Geometry, Frequencies, Noncovalent interactions |
          |            JCTC 2018 parametrisation            |
           ------------------------------------------------- 
 
      method parameters     
 k(s)        :  1.8500
 k(p)        :  2.2300
 k(d)        :  2.2300
 k(f)        :  2.0000
 kEN (H0ij)  : -2.0000
 D4 a1       :  0.5200
 D4 a2       :  5.0000
 D4 s6       :  1.0000
 D4 s8       :  2.7000
 D4 s9       :  5.0000
 alphaj      :  2.0000

 Solvent             : h2o
 Using internal parameter file: .param_gbsa2_h2o
 Gsolv ref. state (COSMO-RS): gsolv [1 M gas/solution]
 temperature (mdtemp)       :    298.150000000000     
 dielectric constant        :    80.2000000000000     
 rho                        :    1.00000000000000     
 mass                       :    18.0000000000000     
 surface tension            :    15.5689454083859     
 probe radius               :   0.975313790000000     
 vdW radii scaling          :    1.00000000000000     
 Gshift (Eh)                :   1.857443126794793E-003
 c1                         :    1.55243817000000     
 soset                      :   0.130326360000000     
 HB correction              :  T

            Z     q(EN)     CN     RAES       Cart. coordinates
     1  N   5.0   -0.24    3.25    1.97   309.05145   140.87340   175.42515
     2  C   4.0    0.02    4.38    4.34   308.11604   138.50179   176.54198
     3  C   4.0    0.15    3.46    3.10   309.11192   138.10306   179.20460
     4  O   6.0   -0.31    1.26    1.80   307.71164   137.26402   180.88646
     5  C   4.0   -0.05    4.45    4.46   308.89271   136.25302   174.93382
     6  C   4.0   -0.03    4.27    4.14   307.86092   136.01491   172.17860
     7  C   4.0   -0.08    4.19    3.98   309.07224   133.84173   170.67816
     8  C   4.0   -0.09    4.24    4.08   305.03767   135.60862   172.37513
     9  H   1.0    0.10    1.08    1.44   309.85269   140.67309   174.02486
    10  H   1.0    0.04    1.13    1.45   306.28867   138.63596   176.60623
    11  H   1.0    0.05    1.10    1.44   310.72386   136.25113   174.83744
    12  H   1.0    0.05    1.10    1.44   308.40327   134.73557   175.83711
    13  H   1.0    0.04    1.12    1.45   308.27855   137.54559   171.26019
    14  H   1.0    0.05    1.05    1.44   308.35792   133.79071   168.99063
    15  H   1.0    0.05    1.05    1.44   310.88260   134.11007   170.56666
    16  H   1.0    0.05    1.05    1.44   308.74154   132.25247   171.52853
    17  H   1.0    0.04    1.06    1.44   304.32336   135.45178   170.69517
    18  H   1.0    0.05    1.06    1.44   304.70508   134.07795   173.32566
    19  H   1.0    0.04    1.06    1.44   304.27233   137.03726   173.23118
    20  N   5.0   -0.16    3.51    2.08   311.48164   138.82305   179.65436
    21  C   4.0    0.04    4.42    4.41   312.60414   138.64541   182.13368
    22  C   4.0    0.09    3.24    3.04   311.34180   140.43498   183.98561
    23  O   6.0   -0.29    1.12    1.80   310.99787   139.75468   186.17580
    24  C   4.0   -0.04    4.34    4.27   315.47085   139.15186   182.07510
    25  C   4.0    0.25    3.13    3.03   316.89948   137.36229   180.27608
    26  O   6.0   -0.29    1.23    1.80   316.41571   135.10218   180.38946
    27  O   6.0   -0.27    1.17    1.80   318.44717   138.25991   178.72650
    28  H   1.0    0.10    1.14    1.45   312.47185   139.42776   178.51674
    29  H   1.0    0.06    1.14    1.45   312.33957   136.92198   182.69870
    30  H   1.0    0.05    1.09    1.44   315.76565   140.88663   181.56109
    31  H   1.0    0.06    1.09    1.44   316.14926   138.97234   183.76829
    32  N   5.0   -0.23    3.25    1.97   305.02067   137.57583   185.57865
    33  C   4.0    0.04    4.31    4.22   305.60270   135.53115   187.31153
    34  C   4.0    0.08    3.25    3.04   306.20741   136.54404   189.91557
    35  O   6.0   -0.29    1.11    1.80   305.39294   135.43855   191.83553
    36  C   4.0   -0.04    4.37    4.33   307.87037   134.03259   186.29107
    37  C   4.0   -0.04    4.32    4.24   308.58469   131.77059   187.96726
    38  C   4.0    0.17    3.29    3.05   306.57402   129.71457   187.99372
    39  O   6.0   -0.31    1.24    1.80   306.09025   128.52782   186.06053
    40  N   5.0   -0.24    3.23    1.96   305.48554   129.30639   190.22170
    41  H   1.0    0.13    1.11    1.45   305.99954   137.61362   184.28230
    42  H   1.0    0.05    1.13    1.45   304.13816   134.43699   187.44759
    43  H   1.0    0.06    1.09    1.44   307.48298   133.43166   184.60355
    44  H   1.0    0.06    1.09    1.44   309.31412   135.15131   186.14368
    45  H   1.0    0.06    1.09    1.44   310.16639   131.05816   187.37578
    46  H   1.0    0.06    1.10    1.44   308.86815   132.35641   189.68124
    47  H   1.0    0.12    1.09    1.44   305.90695   130.20401   191.50861
    48  H   1.0    0.13    1.09    1.44   304.35926   128.14421   190.37477
    49  N   5.0   -0.24    3.27    1.97   300.93319   115.87422   195.43924
    50  C   4.0    0.03    4.47    4.50   302.72654   115.97059   193.32652
    51  C   4.0    0.15    3.45    3.10   301.59648   117.09498   190.94358
    52  O   6.0   -0.30    1.27    1.80   301.87427   116.05752   188.84787
    53  C   4.0    0.05    4.39    4.37   303.78289   113.36466   192.74449
    54  O   6.0   -0.28    2.18    1.85   302.00088   111.43336   193.43424
    55  C   4.0   -0.09    4.24    4.08   306.12238   112.94892   194.26950
    56  H   1.0    0.11    1.08    1.44   299.72187   114.80841   195.25215
    57  H   1.0    0.04    1.14    1.45   304.08147   117.07797   193.87454
    58  H   1.0    0.07    1.13    1.45   304.13438   113.27584   190.94736
    59  H   1.0    0.13    1.09    1.44   301.97632   111.27462   195.01405
    60  H   1.0    0.05    1.06    1.44   306.80457   111.28785   193.90478
    61  H   1.0    0.04    1.06    1.44   307.36582   114.22637   193.84242
    62  H   1.0    0.04    1.06    1.44   305.71797   113.06419   196.05340
    63  N   5.0   -0.16    3.51    2.08   300.26234   119.18124   191.25916
    64  C   4.0    0.03    4.48    4.51   299.17007   120.55696   189.12188
    65  C   4.0    0.16    3.49    3.11   301.21287   122.39377   188.25261
    66  O   6.0   -0.30    1.25    1.80   301.82325   124.13988   189.59998
    67  C   4.0   -0.05    4.44    4.45   296.77768   122.02527   189.94769
    68  C   4.0   -0.02    4.34    4.28   296.01423   124.24003   188.22048
    69  C   4.0   -0.09    4.23    4.07   294.62150   123.31029   185.91691
    70  C   4.0   -0.09    4.23    4.06   294.41930   126.10708   189.68880
    71  H   1.0    0.10    1.14    1.45   299.95809   119.84831   192.70858
    72  H   1.0    0.05    1.12    1.45   298.66174   119.41367   187.78207
    73  H   1.0    0.04    1.09    1.44   295.37550   120.84797   190.04029
    74  H   1.0    0.05    1.10    1.44   297.04791   122.67345   191.64089
    75  H   1.0    0.06    1.14    1.45   297.53546   125.08285   187.64223
    76  H   1.0    0.04    1.06    1.44   294.16230   124.73703   184.86244
    77  H   1.0    0.04    1.06    1.44   295.70054   122.17267   184.96827
    78  H   1.0    0.04    1.06    1.44   293.10405   122.42212   186.43658
    79  H   1.0    0.04    1.06    1.44   293.94309   127.49792   188.59465
    80  H   1.0    0.04    1.06    1.44   292.90941   125.26993   190.30485
    81  H   1.0    0.05    1.06    1.44   295.38306   126.74959   191.10987
    82  N   5.0   -0.16    3.50    2.08   302.34670   121.80229   186.07942
    83  C   4.0    0.04    4.51    4.55   304.44241   123.25549   185.03063
    84  C   4.0    0.17    3.52    3.13   303.97187   123.60508   182.24328
    85  O   6.0   -0.30    1.28    1.80   303.02889   121.90811   180.98661
    86  C   4.0   -0.03    4.39    4.36   306.97842   121.89488   185.45581
    87  C   4.0    0.17    3.32    3.06   309.18940   123.23092   184.23883
    88  O   6.0   -0.29    1.30    1.80   309.29523   123.57107   181.91636
    89  N   5.0   -0.24    3.24    1.97   311.04511   123.93768   185.76006
    90  H   1.0    0.12    1.15    1.45   301.91207   120.53050   185.16669
    91  H   1.0    0.08    1.15    1.45   304.54256   124.88065   185.87344
    92  H   1.0    0.05    1.10    1.44   307.28456   121.74559   187.25672
    93  H   1.0    0.07    1.09    1.44   306.86504   120.19224   184.78874
    94  H   1.0    0.13    1.10    1.44   312.36981   124.65388   185.14779
    95  H   1.0    0.11    1.09    1.44   310.92606   123.68067   187.36066
    96  N   5.0   -0.16    3.55    2.11   304.51044   125.85386   181.29086
    97  C   4.0    0.03    4.54    4.60   304.08336   126.40566   178.63768
    98  C   4.0    0.16    3.43    3.09   306.40772   127.65666   177.41692
    99  O   6.0   -0.31    1.24    1.80   306.17151   128.86419   175.46105
   100  C   4.0   -0.02    4.36    4.32   301.71742   128.13476   178.17281
   101  C   4.0   -0.08    4.21    4.02   299.29480   126.79116   179.01374
   102  C   4.0   -0.08    4.24    4.09   302.01222   130.58384   179.65625
   103  H   1.0    0.11    1.14    1.45   305.12649   127.08785   182.15068
   104  H   1.0    0.06    1.14    1.45   303.76778   124.77860   177.85534
   105  H   1.0    0.05    1.12    1.45   301.60026   128.49947   176.37946
   106  H   1.0    0.04    1.05    1.44   297.85293   127.88342   178.71327
   107  H   1.0    0.05    1.05    1.44   299.09260   125.23970   178.05943
   108  H   1.0    0.05    1.06    1.44   299.40251   126.39810   180.80142
   109  H   1.0    0.04    1.06    1.44   300.55146   131.65343   179.36901
   110  H   1.0    0.05    1.06    1.44   302.14828   130.20401   181.44393
   111  H   1.0    0.06    1.06    1.44   303.52589   131.45690   179.10067
   112  N   5.0   -0.14    3.57    2.13   308.65272   127.24848   178.53186
   113  C   4.0    0.03    4.50    4.54   310.99976   128.30294   177.62290
   114  C   4.0    0.15    3.46    3.10   311.98431   126.67022   175.47617
   115  O   6.0   -0.27    1.23    1.80   310.79000   124.77482   174.76941
   116  C   4.0   -0.04    4.42    4.42   313.01799   128.38042   179.69026
   117  C   4.0   -0.03    4.33    4.25   312.26587   129.98858   181.94848
   118  C   4.0    0.17    3.30    3.05   314.29166   130.06228   183.97994
   119  O   6.0   -0.29    1.22    1.80   314.87748   128.11586   185.11566
   120  N   5.0   -0.23    3.26    1.97   315.27621   132.27515   184.53930
   121  H   1.0    0.13    1.19    1.46   308.82657   126.33007   179.86034
   122  H   1.0    0.05    1.13    1.45   310.66528   130.01692   177.06732
   123  H   1.0    0.07    1.09    1.44   313.36003   126.67211   180.25907
   124  H   1.0    0.06    1.10    1.44   314.57701   129.03238   178.98161
   125  H   1.0    0.05    1.10    1.44   311.91439   131.69689   181.38346
   126  H   1.0    0.06    1.09    1.44   310.71252   129.33095   182.66658
   127  H   1.0    0.12    1.11    1.45   314.82645   133.59796   183.70971
   128  H   1.0    0.13    1.09    1.44   316.37036   132.39987   185.73549
   129  N   5.0   -0.16    3.55    2.11   314.23686   127.34674   174.56532
   130  C   4.0    0.03    4.46    4.48   315.55400   126.00504   172.53954
   131  C   4.0    0.16    3.47    3.10   318.36024   126.26582   173.22551
   132  O   6.0   -0.27    1.27    1.80   319.14637   128.27838   174.07589
   133  C   4.0   -0.04    4.41    4.39   314.96818   127.16722   169.96951
   134  C   4.0   -0.03    4.34    4.28   312.22619   127.05950   169.18527
   135  C   4.0    0.15    3.31    3.05   311.68384   128.53538   166.83635
   136  O   6.0   -0.29    1.22    1.80   313.43562   129.24025   165.42283
   137  N   5.0   -0.25    3.22    1.96   309.25365   129.02104   166.33746
   138  H   1.0    0.11    1.15    1.45   315.05889   128.63176   175.12468
   139  H   1.0    0.05    1.12    1.45   315.03810   124.25137   172.40159
   140  H   1.0    0.07    1.10    1.44   315.50298   128.92088   169.98463
   141  H   1.0    0.06    1.10    1.44   315.97352   126.31117   168.69773
   142  H   1.0    0.05    1.10    1.44   311.74620   125.31151   168.92071
   143  H   1.0    0.06    1.10    1.44   311.18495   127.70012   170.55155
   144  H   1.0    0.10    1.09    1.44   308.09714   128.50514   167.35602
   145  H   1.0    0.12    1.08    1.44   308.84925   129.84874   164.99953
   146  N   5.0   -0.14    3.47    2.06   319.81344   124.22114   173.04221
   147  C   4.0    0.05    4.38    4.35   322.51008   124.28539   173.72818
   148  C   4.0    0.09    3.21    3.04   324.05399   126.08063   172.07089
   149  O   6.0   -0.27    1.12    1.80   323.28676   126.66833   169.91282
   150  C   4.0   -0.05    4.40    4.39   323.54187   121.58119   173.55621
   151  C   4.0   -0.05    4.34    4.27   322.45339   119.77650   175.43460
   152  C   4.0   -0.06    4.33    4.25   322.77464   117.04396   174.59556
   153  C   4.0   -0.04    4.30    4.21   320.86980   115.35643   175.83144
   154  N   5.0   -0.17    4.13    3.24   321.36491   112.66357   175.22673
   155  H   1.0    0.09    1.13    1.45   319.28432   122.77361   172.52631
   156  H   1.0    0.07    1.13    1.45   322.66315   124.93545   175.43460
   157  H   1.0    0.05    1.10    1.44   323.22251   120.93679   171.87058
   158  H   1.0    0.05    1.10    1.44   325.36168   121.63221   173.77542
   159  H   1.0    0.05    1.09    1.44   323.26786   120.01838   177.05787
   160  H   1.0    0.06    1.10    1.44   320.67138   120.13933   175.67081
   161  H   1.0    0.04    1.10    1.44   322.60079   116.93624   172.77386
   162  H   1.0    0.04    1.09    1.44   324.46595   116.46948   175.00941
   163  H   1.0    0.05    1.09    1.44   320.91704   115.60021   177.64747
   164  H   1.0    0.05    1.09    1.44   319.18605   115.81374   175.27208
   165  H   1.0    0.07    1.09    1.44   320.21217   111.69792   175.97884
   166  H   1.0    0.06    1.09    1.44   321.28365   112.43869   173.56188
   167  H   1.0    0.06    1.09    1.44   322.89747   112.23838   175.77475
   168  N   5.0   -0.23    3.24    1.97   320.65815   120.64388   185.26684
   169  C   4.0    0.04    4.31    4.21   319.27109   121.00671   182.89713
   170  C   4.0    0.15    3.41    3.08   320.32934   123.07407   181.15669
   171  O   6.0   -0.30    1.25    1.80   319.60368   123.28950   178.97217
   172  C   4.0   -0.06    4.20    4.01   316.46485   121.48292   183.47916
   173  H   1.0    0.12    1.08    1.44   319.76242   120.89333   186.60099
   174  H   1.0    0.06    1.13    1.45   319.48085   119.45336   181.94659
   175  H   1.0    0.07    1.05    1.44   315.54644   121.72292   181.91069
   176  H   1.0    0.07    1.05    1.44   315.77321   120.04295   184.37678
   177  H   1.0    0.06    1.05    1.44   316.30233   122.98525   184.51851
   178  N   5.0   -0.16    3.49    2.07   321.97151   124.69168   182.18281
   179  C   4.0    0.04    4.42    4.42   323.10345   126.68156   180.67670
   180  C   4.0    0.09    3.20    3.04   325.90970   126.37542   180.04742
   181  O   6.0   -0.29    1.13    1.80   326.76763   127.19934   178.10667
   182  C   4.0   -0.02    4.33    4.25   322.51764   129.31584   181.72739
   183  C   4.0    0.25    3.15    3.03   323.25085   129.59741   184.50906
   184  O   6.0   -0.27    1.16    1.80   321.77876   130.80494   185.92258
   185  O   6.0   -0.28    1.18    1.80   325.32766   128.69034   185.23094
   186  H   1.0    0.11    1.13    1.45   322.44394   124.65955   183.73805
   187  H   1.0    0.07    1.17    1.46   322.27386   126.50014   179.05153
   188  H   1.0    0.07    1.09    1.44   323.41148   130.57250   180.73717
   189  H   1.0    0.07    1.09    1.44   320.72618   129.65788   181.53652
   190  N   5.0   -0.22    3.23    1.96   314.25765   116.03295   192.87299
   191  C   4.0    0.02    4.29    4.18   312.83468   115.89500   190.48249
   192  C   4.0    0.15    3.43    3.09   314.80756   115.54918   188.36410
   193  O   6.0   -0.30    1.24    1.80   316.72185   116.87199   188.26017
   194  C   4.0   -0.08    4.19    3.98   311.33235   118.37054   190.06108
   195  H   1.0    0.10    1.08    1.44   314.15371   117.47103   193.62321
   196  H   1.0    0.04    1.11    1.45   311.63282   114.50983   190.50516
   197  H   1.0    0.05    1.05    1.44   310.40260   118.26094   188.48505
   198  H   1.0    0.04    1.05    1.44   310.15694   118.61621   191.44625
   199  H   1.0    0.06    1.05    1.44   312.49453   119.78595   189.98738
   200  N   5.0   -0.17    3.47    2.06   314.27276   113.82764   186.62933
   201  C   4.0    0.03    4.46    4.48   315.96029   113.32875   184.49583
   202  C   4.0    0.15    3.43    3.09   314.90960   114.10543   181.94281
   203  O   6.0   -0.30    1.23    1.80   316.10769   115.53973   180.57465
   204  C   4.0   -0.09    4.25    4.10   316.71996   110.59621   184.45426
   205  H   1.0    0.09    1.13    1.45   312.92917   112.91302   186.64634
   206  H   1.0    0.07    1.15    1.45   317.42861   114.39078   184.77173
   207  H   1.0    0.04    1.06    1.44   317.83679   110.29386   183.03319
   208  H   1.0    0.05    1.06    1.44   317.58923   110.17858   186.01328
   209  H   1.0    0.05    1.06    1.44   315.22519   109.54741   184.28985
   210  N   5.0   -0.15    3.51    2.08   312.74398   113.02829   181.24740
   211  C   4.0    0.04    4.52    4.56   311.56290   113.58198   178.79075
   212  C   4.0    0.16    3.44    3.09   309.13082   115.10699   179.02130
   213  O   6.0   -0.26    1.23    1.80   308.22942   115.46792   181.14346
   214  C   4.0    0.05    4.33    4.26   310.97897   111.09132   177.36968
   215  O   6.0   -0.27    2.16    1.85   309.92261   109.28285   179.08177
   216  C   4.0   -0.09    4.18    3.96   313.35625   109.96126   176.19049
   217  H   1.0    0.11    1.13    1.45   311.92005   111.97004   182.16580
   218  H   1.0    0.06    1.14    1.45   312.77043   114.59676   177.85912
   219  H   1.0    0.05    1.11    1.45   309.78655   111.48438   176.03364
   220  H   1.0    0.14    1.08    1.44   309.60703   107.93737   178.30131
   221  H   1.0    0.04    1.05    1.44   312.92728   108.40791   175.31744
   222  H   1.0    0.04    1.05    1.44   314.07434   111.15368   174.99807
   223  H   1.0    0.05    1.06    1.44   314.58079   109.60222   177.50574
   224  N   5.0   -0.14    3.53    2.10   308.17840   116.00461   176.85756
   225  C   4.0    0.05    4.56    4.61   305.86537   117.47859   176.73662
   226  C   4.0    0.17    3.52    3.12   303.70920   115.70981   177.40558
   227  O   6.0   -0.28    1.27    1.80   303.70542   113.53662   176.74985
   228  C   4.0    0.05    4.34    4.27   305.42318   118.50282   174.06266
   229  O   6.0   -0.26    2.16    1.85   307.82502   119.20769   172.99874
   230  C   4.0   -0.08    4.19    3.97   303.74321   120.86120   174.15714
   231  H   1.0    0.10    1.14    1.45   308.87760   115.76461   175.41003
   232  H   1.0    0.07    1.13    1.45   305.97498   118.90345   177.88557
   233  H   1.0    0.05    1.11    1.44   304.60493   117.21214   173.04976
   234  H   1.0    0.14    1.08    1.44   307.60959   119.77083   171.53042
   235  H   1.0    0.05    1.05    1.44   303.47676   121.49048   172.45639
   236  H   1.0    0.05    1.05    1.44   302.12750   120.43223   174.90925
   237  H   1.0    0.06    1.06    1.44   304.56146   122.15566   175.16626
   238  N   5.0   -0.15    3.54    2.11   301.92907   116.71703   178.83799
   239  C   4.0    0.04    4.57    4.63   299.72187   115.32242   179.61845
   240  C   4.0    0.15    3.50    3.11   297.95498   115.13722   177.35267
   241  O   6.0   -0.30    1.24    1.80   297.24255   117.06474   176.19805
   242  C   4.0    0.05    4.37    4.32   298.38962   116.61310   181.81431
   243  O   6.0   -0.27    2.18    1.85   300.10927   117.04774   183.86089
   244  C   4.0   -0.09    4.25    4.09   296.29958   114.94447   182.81209
   245  H   1.0    0.12    1.15    1.45   301.97443   118.24582   179.38602
   246  H   1.0    0.06    1.13    1.45   300.21887   113.65379   180.19482
   247  H   1.0    0.05    1.11    1.45   297.72254   118.20236   181.19259
   248  H   1.0    0.16    1.10    1.44   299.70676   116.13311   185.09488
   249  H   1.0    0.04    1.06    1.44   295.46243   115.78351   184.21049
   250  H   1.0    0.05    1.06    1.44   295.08449   114.62133   181.47794
   251  H   1.0    0.05    1.06    1.44   297.00823   113.35521   183.39034
   252  N   5.0   -0.15    3.49    2.07   297.17452   112.84499   176.69694
   253  C   4.0    0.03    4.49    4.53   295.44353   112.52562   174.53698
   254  C   4.0    0.16    3.47    3.10   292.80170   113.00561   175.47239
   255  O   6.0   -0.30    1.25    1.80   292.12707   112.29319   177.60589
   256  C   4.0   -0.05    4.33    4.25   295.70432   109.86111   173.33889
   257  C   4.0   -0.03    4.25    4.10   298.37261   109.28096   172.37135
   258  C   4.0    0.25    3.11    3.03   298.59182   106.60511   171.22240
   259  O   6.0   -0.28    1.16    1.80   299.25511   104.80231   172.62080
   260  O   6.0   -0.28    1.17    1.80   298.09671   106.35945   168.93394
   261  H   1.0    0.09    1.12    1.45   297.60349   111.46926   177.44905
   262  H   1.0    0.05    1.13    1.45   295.86116   113.71804   173.20850
   263  H   1.0    0.06    1.09    1.44   295.23189   108.59877   174.58233
   264  H   1.0    0.06    1.09    1.44   294.51946   109.71371   171.94805
   265  H   1.0    0.06    1.09    1.44   298.84126   110.52251   171.10713
   266  H   1.0    0.06    1.09    1.44   299.56692   109.44537   173.75274
   267  N   5.0   -0.16    3.49    2.07   291.29370   114.22260   173.85857
   268  C   4.0    0.04    4.48    4.50   288.68776   114.88211   174.43493
   269  C   4.0    0.14    3.46    3.10   288.29092   116.37688   176.88024
   270  O   6.0   -0.29    1.25    1.80   286.62229   115.75705   178.44682
   271  C   4.0   -0.03    4.39    4.37   286.94922   112.52562   174.41982
   272  C   4.0    0.15    3.31    3.05   286.69221   111.39557   171.79310
   273  O   6.0   -0.29    1.22    1.80   288.58950   110.99494   170.44005
   274  N   5.0   -0.25    3.24    1.96   284.40753   110.92691   170.98996
   275  H   1.0    0.10    1.13    1.45   291.77180   114.69125   172.37702
   276  H   1.0    0.04    1.14    1.45   288.21911   116.01972   173.07622
   277  H   1.0    0.06    1.09    1.44   287.62385   111.26328   175.56310
   278  H   1.0    0.05    1.10    1.44   285.29004   112.98671   175.04909
   279  H   1.0    0.12    1.09    1.44   284.17888   110.32787   169.49708
   280  H   1.0    0.10    1.10    1.44   283.13197   111.21793   171.95372
   281  N   5.0   -0.09    3.65    2.21   289.68365   118.52739   177.21094
   282  C   4.0    0.03    4.49    4.53   289.49090   120.08830   179.51452
   283  C   4.0    0.09    3.23    3.04   286.75268   120.63255   180.31954
   284  O   6.0   -0.29    1.12    1.80   286.00624   119.82185   182.38312
   285  C   4.0   -0.06    4.48    4.51   290.91575   122.51093   178.72461
   286  C   4.0   -0.06    4.42    4.42   290.86473   122.53928   175.92971
   287  C   4.0   -0.02    4.50    4.53   291.23511   119.79162   175.30799
   288  H   1.0    0.06    1.12    1.45   290.18632   119.26249   180.99417
   289  H   1.0    0.04    1.09    1.44   290.10695   124.00571   179.41247
   290  H   1.0    0.04    1.09    1.44   292.63729   122.49582   179.35200
   291  H   1.0    0.04    1.09    1.44   289.27736   123.18179   175.27775
   292  H   1.0    0.04    1.09    1.44   292.19510   123.58808   175.22862
   293  H   1.0    0.04    1.09    1.44   290.68142   119.39666   173.60534
   294  H   1.0    0.06    1.08    1.44   292.99634   119.29840   175.42704
   295  N   5.0   -0.22    3.23    1.96   282.88253   114.92557   183.23728
   296  C   4.0    0.03    4.29    4.17   283.62897   114.37755   185.84699
   297  C   4.0    0.08    3.18    3.03   282.78237   116.44491   187.72916
   298  O   6.0   -0.29    1.11    1.80   281.73357   115.85343   189.70392
   299  C   4.0   -0.05    4.39    4.36   286.48245   113.90701   186.01517
   300  C   4.0   -0.06    4.38    4.35   287.39330   111.96815   184.16702
   301  C   4.0   -0.06    4.34    4.27   290.06915   111.17258   184.69615
   302  C   4.0   -0.03    4.31    4.21   290.91764   109.35844   182.68737
   303  N   5.0   -0.16    4.13    3.24   293.71632   109.49450   182.30186
   304  H   1.0    0.12    1.09    1.44   284.10329   114.87077   182.16580
   305  H   1.0    0.05    1.13    1.45   282.75213   112.84687   186.34210
   306  H   1.0    0.06    1.10    1.44   287.37063   115.48304   185.72038
   307  H   1.0    0.04    1.10    1.44   286.90386   113.36277   187.71404
   308  H   1.0    0.04    1.10    1.44   286.29726   110.50172   184.23127
   309  H   1.0    0.06    1.10    1.44   287.28370   112.64656   182.46816
   310  H   1.0    0.04    1.10    1.44   291.16897   112.63900   184.72827
   311  H   1.0    0.04    1.09    1.44   290.17876   110.38267   186.34777
   312  H   1.0    0.04    1.08    1.44   290.44332   107.65202   183.15791
   313  H   1.0    0.06    1.09    1.44   290.05971   109.73828   181.11322
   314  H   1.0    0.07    1.08    1.44   294.31537   107.95437   181.99195
   315  H   1.0    0.09    1.09    1.44   294.05459   110.49984   180.99606
   316  H   1.0    0.07    1.09    1.44   294.44387   110.11055   183.68703
   317  H   1.0    0.09    1.07    1.44   307.73936   141.90828   175.10893
   318  H   1.0    0.06    1.04    1.44   310.79759   142.15320   183.41759
   319  H   1.0    0.10    1.08    1.44   303.42594   137.40405   185.01304
   320  H   1.0    0.07    1.04    1.43   307.26112   138.10157   190.10234
   321  H   1.0    0.09    1.08    1.44   301.75572   115.43856   196.86269
   322  H   1.0    0.07    1.04    1.43   325.68436   126.79027   172.71067
   323  H   1.0    0.10    1.08    1.44   321.24128   119.04812   185.34474
   324  H   1.0    0.06    1.05    1.44   327.05669   125.48187   181.25449
   325  H   1.0    0.09    1.07    1.44   313.66680   114.86029   193.95387
   326  H   1.0    0.05    1.04    1.43   285.61322   121.62389   179.18379
   327  H   1.0    0.10    1.08    1.44   281.72362   113.78980   182.72784
   328  H   1.0    0.06    1.04    1.43   283.09152   118.26673   187.33359

  Z AO/shell   Hii/eV     exponent
  1     Wed Apr 25 08:07:45 CEST 2018   EN: 2.200 GM2: 0.406  GM3: 0.0800  RAES: 1.40
     1s    -10.707211    1.230000
  6     Wed Apr 25 08:07:45 CEST 2018   EN: 2.550 GM2: 0.538  GM3: 0.1500  RAES: 3.00
     2s    -13.970922    2.096432
     2p    -10.063292    1.800000
  7     Wed Apr 25 08:07:45 CEST 2018   EN: 3.040 GM2: 0.461  GM3:-0.0640  RAES: 1.90
     2s    -16.686243    2.339881
     2p    -12.523956    2.014332
  8     Wed Apr 25 08:07:45 CEST 2018   EN: 3.440 GM2: 0.452  GM3:-0.0517  RAES: 1.80
     2s    -20.229985    2.439742
     2p    -15.503117    2.137023
 no old-style atom pair restraining (fixing) potential

molecular fragmentation (1/2 indicates fragments):
111111111111111111111111111111122222222222222222222222222222222222222222
222222222222222222222222222222222222222222222222222222222222222222222222
222222222222222222222222222222222222222222222222222222222222222222222222
222222222222222222222222222222222222222222222222222222222222222222222222
2222222222222222222222222222112222222222
# atoms in fragment 1/2:    33   295
 fragment masses (1/2) :      229.26     2050.29
CMA distance (Bohr)    :  18.432
constraining FC (au)   :  0.0500
           ------------------------------------------------- 
          |        Self-Consistent Charge Iterations        |
           ------------------------------------------------- 

 Ncao       : 805
 Nao        : 805
 Nshell     : 487
 Nel        : 906
 T(el)      :   500.0
 intcut     :    35.0
 scfconv/Eh :  0.100E-06
   qconv/e  :  0.100E-04
 intneglect :  0.100E-08
 broydamp   :      0.400
 iter      E             dE          RMSdq      gap      omega  full diag
   1   -525.1294750 -0.525129E+03  0.483E+00    3.28       0.0  T
   2   -526.5968647 -0.146739E+01  0.222E+00    1.78       1.0  T
   3   -526.6843890 -0.875242E-01  0.131E+00    2.00       1.0  T
   4   -526.7620757 -0.776867E-01  0.272E-01    1.44       1.0  T
   5   -526.7688090 -0.673336E-02  0.129E-01    1.61       1.0  T
   6   -526.7696787 -0.869664E-03  0.582E-02    1.55       1.0  T
   7   -526.7698693 -0.190593E-03  0.209E-02    1.50       1.0  T
   8   -526.7698906 -0.213392E-04  0.971E-03    1.48       1.0  T
   9   -526.7698972 -0.657053E-05  0.370E-03    1.46       1.5  T
  10   -526.7698978 -0.616954E-06  0.151E-03    1.46       3.7  T
  11   -526.7698980 -0.198174E-06  0.575E-04    1.46       9.6  T
  12   -526.7698980 -0.149190E-07  0.247E-04    1.46      22.3  T
  13   -526.7698980 -0.301520E-08  0.108E-04    1.46      51.0  T
  14   -526.7698980 -0.787509E-09  0.436E-05    1.46     126.7  T
  15   -526.7698980 -0.818545E-10  0.169E-05    1.46     327.3  T
speedup  1.00
cpu  time for SCC    4.79 s
wall time for SCC    4.79 s

   *** convergence criteria satisfied after 15 iterations ***

          eigenvalues
 #    :         441        442        443        444        445        446        447        448
 occ. :        2.000      2.000      2.000      2.000      2.000      2.000      2.000      2.000
 eps  :       -10.487    -10.390    -10.331    -10.242    -10.221    -10.182    -10.010    -10.002
 #    :         449        450        451        452        453        454        455        456
 occ. :        2.000      2.000      2.000      2.000      2.000      0.000      0.000      0.000
 eps  :        -9.968     -9.966     -9.794     -9.678     -9.538     -8.079     -7.934     -7.931
 #    :         457        458        459        460        461        462        463        464
 occ. :        0.000      0.000      0.000      0.000      0.000      0.000      0.000      0.000
 eps  :        -7.772     -7.747     -7.456     -6.765     -6.600     -6.533     -6.519     -6.355


   #   Z            q   n(s)   n(p)   n(d)      C6AA      α(0)
   1   7 N     -0.435  1.292  4.143  0.000    31.377     8.319
   2   6 C      0.024  1.036  2.941  0.000    20.188     6.399
   3   6 C      0.263  1.054  2.683  0.000    22.565     7.779
   4   8 O     -0.509  1.749  4.761  0.000    23.989     6.567
   5   6 C     -0.089  1.009  3.081  0.000    22.184     6.703
   6   6 C     -0.025  1.036  2.988  0.000    20.976     6.514
   7   6 C     -0.150  0.978  3.172  0.000    23.436     6.899
   8   6 C     -0.155  0.977  3.177  0.000    23.522     6.910
   9   1 H      0.186  0.814  0.000  0.000     1.182     1.703
  10   1 H      0.074  0.926  0.000  0.000     2.038     2.232
  11   1 H      0.035  0.965  0.000  0.000     2.512     2.478
  12   1 H      0.046  0.954  0.000  0.000     2.367     2.405
  13   1 H      0.050  0.950  0.000  0.000     2.320     2.382
  14   1 H      0.069  0.931  0.000  0.000     2.096     2.264
  15   1 H      0.038  0.962  0.000  0.000     2.478     2.462
  16   1 H      0.051  0.949  0.000  0.000     2.304     2.374
  17   1 H      0.067  0.933  0.000  0.000     2.121     2.277
  18   1 H      0.060  0.940  0.000  0.000     2.202     2.320
  19   1 H      0.054  0.946  0.000  0.000     2.272     2.357
  20   7 N     -0.184  1.207  3.977  0.000    24.988     7.424
  21   6 C      0.035  1.030  2.935  0.000    19.989     6.366
  22   6 C      0.195  1.085  2.720  0.000    23.843     7.997
  23   8 O     -0.360  1.750  4.610  0.000    20.907     6.130
  24   6 C     -0.119  1.026  3.093  0.000    22.767     6.791
  25   6 C      0.374  1.016  2.610  0.000    20.659     7.438
  26   8 O     -0.617  1.758  4.859  0.000    26.539     6.907
  27   8 O     -0.650  1.779  4.871  0.000    27.372     7.014
  28   1 H      0.212  0.788  0.000  0.000     1.046     1.602
  29   1 H      0.081  0.919  0.000  0.000     1.968     2.194
  30   1 H      0.063  0.937  0.000  0.000     2.168     2.303
  31   1 H      0.060  0.940  0.000  0.000     2.198     2.318
  32   7 N     -0.417  1.283  4.134  0.000    30.850     8.249
  33   6 C      0.033  1.029  2.938  0.000    20.035     6.375
  34   6 C      0.194  1.099  2.707  0.000    23.855     7.999
  35   8 O     -0.385  1.760  4.625  0.000    21.394     6.201
  36   6 C     -0.076  1.011  3.065  0.000    21.940     6.666
  37   6 C     -0.121  1.012  3.110  0.000    22.809     6.797
  38   6 C      0.283  1.038  2.679  0.000    22.206     7.716
  39   8 O     -0.511  1.744  4.767  0.000    24.035     6.573
  40   7 N     -0.287  1.197  4.090  0.000    27.401     7.774
  41   1 H      0.189  0.811  0.000  0.000     1.164     1.690
  42   1 H      0.075  0.925  0.000  0.000     2.026     2.226
  43   1 H      0.072  0.928  0.000  0.000     2.066     2.248
  44   1 H      0.063  0.937  0.000  0.000     2.168     2.303
  45   1 H      0.069  0.931  0.000  0.000     2.093     2.262
  46   1 H      0.068  0.932  0.000  0.000     2.106     2.269
  47   1 H      0.237  0.763  0.000  0.000     0.936     1.516
  48   1 H      0.246  0.754  0.000  0.000     0.899     1.485
  49   7 N     -0.419  1.286  4.133  0.000    30.895     8.255
  50   6 C      0.003  1.039  2.958  0.000    20.531     6.451
  51   6 C      0.256  1.048  2.696  0.000    22.693     7.801
  52   8 O     -0.507  1.757  4.750  0.000    23.940     6.560
  53   6 C      0.099  1.022  2.879  0.000    19.021     6.223
  54   8 O     -0.506  1.688  4.818  0.000    23.029     6.478
  55   6 C     -0.160  0.978  3.182  0.000    23.639     6.927
  56   1 H      0.194  0.806  0.000  0.000     1.139     1.672
  57   1 H      0.067  0.933  0.000  0.000     2.115     2.274
  58   1 H      0.071  0.929  0.000  0.000     2.072     2.251
  59   1 H      0.332  0.668  0.000  0.000     0.631     1.248
  60   1 H      0.071  0.929  0.000  0.000     2.078     2.254
  61   1 H      0.051  0.949  0.000  0.000     2.306     2.374
  62   1 H      0.062  0.938  0.000  0.000     2.178     2.308
  63   7 N     -0.171  1.210  3.962  0.000    24.709     7.383
  64   6 C     -0.001  1.044  2.957  0.000    20.595     6.461
  65   6 C      0.276  1.039  2.686  0.000    22.339     7.740
  66   8 O     -0.481  1.736  4.744  0.000    23.359     6.480
  67   6 C     -0.108  1.019  3.089  0.000    22.551     6.758
  68   6 C     -0.026  1.029  2.997  0.000    20.992     6.516
  69   6 C     -0.162  0.978  3.184  0.000    23.674     6.933
  70   6 C     -0.155  0.979  3.177  0.000    23.538     6.913
  71   1 H      0.228  0.772  0.000  0.000     0.974     1.546
  72   1 H      0.095  0.905  0.000  0.000     1.830     2.115
  73   1 H      0.084  0.916  0.000  0.000     1.933     2.174
  74   1 H      0.073  0.927  0.000  0.000     2.052     2.240
  75   1 H      0.040  0.960  0.000  0.000     2.447     2.446
  76   1 H      0.059  0.941  0.000  0.000     2.206     2.322
  77   1 H      0.051  0.949  0.000  0.000     2.312     2.378
  78   1 H      0.070  0.930  0.000  0.000     2.089     2.260
  79   1 H      0.058  0.942  0.000  0.000     2.224     2.332
  80   1 H      0.065  0.935  0.000  0.000     2.146     2.291
  81   1 H      0.050  0.950  0.000  0.000     2.314     2.379
  82   7 N     -0.188  1.213  3.975  0.000    25.079     7.438
  83   6 C      0.014  1.034  2.952  0.000    20.344     6.421
  84   6 C      0.279  1.035  2.686  0.000    22.286     7.731
  85   8 O     -0.482  1.728  4.754  0.000    23.391     6.484
  86   6 C     -0.119  1.014  3.105  0.000    22.754     6.788
  87   6 C      0.280  1.039  2.681  0.000    22.259     7.725
  88   8 O     -0.515  1.756  4.758  0.000    24.110     6.583
  89   7 N     -0.277  1.192  4.085  0.000    27.156     7.740
  90   1 H      0.232  0.768  0.000  0.000     0.958     1.533
  91   1 H      0.103  0.897  0.000  0.000     1.757     2.073
  92   1 H      0.082  0.918  0.000  0.000     1.962     2.190
  93   1 H      0.101  0.899  0.000  0.000     1.773     2.082
  94   1 H      0.224  0.776  0.000  0.000     0.989     1.558
  95   1 H      0.231  0.769  0.000  0.000     0.959     1.534
  96   7 N     -0.177  1.205  3.972  0.000    24.822     7.399
  97   6 C     -0.001  1.048  2.952  0.000    20.595     6.461
  98   6 C      0.269  1.047  2.684  0.000    22.456     7.760
  99   8 O     -0.485  1.739  4.746  0.000    23.456     6.493
 100   6 C     -0.032  1.044  2.987  0.000    21.101     6.533
 101   6 C     -0.161  0.981  3.180  0.000    23.651     6.930
 102   6 C     -0.152  0.975  3.176  0.000    23.462     6.902
 103   1 H      0.205  0.795  0.000  0.000     1.078     1.626
 104   1 H      0.104  0.896  0.000  0.000     1.746     2.066
 105   1 H      0.079  0.921  0.000  0.000     1.994     2.208
 106   1 H      0.080  0.920  0.000  0.000     1.981     2.201
 107   1 H      0.067  0.933  0.000  0.000     2.119     2.276
 108   1 H      0.057  0.943  0.000  0.000     2.229     2.335
 109   1 H      0.075  0.925  0.000  0.000     2.032     2.229
 110   1 H      0.054  0.946  0.000  0.000     2.270     2.356
 111   1 H      0.039  0.961  0.000  0.000     2.466     2.456
 112   7 N     -0.192  1.208  3.984  0.000    25.163     7.450
 113   6 C      0.024  1.030  2.946  0.000    20.170     6.394
 114   6 C      0.265  1.044  2.691  0.000    22.536     7.774
 115   8 O     -0.467  1.745  4.722  0.000    23.057     6.438
 116   6 C     -0.075  1.003  3.072  0.000    21.910     6.661
 117   6 C     -0.109  1.006  3.102  0.000    22.559     6.760
 118   6 C      0.286  1.036  2.677  0.000    22.148     7.706
 119   8 O     -0.517  1.744  4.774  0.000    24.172     6.592
 120   7 N     -0.280  1.193  4.086  0.000    27.227     7.750
 121   1 H      0.229  0.771  0.000  0.000     0.970     1.543
 122   1 H      0.074  0.926  0.000  0.000     2.045     2.236
 123   1 H      0.071  0.929  0.000  0.000     2.072     2.251
 124   1 H      0.054  0.946  0.000  0.000     2.276     2.359
 125   1 H      0.060  0.940  0.000  0.000     2.197     2.318
 126   1 H      0.088  0.912  0.000  0.000     1.893     2.152
 127   1 H      0.225  0.775  0.000  0.000     0.988     1.557
 128   1 H      0.226  0.774  0.000  0.000     0.982     1.552
 129   7 N     -0.183  1.206  3.977  0.000    24.955     7.419
 130   6 C      0.006  1.042  2.952  0.000    20.477     6.443
 131   6 C      0.274  1.041  2.684  0.000    22.360     7.744
 132   8 O     -0.519  1.767  4.751  0.000    24.205     6.596
 133   6 C     -0.081  1.001  3.080  0.000    22.034     6.680
 134   6 C     -0.117  1.006  3.112  0.000    22.730     6.785
 135   6 C      0.282  1.039  2.678  0.000    22.218     7.718
 136   8 O     -0.519  1.768  4.751  0.000    24.209     6.597
 137   7 N     -0.301  1.196  4.105  0.000    27.743     7.823
 138   1 H      0.201  0.799  0.000  0.000     1.101     1.643
 139   1 H      0.104  0.896  0.000  0.000     1.751     2.069
 140   1 H      0.063  0.937  0.000  0.000     2.168     2.302
 141   1 H      0.088  0.912  0.000  0.000     1.897     2.153
 142   1 H      0.105  0.895  0.000  0.000     1.736     2.060
 143   1 H      0.076  0.924  0.000  0.000     2.016     2.220
 144   1 H      0.235  0.765  0.000  0.000     0.942     1.520
 145   1 H      0.241  0.759  0.000  0.000     0.917     1.500
 146   7 N     -0.167  1.208  3.959  0.000    24.618     7.369
 147   6 C      0.020  1.039  2.941  0.000    20.238     6.406
 148   6 C      0.197  1.092  2.711  0.000    23.795     7.989
 149   8 O     -0.378  1.768  4.610  0.000    21.238     6.179
 150   6 C     -0.102  1.010  3.093  0.000    22.436     6.741
 151   6 C     -0.101  1.002  3.099  0.000    22.411     6.737
 152   6 C     -0.124  1.009  3.115  0.000    22.860     6.804
 153   6 C     -0.073  1.016  3.057  0.000    21.973     6.686
 154   7 N     -0.137  1.143  3.994  0.000    23.961     7.270
 155   1 H      0.244  0.756  0.000  0.000     0.908     1.492
 156   1 H      0.091  0.909  0.000  0.000     1.866     2.136
 157   1 H      0.101  0.899  0.000  0.000     1.779     2.086
 158   1 H      0.089  0.911  0.000  0.000     1.887     2.148
 159   1 H      0.067  0.933  0.000  0.000     2.115     2.274
 160   1 H      0.080  0.920  0.000  0.000     1.982     2.201
 161   1 H      0.101  0.899  0.000  0.000     1.773     2.082
 162   1 H      0.103  0.897  0.000  0.000     1.759     2.074
 163   1 H      0.126  0.874  0.000  0.000     1.568     1.958
 164   1 H      0.129  0.871  0.000  0.000     1.545     1.944
 165   1 H      0.287  0.713  0.000  0.000     0.754     1.360
 166   1 H      0.299  0.701  0.000  0.000     0.716     1.326
 167   1 H      0.297  0.703  0.000  0.000     0.721     1.330
 168   7 N     -0.431  1.287  4.143  0.000    31.237     8.301
 169   6 C      0.022  1.036  2.942  0.000    20.218     6.404
 170   6 C      0.263  1.053  2.683  0.000    22.558     7.777
 171   8 O     -0.489  1.738  4.751  0.000    23.552     6.507
 172   6 C     -0.137  0.976  3.162  0.000    23.182     6.862
 173   1 H      0.180  0.820  0.000  0.000     1.213     1.725
 174   1 H      0.091  0.909  0.000  0.000     1.872     2.139
 175   1 H      0.056  0.944  0.000  0.000     2.250     2.346
 176   1 H      0.071  0.929  0.000  0.000     2.075     2.252
 177   1 H      0.045  0.955  0.000  0.000     2.380     2.412
 178   7 N     -0.191  1.209  3.982  0.000    25.132     7.446
 179   6 C      0.026  1.032  2.942  0.000    20.142     6.390
 180   6 C      0.205  1.082  2.713  0.000    23.637     7.962
 181   8 O     -0.363  1.736  4.627  0.000    20.953     6.137
 182   6 C     -0.100  1.018  3.083  0.000    22.404     6.737
 183   6 C      0.367  1.024  2.610  0.000    20.782     7.460
 184   8 O     -0.650  1.779  4.870  0.000    27.373     7.015
 185   8 O     -0.640  1.769  4.871  0.000    27.116     6.982
 186   1 H      0.206  0.794  0.000  0.000     1.078     1.626
 187   1 H      0.102  0.898  0.000  0.000     1.769     2.080
 188   1 H      0.051  0.949  0.000  0.000     2.310     2.376
 189   1 H      0.046  0.954  0.000  0.000     2.373     2.409
 190   7 N     -0.419  1.293  4.126  0.000    30.899     8.256
 191   6 C      0.020  1.040  2.940  0.000    20.248     6.409
 192   6 C      0.265  1.050  2.685  0.000    22.537     7.774
 193   8 O     -0.495  1.756  4.739  0.000    23.670     6.523
 194   6 C     -0.150  0.979  3.171  0.000    23.437     6.900
 195   1 H      0.185  0.815  0.000  0.000     1.184     1.704
 196   1 H      0.055  0.945  0.000  0.000     2.253     2.347
 197   1 H      0.052  0.948  0.000  0.000     2.295     2.369
 198   1 H      0.067  0.933  0.000  0.000     2.117     2.275
 199   1 H      0.054  0.946  0.000  0.000     2.267     2.354
 200   7 N     -0.199  1.213  3.985  0.000    25.313     7.472
 201   6 C      0.005  1.034  2.961  0.000    20.501     6.446
 202   6 C      0.260  1.043  2.697  0.000    22.616     7.788
 203   8 O     -0.474  1.742  4.733  0.000    23.225     6.461
 204   6 C     -0.171  0.981  3.189  0.000    23.846     6.958
 205   1 H      0.213  0.787  0.000  0.000     1.041     1.598
 206   1 H      0.103  0.897  0.000  0.000     1.759     2.074
 207   1 H      0.095  0.905  0.000  0.000     1.829     2.115
 208   1 H      0.088  0.912  0.000  0.000     1.902     2.156
 209   1 H      0.080  0.920  0.000  0.000     1.976     2.198
 210   7 N     -0.161  1.198  3.963  0.000    24.474     7.348
 211   6 C     -0.006  1.046  2.960  0.000    20.695     6.477
 212   6 C      0.269  1.043  2.688  0.000    22.452     7.759
 213   8 O     -0.499  1.753  4.746  0.000    23.758     6.535
 214   6 C      0.100  1.028  2.872  0.000    19.021     6.225
 215   8 O     -0.504  1.685  4.819  0.000    22.986     6.472
 216   6 C     -0.181  0.985  3.196  0.000    24.077     6.993
 217   1 H      0.222  0.778  0.000  0.000     1.000     1.567
 218   1 H      0.108  0.892  0.000  0.000     1.709     2.044
 219   1 H      0.048  0.952  0.000  0.000     2.340     2.392
 220   1 H      0.346  0.654  0.000  0.000     0.596     1.213
 221   1 H      0.082  0.918  0.000  0.000     1.953     2.185
 222   1 H      0.081  0.919  0.000  0.000     1.963     2.191
 223   1 H      0.087  0.913  0.000  0.000     1.907     2.159
 224   7 N     -0.181  1.203  3.978  0.000    24.913     7.413
 225   6 C      0.008  1.038  2.954  0.000    20.439     6.436
 226   6 C      0.278  1.032  2.689  0.000    22.290     7.732
 227   8 O     -0.482  1.728  4.754  0.000    23.394     6.485
 228   6 C      0.102  1.027  2.871  0.000    18.981     6.218
 229   8 O     -0.498  1.687  4.811  0.000    22.846     6.452
 230   6 C     -0.168  0.983  3.185  0.000    23.798     6.953
 231   1 H      0.228  0.772  0.000  0.000     0.974     1.546
 232   1 H      0.084  0.916  0.000  0.000     1.937     2.176
 233   1 H      0.052  0.948  0.000  0.000     2.295     2.369
 234   1 H      0.344  0.656  0.000  0.000     0.602     1.219
 235   1 H      0.083  0.917  0.000  0.000     1.949     2.183
 236   1 H      0.070  0.930  0.000  0.000     2.081     2.256
 237   1 H      0.064  0.936  0.000  0.000     2.147     2.291
 238   7 N     -0.175  1.204  3.971  0.000    24.798     7.396
 239   6 C      0.001  1.036  2.962  0.000    20.550     6.453
 240   6 C      0.258  1.048  2.694  0.000    22.659     7.795
 241   8 O     -0.492  1.753  4.739  0.000    23.615     6.515
 242   6 C      0.099  1.022  2.879  0.000    19.030     6.225
 243   8 O     -0.497  1.691  4.806  0.000    22.827     6.450
 244   6 C     -0.188  0.984  3.204  0.000    24.226     7.014
 245   1 H      0.230  0.770  0.000  0.000     0.967     1.540
 246   1 H      0.090  0.910  0.000  0.000     1.875     2.141
 247   1 H      0.074  0.926  0.000  0.000     2.037     2.231
 248   1 H      0.341  0.659  0.000  0.000     0.609     1.225
 249   1 H      0.100  0.900  0.000  0.000     1.783     2.088
 250   1 H      0.080  0.920  0.000  0.000     1.980     2.200
 251   1 H      0.079  0.921  0.000  0.000     1.988     2.205
 252   7 N     -0.171  1.208  3.964  0.000    24.711     7.383
 253   6 C      0.007  1.043  2.950  0.000    20.464     6.440
 254   6 C      0.262  1.045  2.693  0.000    22.576     7.781
 255   8 O     -0.472  1.724  4.749  0.000    23.184     6.456
 256   6 C     -0.076  1.010  3.065  0.000    21.936     6.667
 257   6 C     -0.118  1.018  3.100  0.000    22.743     6.788
 258   6 C      0.369  1.026  2.605  0.000    20.742     7.453
 259   8 O     -0.658  1.777  4.881  0.000    27.591     7.042
 260   8 O     -0.655  1.779  4.876  0.000    27.515     7.033
 261   1 H      0.223  0.777  0.000  0.000     0.997     1.564
 262   1 H      0.084  0.916  0.000  0.000     1.937     2.176
 263   1 H      0.069  0.931  0.000  0.000     2.098     2.265
 264   1 H      0.063  0.937  0.000  0.000     2.159     2.298
 265   1 H      0.039  0.961  0.000  0.000     2.464     2.455
 266   1 H      0.049  0.951  0.000  0.000     2.326     2.385
 267   7 N     -0.168  1.207  3.961  0.000    24.637     7.372
 268   6 C      0.024  1.036  2.940  0.000    20.174     6.396
 269   6 C      0.250  1.054  2.696  0.000    22.796     7.818
 270   8 O     -0.481  1.759  4.722  0.000    23.368     6.481
 271   6 C     -0.123  1.015  3.108  0.000    22.842     6.802
 272   6 C      0.278  1.037  2.685  0.000    22.294     7.731
 273   8 O     -0.537  1.774  4.763  0.000    24.619     6.652
 274   7 N     -0.287  1.197  4.090  0.000    27.407     7.775
 275   1 H      0.215  0.785  0.000  0.000     1.033     1.592
 276   1 H      0.089  0.911  0.000  0.000     1.888     2.149
 277   1 H      0.112  0.888  0.000  0.000     1.681     2.027
 278   1 H      0.104  0.896  0.000  0.000     1.746     2.066
 279   1 H      0.244  0.756  0.000  0.000     0.908     1.492
 280   1 H      0.248  0.752  0.000  0.000     0.892     1.479
 281   7 N     -0.090  1.245  3.845  0.000    22.987     7.121
 282   6 C      0.008  1.051  2.941  0.000    20.428     6.433
 283   6 C      0.198  1.086  2.716  0.000    23.771     7.984
 284   8 O     -0.346  1.762  4.583  0.000    20.624     6.089
 285   6 C     -0.094  1.009  3.086  0.000    22.252     6.708
 286   6 C     -0.095  1.000  3.094  0.000    22.268     6.712
 287   6 C     -0.031  1.009  3.022  0.000    21.119     6.542
 288   1 H      0.107  0.893  0.000  0.000     1.726     2.054
 289   1 H      0.083  0.917  0.000  0.000     1.948     2.183
 290   1 H      0.087  0.913  0.000  0.000     1.908     2.160
 291   1 H      0.078  0.922  0.000  0.000     2.003     2.213
 292   1 H      0.086  0.914  0.000  0.000     1.915     2.164
 293   1 H      0.073  0.927  0.000  0.000     2.054     2.241
 294   1 H      0.089  0.911  0.000  0.000     1.885     2.147
 295   7 N     -0.414  1.283  4.131  0.000    30.769     8.238
 296   6 C      0.024  1.038  2.938  0.000    20.186     6.399
 297   6 C      0.200  1.096  2.705  0.000    23.745     7.980
 298   8 O     -0.389  1.761  4.627  0.000    21.454     6.210
 299   6 C     -0.095  1.006  3.089  0.000    22.291     6.719
 300   6 C     -0.093  0.999  3.093  0.000    22.249     6.712
 301   6 C     -0.118  1.006  3.111  0.000    22.730     6.785
 302   6 C     -0.073  1.019  3.054  0.000    21.964     6.684
 303   7 N     -0.138  1.143  3.994  0.000    23.972     7.272
 304   1 H      0.194  0.806  0.000  0.000     1.135     1.669
 305   1 H      0.067  0.933  0.000  0.000     2.115     2.274
 306   1 H      0.072  0.928  0.000  0.000     2.065     2.247
 307   1 H      0.067  0.933  0.000  0.000     2.115     2.274
 308   1 H      0.070  0.930  0.000  0.000     2.089     2.260
 309   1 H      0.074  0.926  0.000  0.000     2.042     2.235
 310   1 H      0.089  0.911  0.000  0.000     1.889     2.149
 311   1 H      0.095  0.905  0.000  0.000     1.829     2.115
 312   1 H      0.133  0.867  0.000  0.000     1.513     1.923
 313   1 H      0.131  0.869  0.000  0.000     1.524     1.931
 314   1 H      0.291  0.709  0.000  0.000     0.741     1.348
 315   1 H      0.270  0.730  0.000  0.000     0.810     1.410
 316   1 H      0.283  0.717  0.000  0.000     0.767     1.371
 317   1 H      0.190  0.810  0.000  0.000     1.156     1.684
 318   1 H      0.083  0.917  0.000  0.000     1.945     2.181
 319   1 H      0.193  0.807  0.000  0.000     1.140     1.672
 320   1 H      0.079  0.921  0.000  0.000     1.991     2.207
 321   1 H      0.185  0.815  0.000  0.000     1.186     1.706
 322   1 H      0.082  0.918  0.000  0.000     1.962     2.190
 323   1 H      0.195  0.805  0.000  0.000     1.131     1.666
 324   1 H      0.078  0.922  0.000  0.000     2.002     2.213
 325   1 H      0.187  0.813  0.000  0.000     1.176     1.699
 326   1 H      0.076  0.924  0.000  0.000     2.021     2.223
 327   1 H      0.177  0.823  0.000  0.000     1.234     1.740
 328   1 H      0.071  0.929  0.000  0.000     2.071     2.250

 Mol. C6AA /au·bohr⁶  :     965122.526601
 Mol. C8AA /au·bohr⁸  :   21283748.767397
 Mol. α(0) /au        :       1457.082952

 
molecular dipole:
                 x           y           z       tot (Debye)
 q only:     -326.021    -148.095    -178.759
   full:     -325.489    -147.442    -178.363    1015.115
molecular quadrupole (traceless):
                xx          xy          yy          xz          yz          zz
 q only:   -79212.829  -72277.397   47518.435  -87668.047  -40002.615   31694.395
  q+dip:   -79089.941  -71856.978   47478.316  -87296.106  -39763.906   31611.626
   full:   -79088.177  -71859.024   47478.657  -87296.772  -39763.892   31609.520
speedup  1.00
cpu  time for grad    5.95 s
wall time for grad    5.96 s

SCC energy    :    -526.7795451
rep           :      10.6418884
ES            :       2.0852864
AES           :      -0.0621084
AXC           :       0.0543994
disp          :      -0.3841253
XB            :       0.0000000
fix           :       0.0000000
Gborn         :       0.0000000
Gsasa         :       0.0000000
Ghb           :       0.0000000
Gshift        :       0.0000000
Gsolv         :      -0.5797569     -363.80
Etot ala COSMO:    -526.7795451
grad norm     :       2.3239714
total E       :    -516.1076709
atomizationE  :      89.0080540    55853.40
(atE without considering molecular charge,
 total energy contains solvation terms)
H-L gap (eV)  :          1.4593

------------------------------------------------------------------------
 * finished run on 2019/03/07 at 11:37:52.094     
------------------------------------------------------------------------
 total:
 * wall-time:     0 d,  0 h,  0 min,  6.643 sec
 *  cpu-time:     0 d,  0 h,  0 min,  6.427 sec
 * ratio c/w:     0.967 speedup
 SCF:
 * wall-time:     0 d,  0 h,  0 min,  6.330 sec
 *  cpu-time:     0 d,  0 h,  0 min,  6.328 sec
 * ratio c/w:     1.000 speedup

