      -----------------------------------------------------------      
     |                   =====================                   |     
     |                           x T B                           |     
     |                   =====================                   |     
     |                         S. Grimme                         |     
     |          Mulliken Center for Theoretical Chemistry        |     
     |                    University of Bonn                     |     
     |                 Version 6.0.1 (SAW181210)                 |     
      -----------------------------------------------------------      

   This program is distributed in the hope that it will be useful,
   but WITHOUT ANY WARRANTY; without even the implied warranty of
   MERCHANTABILITY or FITNESS FOR A PARTICULAR PURPOSE.
   
   FOR NON-COMMERCIAL, ACADEMIA USE ONLY.
   
   Cite this work as:
   S. Grimme, C. Bannwarth, P. Shushkov, J. Comput. Theory Chem., 2017,
   13, 1989-2009.
   C. Bannwarth, S. Ehlert and S. Grimme., ChemRxiv, 2018, preprint.
   http://doi.org/10.26434/chemrxiv.7246238.v1
   
   for sTDA-xTB:
   S. Grimme and C. Bannwarth, J. Chem. Phys., 2016, 145, 054103.
   
   in the mass-spec context:
   V. Asgeirsson, C. Bauer and S. Grimme, Chem. Sci., 2017, 8, 4879.
   
   if GBSA is used:
   P. Shushkov, F. März and S. Grimme, unpublished.
   
   for ANC optimizer:
   S. Grimme, unpublished.
   Rational Function algorithm used in ANCopt:
   F. Eckert, P. Pulay, H.-J. Werner, J. Comput. Chem., 1997, 18, 1473.
   
   with help from (in alphabetical order)
   C. Bannwarth, F. Bohle, G. Brandenburg, E. Caldeweyher, M. Checinski,
   S. Dohm, S. Ehlert, S. Ehrlich, F. März, H. Neugebauer, J. Pisarek,
   P. Pracht, P. Shushkov, and S. Spicher.
   
 * started run on 2019/03/07 at 11:37:44.975     
========================================================================
 # omp threads = 1
========================================================================
number of atoms            : 124
number of electrons        : 334
charge                     : 0
spin                       : .0
first test random number   : .7404
           ------------------------------------------------- 
          |                 G F N 2 - x T B                 |
          | Geometry, Frequencies, Noncovalent interactions |
          |            JCTC 2018 parametrisation            |
           ------------------------------------------------- 
 
      method parameters     
 k(s)        :  1.8500
 k(p)        :  2.2300
 k(d)        :  2.2300
 k(f)        :  2.0000
 kEN (H0ij)  : -2.0000
 D4 a1       :  0.5200
 D4 a2       :  5.0000
 D4 s6       :  1.0000
 D4 s8       :  2.7000
 D4 s9       :  5.0000
 alphaj      :  2.0000

 Solvent             : h2o
 Using internal parameter file: .param_gbsa2_h2o
 Gsolv ref. state (COSMO-RS): gsolv [1 M gas/solution]
 temperature (mdtemp)       :    298.150000000000     
 dielectric constant        :    80.2000000000000     
 rho                        :    1.00000000000000     
 mass                       :    18.0000000000000     
 surface tension            :    15.5689454083859     
 probe radius               :   0.975313790000000     
 vdW radii scaling          :    1.00000000000000     
 Gshift (Eh)                :   1.857443126794793E-003
 c1                         :    1.55243817000000     
 soset                      :   0.130326360000000     
 HB correction              :  T

            Z     q(EN)     CN     RAES       Cart. coordinates
     1  N   5.0   -0.24    3.25    1.97   438.25768   127.71902   223.03302
     2  C   4.0    0.03    4.33    4.25   438.83216   130.37408   223.30892
     3  C   4.0    0.08    3.20    3.04   440.93731   130.72935   225.30258
     4  O   6.0   -0.28    1.12    1.80   442.21666   132.65498   225.28179
     5  C   4.0   -0.05    4.45    4.46   436.46055   131.86130   224.09693
     6  C   4.0   -0.03    4.34    4.27   434.44611   131.91043   222.04280
     7  C   4.0   -0.09    4.23    4.06   432.29371   133.63386   222.70798
     8  C   4.0   -0.07    4.25    4.10   435.64419   132.65876   219.50679
     9  H   1.0    0.10    1.08    1.44   437.38274   127.11997   224.26323
    10  H   1.0    0.05    1.13    1.45   439.41042   131.01659   221.69320
    11  H   1.0    0.04    1.09    1.44   435.75569   131.11486   225.61627
    12  H   1.0    0.05    1.09    1.44   436.93676   133.58095   224.51645
    13  H   1.0    0.04    1.13    1.45   433.74313   130.22479   221.89351
    14  H   1.0    0.05    1.06    1.44   431.05405   133.61307   221.35872
    15  H   1.0    0.04    1.06    1.44   431.51136   133.06316   224.26323
    16  H   1.0    0.05    1.06    1.44   432.92299   135.34028   222.93286
    17  H   1.0    0.06    1.05    1.44   434.35351   132.68711   218.20477
    18  H   1.0    0.06    1.06    1.44   436.40008   134.32172   219.65419
    19  H   1.0    0.05    1.06    1.44   436.93676   131.43989   219.05703
    20  N   5.0   -0.21    3.27    1.97   421.91344   142.13763   216.50968
    21  C   4.0    0.03    4.31    4.22   422.35186   139.73579   215.21900
    22  C   4.0    0.08    3.23    3.04   419.79884   138.50746   214.65586
    23  O   6.0   -0.28    1.15    1.80   417.96770   139.09895   215.95977
    24  C   4.0   -0.05    4.43    4.43   423.87498   137.94621   216.91786
    25  C   4.0   -0.02    3.63    3.19   426.59240   138.59817   217.02747
    26  C   4.0   -0.05    3.52    3.13   427.62986   139.59595   219.18931
    27  C   4.0   -0.04    3.54    3.14   428.16277   138.26369   214.88830
    28  C   4.0   -0.04    3.49    3.11   430.15265   140.20066   219.26679
    29  C   4.0   -0.03    3.49    3.11   430.68744   138.86651   214.94310
    30  C   4.0    0.08    3.55    3.14   431.65687   139.81515   217.12384
    31  O   6.0   -0.26    2.16    1.85   434.16643   140.39152   217.23723
    32  H   1.0    0.12    1.08    1.44   420.87787   142.03747   217.75879
    33  H   1.0    0.05    1.12    1.45   423.28349   140.04759   213.67131
    34  H   1.0    0.05    1.10    1.44   423.17767   137.98590   218.61295
    35  H   1.0    0.04    1.10    1.44   423.69168   136.23034   216.30181
    36  H   1.0    0.05    1.10    1.44   426.62075   139.86240   220.60283
    37  H   1.0    0.06    1.10    1.44   427.46735   137.61929   213.40864
    38  H   1.0    0.06    1.10    1.44   430.85752   140.86206   220.73322
    39  H   1.0    0.08    1.10    1.44   431.70411   138.63219   213.52769
    40  H   1.0    0.17    1.12    1.45   435.00546   139.24824   216.52291
    41  N   5.0   -0.22    3.23    1.96   419.81207   123.70146   219.72411
    42  C   4.0    0.03    4.37    4.33   421.41645   125.22647   218.09894
    43  C   4.0    0.15    3.43    3.09   420.96480   124.58585   215.30593
    44  O   6.0   -0.29    1.22    1.80   421.71124   122.53928   214.43287
    45  C   4.0   -0.05    4.48    4.50   424.21513   124.79750   218.79814
    46  C   4.0   -0.03    4.30    4.19   426.26926   126.46235   217.67375
    47  C   4.0   -0.09    4.23    4.06   425.79116   129.19111   218.49767
    48  C   4.0   -0.09    4.22    4.04   428.84685   125.55339   218.57515
    49  H   1.0    0.10    1.09    1.44   420.62465   122.83219   220.83148
    50  H   1.0    0.04    1.13    1.45   420.99693   126.99336   218.35027
    51  H   1.0    0.04    1.10    1.44   424.34552   124.93545   220.62173
    52  H   1.0    0.06    1.10    1.44   424.62331   123.06462   218.36161
    53  H   1.0    0.05    1.12    1.45   426.24092   126.37164   215.84261
    54  H   1.0    0.05    1.05    1.44   427.08751   130.27960   217.79470
    55  H   1.0    0.05    1.06    1.44   424.14710   129.73347   217.89485
    56  H   1.0    0.04    1.06    1.44   425.83462   129.29505   220.32693
    57  H   1.0    0.05    1.06    1.44   430.15643   126.61731   217.85706
    58  H   1.0    0.04    1.06    1.44   428.92244   125.64410   220.40441
    59  H   1.0    0.05    1.06    1.44   429.10574   123.82051   218.03847
    60  N   5.0   -0.16    3.49    2.07   419.73837   126.30172   213.96611
    61  C   4.0    0.03    4.47    4.49   419.16200   125.95968   211.29593
    62  C   4.0    0.16    3.50    3.12   421.51660   126.29039   209.70667
    63  O   6.0   -0.30    1.29    1.80   423.07374   127.91933   210.19989
    64  C   4.0   -0.08    4.25    4.09   417.16834   127.82106   210.48712
    65  H   1.0    0.09    1.14    1.45   419.21114   127.71146   214.58027
    66  H   1.0    0.05    1.14    1.45   418.53083   124.25704   211.04837
    67  H   1.0    0.05    1.06    1.44   416.79418   127.58296   208.70889
    68  H   1.0    0.05    1.06    1.44   415.64522   127.55272   211.47167
    69  H   1.0    0.05    1.06    1.44   417.77872   129.52749   210.75925
    70  N   5.0   -0.17    3.40    2.02   421.82841   124.54617   207.90954
    71  C   4.0    0.02    4.32    4.24   423.96947   124.58963   206.17477
    72  C   4.0    0.17    3.36    3.07   426.62831   124.60286   207.33506
    73  O   6.0   -0.28    1.23    1.80   428.45756   124.39499   205.95367
    74  H   1.0    0.09    1.13    1.45   420.80228   123.30840   207.66765
    75  H   1.0    0.05    1.09    1.44   423.83907   123.12887   205.07684
    76  H   1.0    0.06    1.09    1.44   423.80695   126.07496   205.11274
    77  N   5.0   -0.15    3.47    2.06   426.80972   124.76160   209.84840
    78  C   4.0    0.02    4.33    4.26   429.25881   124.82018   211.08239
    79  C   4.0    0.17    3.36    3.07   430.90476   127.08218   210.31327
    80  O   6.0   -0.28    1.22    1.80   433.21778   126.80439   209.91454
    81  H   1.0    0.12    1.16    1.45   425.53794   124.83719   210.85562
    82  H   1.0    0.04    1.09    1.44   429.00936   124.85608   212.89842
    83  H   1.0    0.07    1.09    1.44   430.15832   123.27060   210.69499
    84  N   5.0   -0.15    3.48    2.06   429.76903   129.31017   210.10351
    85  C   4.0    0.04    4.44    4.44   431.12775   131.61563   209.40053
    86  C   4.0    0.16    3.49    3.11   433.10629   132.21846   211.39986
    87  O   6.0   -0.30    1.24    1.80   432.48457   132.50947   213.62029
    88  C   4.0   -0.07    4.23    4.06   429.30416   133.82661   209.16432
    89  H   1.0    0.10    1.14    1.45   428.18166   129.53504   210.36429
    90  H   1.0    0.06    1.13    1.45   431.94411   131.34540   207.78293
    91  H   1.0    0.06    1.06    1.44   430.23202   135.33839   208.69755
    92  H   1.0    0.05    1.06    1.44   428.05505   133.45434   207.87552
    93  H   1.0    0.06    1.06    1.44   428.46134   134.09873   210.76869
    94  N   5.0   -0.16    3.53    2.10   435.47412   132.38475   210.59862
    95  C   4.0    0.04    4.57    4.63   437.47723   132.98190   212.40331
    96  C   4.0    0.16    3.47    3.10   437.50935   135.82783   212.83039
    97  O   6.0   -0.30    1.26    1.80   437.49423   136.70466   214.97333
    98  C   4.0    0.05    4.38    4.34   440.06048   132.18255   211.41687
    99  O   6.0   -0.27    2.17    1.85   440.39685   133.03671   208.88086
   100  C   4.0   -0.08    4.21    4.02   440.41008   129.37253   211.61340
   101  H   1.0    0.11    1.13    1.45   435.95789   132.16743   209.06227
   102  H   1.0    0.06    1.13    1.45   437.14086   132.07295   213.95855
   103  H   1.0    0.05    1.12    1.45   441.34550   132.96490   212.46189
   104  H   1.0    0.15    1.08    1.44   441.82738   132.58884   208.35551
   105  H   1.0    0.05    1.06    1.44   442.06548   128.91521   210.97467
   106  H   1.0    0.05    1.06    1.44   440.27024   128.86041   213.36707
   107  H   1.0    0.06    1.06    1.44   439.11940   128.52404   210.62507
   108  N   5.0   -0.14    3.50    2.08   437.36573   137.28103   210.79704
   109  C   4.0    0.04    4.35    4.28   437.39030   140.05515   210.93688
   110  C   4.0    0.08    3.20    3.04   434.73523   141.23623   210.74602
   111  O   6.0   -0.28    1.12    1.80   433.20645   140.44821   209.18321
   112  C   4.0    0.03    4.25    4.09   439.08727   141.14363   208.85062
   113  O   6.0   -0.26    2.09    1.84   441.63462   140.44065   209.18699
   114  H   1.0    0.11    1.13    1.45   437.25046   136.69711   209.28526
   115  H   1.0    0.06    1.13    1.45   438.05548   140.48601   212.59039
   116  H   1.0    0.05    1.07    1.44   438.50146   140.55593   207.21601
   117  H   1.0    0.05    1.07    1.44   438.95310   142.97100   208.84306
   118  H   1.0    0.15    1.08    1.44   442.51335   141.06048   208.01914
   119  H   1.0    0.09    1.08    1.44   437.36607   127.47646   221.60517
   120  H   1.0    0.06    1.04    1.43   441.24677   129.38966   226.59893
   121  H   1.0    0.10    1.08    1.44   423.38496   142.72868   217.12440
   122  H   1.0    0.05    1.04    1.43   419.64350   137.25193   213.25209
   123  H   1.0    0.10    1.08    1.44   418.73804   124.71200   220.57136
   124  H   1.0    0.06    1.04    1.43   434.24620   142.65267   211.89737

  Z AO/shell   Hii/eV     exponent
  1     Wed Apr 25 08:07:45 CEST 2018   EN: 2.200 GM2: 0.406  GM3: 0.0800  RAES: 1.40
     1s    -10.707211    1.230000
  6     Wed Apr 25 08:07:45 CEST 2018   EN: 2.550 GM2: 0.538  GM3: 0.1500  RAES: 3.00
     2s    -13.970922    2.096432
     2p    -10.063292    1.800000
  7     Wed Apr 25 08:07:45 CEST 2018   EN: 3.040 GM2: 0.461  GM3:-0.0640  RAES: 1.90
     2s    -16.686243    2.339881
     2p    -12.523956    2.014332
  8     Wed Apr 25 08:07:45 CEST 2018   EN: 3.440 GM2: 0.452  GM3:-0.0517  RAES: 1.80
     2s    -20.229985    2.439742
     2p    -15.503117    2.137023
 no old-style atom pair restraining (fixing) potential

molecular fragmentation (1/2 indicates fragments):
111111111111111111122222222222222222222222222222222222222222222222222222
2222222222222222222222222222222222222222222222112222
# atoms in fragment 1/2:    21   103
 fragment masses (1/2) :      115.17      724.81
CMA distance (Bohr)    :  13.288
constraining FC (au)   :  0.0500
           ------------------------------------------------- 
          |        Self-Consistent Charge Iterations        |
           ------------------------------------------------- 

 Ncao       : 301
 Nao        : 301
 Nshell     : 183
 Nel        : 334
 T(el)      :   500.0
 intcut     :    35.0
 scfconv/Eh :  0.100E-06
   qconv/e  :  0.100E-04
 intneglect :  0.100E-08
 broydamp   :      0.400
 iter      E             dE          RMSdq      gap      omega  full diag
   1   -192.3326634 -0.192333E+03  0.474E+00    3.27       0.0  T
   2   -192.7979980 -0.465335E+00  0.224E+00    1.74       1.0  T
   3   -192.8225338 -0.245358E-01  0.126E+00    1.95       1.0  T
   4   -192.8538714 -0.313376E-01  0.247E-01    1.37       1.0  T
   5   -192.8558699 -0.199848E-02  0.109E-01    1.55       1.0  T
   6   -192.8561344 -0.264511E-03  0.475E-02    1.53       1.0  T
   7   -192.8562152 -0.807689E-04  0.178E-02    1.54       1.0  T
   8   -192.8562223 -0.713042E-05  0.871E-03    1.54       1.0  T
   9   -192.8562242 -0.191523E-05  0.349E-03    1.54       2.6  T
  10   -192.8562245 -0.323228E-06  0.114E-03    1.54       7.9  T
  11   -192.8562246 -0.312509E-07  0.497E-04    1.54      18.1  T
  12   -192.8562246 -0.303811E-08  0.224E-04    1.54      40.1  T
  13   -192.8562246 -0.150746E-08  0.951E-05    1.54      94.4  T
  14   -192.8562246 -0.249457E-09  0.397E-05    1.54     226.1  T
speedup  1.00
cpu  time for SCC    0.29 s
wall time for SCC    0.29 s

   *** convergence criteria satisfied after 14 iterations ***

          eigenvalues
 #    :         155        156        157        158        159        160        161        162
 occ. :        2.000      2.000      2.000      2.000      2.000      2.000      2.000      2.000
 eps  :       -11.220    -11.186    -11.171    -11.110    -11.097    -11.064    -11.032    -10.988
 #    :         163        164        165        166        167        168        169        170
 occ. :        2.000      2.000      2.000      2.000      2.000      0.000      0.000      0.000
 eps  :       -10.920    -10.436    -10.006     -9.975     -9.903     -8.366     -7.726     -7.619
 #    :         171        172        173        174        175        176        177        178
 occ. :        0.000      0.000      0.000      0.000      0.000      0.000      0.000      0.000
 eps  :        -6.474     -6.380     -6.327     -6.169     -6.090     -6.088     -6.054     -5.739


   #   Z            q   n(s)   n(p)   n(d)      C6AA      α(0)
   1   7 N     -0.422  1.288  4.134  0.000    30.981     8.267
   2   6 C      0.023  1.039  2.938  0.000    20.200     6.401
   3   6 C      0.196  1.094  2.710  0.000    23.816     7.992
   4   8 O     -0.388  1.761  4.626  0.000    21.434     6.207
   5   6 C     -0.091  1.013  3.078  0.000    22.212     6.707
   6   6 C     -0.021  1.029  2.992  0.000    20.915     6.504
   7   6 C     -0.147  0.974  3.173  0.000    23.369     6.888
   8   6 C     -0.149  0.977  3.172  0.000    23.407     6.894
   9   1 H      0.187  0.813  0.000  0.000     1.173     1.697
  10   1 H      0.086  0.914  0.000  0.000     1.921     2.167
  11   1 H      0.053  0.947  0.000  0.000     2.280     2.361
  12   1 H      0.055  0.945  0.000  0.000     2.254     2.348
  13   1 H      0.047  0.953  0.000  0.000     2.354     2.399
  14   1 H      0.056  0.944  0.000  0.000     2.244     2.343
  15   1 H      0.054  0.946  0.000  0.000     2.265     2.353
  16   1 H      0.051  0.949  0.000  0.000     2.313     2.378
  17   1 H      0.056  0.944  0.000  0.000     2.240     2.340
  18   1 H      0.054  0.946  0.000  0.000     2.266     2.354
  19   1 H      0.042  0.958  0.000  0.000     2.418     2.432
  20   7 N     -0.411  1.286  4.124  0.000    30.667     8.225
  21   6 C      0.028  1.039  2.934  0.000    20.116     6.388
  22   6 C      0.193  1.087  2.720  0.000    23.870     8.001
  23   8 O     -0.378  1.762  4.617  0.000    21.256     6.181
  24   6 C     -0.090  1.007  3.083  0.000    22.187     6.702
  25   6 C     -0.008  1.078  2.930  0.000    28.215     8.713
  26   6 C     -0.060  1.053  3.006  0.000    29.486     8.905
  27   6 C     -0.062  1.059  3.003  0.000    29.547     8.915
  28   6 C     -0.077  1.054  3.024  0.000    29.934     8.973
  29   6 C     -0.076  1.046  3.030  0.000    29.899     8.967
  30   6 C      0.139  1.046  2.815  0.000    24.961     8.189
  31   8 O     -0.453  1.663  4.789  0.000    21.896     6.317
  32   1 H      0.187  0.813  0.000  0.000     1.172     1.696
  33   1 H      0.083  0.917  0.000  0.000     1.943     2.180
  34   1 H      0.070  0.930  0.000  0.000     2.081     2.256
  35   1 H      0.069  0.931  0.000  0.000     2.097     2.265
  36   1 H      0.070  0.930  0.000  0.000     2.080     2.255
  37   1 H      0.065  0.935  0.000  0.000     2.135     2.285
  38   1 H      0.072  0.928  0.000  0.000     2.059     2.244
  39   1 H      0.050  0.950  0.000  0.000     2.318     2.381
  40   1 H      0.329  0.671  0.000  0.000     0.640     1.256
  41   7 N     -0.422  1.287  4.134  0.000    30.979     8.266
  42   6 C      0.024  1.034  2.943  0.000    20.184     6.399
  43   6 C      0.263  1.052  2.686  0.000    22.573     7.780
  44   8 O     -0.514  1.760  4.754  0.000    24.101     6.582
  45   6 C     -0.096  1.013  3.084  0.000    22.312     6.722
  46   6 C     -0.023  1.030  2.993  0.000    20.954     6.510
  47   6 C     -0.152  0.978  3.174  0.000    23.465     6.902
  48   6 C     -0.149  0.977  3.172  0.000    23.410     6.894
  49   1 H      0.188  0.812  0.000  0.000     1.167     1.692
  50   1 H      0.044  0.956  0.000  0.000     2.400     2.423
  51   1 H      0.060  0.940  0.000  0.000     2.193     2.316
  52   1 H      0.059  0.941  0.000  0.000     2.213     2.326
  53   1 H      0.029  0.971  0.000  0.000     2.594     2.519
  54   1 H      0.053  0.947  0.000  0.000     2.281     2.362
  55   1 H      0.048  0.952  0.000  0.000     2.348     2.396
  56   1 H      0.060  0.940  0.000  0.000     2.203     2.321
  57   1 H      0.052  0.948  0.000  0.000     2.295     2.369
  58   1 H      0.060  0.940  0.000  0.000     2.201     2.320
  59   1 H      0.048  0.952  0.000  0.000     2.350     2.397
  60   7 N     -0.184  1.210  3.974  0.000    24.979     7.423
  61   6 C      0.014  1.030  2.956  0.000    20.334     6.419
  62   6 C      0.267  1.040  2.693  0.000    22.493     7.767
  63   8 O     -0.483  1.742  4.741  0.000    23.410     6.487
  64   6 C     -0.163  0.980  3.183  0.000    23.685     6.934
  65   1 H      0.222  0.778  0.000  0.000     1.001     1.567
  66   1 H      0.083  0.917  0.000  0.000     1.950     2.183
  67   1 H      0.084  0.916  0.000  0.000     1.934     2.174
  68   1 H      0.088  0.912  0.000  0.000     1.902     2.156
  69   1 H      0.080  0.920  0.000  0.000     1.978     2.199
  70   7 N     -0.196  1.213  3.983  0.000    25.250     7.463
  71   6 C     -0.054  1.013  3.041  0.000    21.598     6.627
  72   6 C      0.279  1.036  2.685  0.000    22.271     7.728
  73   8 O     -0.488  1.752  4.736  0.000    23.517     6.502
  74   1 H      0.229  0.771  0.000  0.000     0.968     1.541
  75   1 H      0.113  0.887  0.000  0.000     1.671     2.022
  76   1 H      0.115  0.885  0.000  0.000     1.652     2.010
  77   7 N     -0.176  1.199  3.978  0.000    24.822     7.399
  78   6 C     -0.041  1.007  3.033  0.000    21.356     6.589
  79   6 C      0.272  1.044  2.684  0.000    22.396     7.749
  80   8 O     -0.509  1.761  4.748  0.000    23.989     6.567
  81   1 H      0.215  0.785  0.000  0.000     1.033     1.592
  82   1 H      0.098  0.902  0.000  0.000     1.803     2.099
  83   1 H      0.102  0.898  0.000  0.000     1.764     2.077
  84   7 N     -0.171  1.205  3.966  0.000    24.703     7.382
  85   6 C      0.016  1.035  2.949  0.000    20.314     6.417
  86   6 C      0.274  1.039  2.687  0.000    22.371     7.746
  87   8 O     -0.484  1.748  4.737  0.000    23.439     6.491
  88   6 C     -0.158  0.980  3.178  0.000    23.589     6.921
  89   1 H      0.225  0.775  0.000  0.000     0.988     1.557
  90   1 H      0.079  0.921  0.000  0.000     1.990     2.206
  91   1 H      0.082  0.918  0.000  0.000     1.962     2.190
  92   1 H      0.087  0.913  0.000  0.000     1.910     2.161
  93   1 H      0.081  0.919  0.000  0.000     1.969     2.194
  94   7 N     -0.184  1.209  3.975  0.000    24.976     7.422
  95   6 C      0.009  1.041  2.950  0.000    20.426     6.433
  96   6 C      0.275  1.040  2.686  0.000    22.356     7.743
  97   8 O     -0.490  1.743  4.746  0.000    23.556     6.507
  98   6 C      0.103  1.020  2.877  0.000    18.957     6.213
  99   8 O     -0.504  1.679  4.825  0.000    22.971     6.470
 100   6 C     -0.170  0.980  3.190  0.000    23.832     6.957
 101   1 H      0.226  0.774  0.000  0.000     0.982     1.552
 102   1 H      0.102  0.898  0.000  0.000     1.769     2.080
 103   1 H      0.058  0.942  0.000  0.000     2.227     2.334
 104   1 H      0.349  0.651  0.000  0.000     0.590     1.206
 105   1 H      0.078  0.922  0.000  0.000     1.994     2.208
 106   1 H      0.068  0.932  0.000  0.000     2.104     2.268
 107   1 H      0.075  0.925  0.000  0.000     2.035     2.231
 108   7 N     -0.161  1.199  3.962  0.000    24.489     7.350
 109   6 C      0.008  1.041  2.952  0.000    20.459     6.441
 110   6 C      0.191  1.093  2.716  0.000    23.913     8.008
 111   8 O     -0.344  1.753  4.591  0.000    20.596     6.085
 112   6 C      0.065  0.992  2.943  0.000    19.670     6.347
 113   8 O     -0.496  1.679  4.817  0.000    22.813     6.448
 114   1 H      0.226  0.774  0.000  0.000     0.984     1.554
 115   1 H      0.115  0.885  0.000  0.000     1.652     2.010
 116   1 H      0.071  0.929  0.000  0.000     2.072     2.251
 117   1 H      0.070  0.930  0.000  0.000     2.089     2.260
 118   1 H      0.356  0.644  0.000  0.000     0.573     1.188
 119   1 H      0.182  0.818  0.000  0.000     1.202     1.717
 120   1 H      0.073  0.927  0.000  0.000     2.055     2.241
 121   1 H      0.182  0.818  0.000  0.000     1.203     1.718
 122   1 H      0.070  0.930  0.000  0.000     2.088     2.260
 123   1 H      0.187  0.813  0.000  0.000     1.177     1.699
 124   1 H      0.097  0.903  0.000  0.000     1.815     2.107

 Mol. C6AA /au·bohr⁶  :     138386.988949
 Mol. C8AA /au·bohr⁸  :    3074859.814631
 Mol. α(0) /au        :        557.666742

 
molecular dipole:
                 x           y           z       tot (Debye)
 q only:       -1.946       0.569      -2.352
   full:       -2.228       0.126      -2.336       8.210
molecular quadrupole (traceless):
                xx          xy          yy          xz          yz          zz
 q only:    -1227.673      19.502    1465.440   -2171.180    -324.983    -237.767
  q+dip:    -1417.975    -310.472    1455.087   -2261.222    -468.310     -37.112
   full:    -1417.556    -311.610    1456.754   -2261.847    -470.742     -39.198
speedup  1.00
cpu  time for grad    0.46 s
wall time for grad    0.46 s

SCC energy    :    -192.8615143
rep           :       4.1139081
ES            :       0.4983552
AES           :       0.0075619
AXC           :       0.0283428
disp          :      -0.1303095
XB            :       0.0000000
fix           :       0.0000000
Gborn         :       0.0000000
Gsasa         :       0.0000000
Ghb           :       0.0000000
Gshift        :       0.0000000
Gsolv         :      -0.0817683      -51.31
Etot ala COSMO:    -192.8615143
grad norm     :       1.4485648
total E       :    -188.7412182
atomizationE  :      33.5298175    21040.28
(atE without considering molecular charge,
 total energy contains solvation terms)
H-L gap (eV)  :          1.5372

------------------------------------------------------------------------
 * finished run on 2019/03/07 at 11:37:45.612     
------------------------------------------------------------------------
 total:
 * wall-time:     0 d,  0 h,  0 min,  0.636 sec
 *  cpu-time:     0 d,  0 h,  0 min,  0.548 sec
 * ratio c/w:     0.860 speedup
 SCF:
 * wall-time:     0 d,  0 h,  0 min,  0.519 sec
 *  cpu-time:     0 d,  0 h,  0 min,  0.516 sec
 * ratio c/w:     0.994 speedup

