      -----------------------------------------------------------      
     |                   =====================                   |     
     |                           x T B                           |     
     |                   =====================                   |     
     |                         S. Grimme                         |     
     |          Mulliken Center for Theoretical Chemistry        |     
     |                    University of Bonn                     |     
     |                 Version 6.0.1 (SAW181210)                 |     
      -----------------------------------------------------------      

   This program is distributed in the hope that it will be useful,
   but WITHOUT ANY WARRANTY; without even the implied warranty of
   MERCHANTABILITY or FITNESS FOR A PARTICULAR PURPOSE.
   
   FOR NON-COMMERCIAL, ACADEMIA USE ONLY.
   
   Cite this work as:
   S. Grimme, C. Bannwarth, P. Shushkov, J. Comput. Theory Chem., 2017,
   13, 1989-2009.
   C. Bannwarth, S. Ehlert and S. Grimme., ChemRxiv, 2018, preprint.
   http://doi.org/10.26434/chemrxiv.7246238.v1
   
   for sTDA-xTB:
   S. Grimme and C. Bannwarth, J. Chem. Phys., 2016, 145, 054103.
   
   in the mass-spec context:
   V. Asgeirsson, C. Bauer and S. Grimme, Chem. Sci., 2017, 8, 4879.
   
   if GBSA is used:
   P. Shushkov, F. März and S. Grimme, unpublished.
   
   for ANC optimizer:
   S. Grimme, unpublished.
   Rational Function algorithm used in ANCopt:
   F. Eckert, P. Pulay, H.-J. Werner, J. Comput. Chem., 1997, 18, 1473.
   
   with help from (in alphabetical order)
   C. Bannwarth, F. Bohle, G. Brandenburg, E. Caldeweyher, M. Checinski,
   S. Dohm, S. Ehlert, S. Ehrlich, F. März, H. Neugebauer, J. Pisarek,
   P. Pracht, P. Shushkov, and S. Spicher.
   
 * started run on 2019/03/07 at 11:37:46.265     
========================================================================
 # omp threads = 1
========================================================================
number of atoms            : 535
number of electrons        : 1456
charge                     : -3
spin                       : .0
first test random number   : .1622
           ------------------------------------------------- 
          |                 G F N 2 - x T B                 |
          | Geometry, Frequencies, Noncovalent interactions |
          |            JCTC 2018 parametrisation            |
           ------------------------------------------------- 
 
      method parameters     
 k(s)        :  1.8500
 k(p)        :  2.2300
 k(d)        :  2.2300
 k(f)        :  2.0000
 kEN (H0ij)  : -2.0000
 D4 a1       :  0.5200
 D4 a2       :  5.0000
 D4 s6       :  1.0000
 D4 s8       :  2.7000
 D4 s9       :  5.0000
 alphaj      :  2.0000

 Solvent             : h2o
 Using internal parameter file: .param_gbsa2_h2o
 Gsolv ref. state (COSMO-RS): gsolv [1 M gas/solution]
 temperature (mdtemp)       :    298.150000000000     
 dielectric constant        :    80.2000000000000     
 rho                        :    1.00000000000000     
 mass                       :    18.0000000000000     
 surface tension            :    15.5689454083859     
 probe radius               :   0.975313790000000     
 vdW radii scaling          :    1.00000000000000     
 Gshift (Eh)                :   1.857443126794793E-003
 c1                         :    1.55243817000000     
 soset                      :   0.130326360000000     
 HB correction              :  T

            Z     q(EN)     CN     RAES       Cart. coordinates
     1  N   5.0   -0.26    3.22    1.96   252.93415   120.88010   248.05677
     2  C   4.0    0.02    4.21    4.02   251.94393   120.97648   245.46595
     3  C   4.0    0.07    3.20    3.04   252.67526   123.51816   244.26409
     4  O   6.0   -0.32    1.19    1.80   253.46138   123.60886   242.09468
     5  C   4.0   -0.09    4.19    3.98   249.04509   120.66089   245.48674
     6  H   1.0    0.09    1.08    1.44   251.81732   120.46436   249.16226
     7  H   1.0    0.04    1.12    1.45   252.66392   119.60831   244.48140
     8  H   1.0    0.05    1.05    1.44   248.41015   120.72703   243.76898
     9  H   1.0    0.04    1.05    1.44   248.61046   119.04518   246.23507
    10  H   1.0    0.04    1.05    1.44   248.28920   122.01205   246.46940
    11  N   5.0   -0.23    3.21    1.96   258.89812   123.39533   242.48207
    12  C   4.0    0.00    4.27    4.15   258.95104   121.94779   240.12748
    13  C   4.0    0.15    3.40    3.08   258.52774   123.70335   237.96563
    14  O   6.0   -0.32    1.27    1.80   259.96960   123.78461   236.16094
    15  H   1.0    0.11    1.08    1.44   257.81153   122.87376   243.57245
    16  H   1.0    0.04    1.09    1.44   260.56297   121.09364   239.94417
    17  H   1.0    0.04    1.09    1.44   257.65657   120.64955   240.15204
    18  N   5.0   -0.17    3.53    2.10   256.46605   125.14710   238.16027
    19  C   4.0    0.03    4.46    4.48   255.78764   127.00848   236.23653
    20  C   4.0    0.09    3.27    3.05   258.01940   128.83585   235.82835
    21  O   6.0   -0.31    1.17    1.80   258.64679   129.46512   233.70808
    22  C   4.0   -0.03    4.44    4.45   253.44815   128.55428   237.01699
    23  C   4.0   -0.06    4.36    4.31   251.15970   126.86486   237.52721
    24  C   4.0   -0.08    4.27    4.14   252.69415   130.30605   234.84002
    25  C   4.0   -0.09    4.15    3.91   248.92415   128.28594   238.59869
    26  H   1.0    0.12    1.17    1.46   255.42859   125.07151   239.40749
    27  H   1.0    0.05    1.12    1.45   255.39835   126.10141   234.69262
    28  H   1.0    0.04    1.12    1.45   253.89602   129.47457   238.53822
    29  H   1.0    0.04    1.10    1.44   250.65703   126.04661   235.96441
    30  H   1.0    0.06    1.10    1.44   251.64347   125.53827   238.69506
    31  H   1.0    0.04    1.06    1.44   251.22017   131.28304   235.32379
    32  H   1.0    0.06    1.06    1.44   254.08121   131.44178   234.46019
    33  H   1.0    0.04    1.06    1.44   252.30109   129.30450   233.35659
    34  H   1.0    0.04    1.06    1.44   247.53709   127.12186   238.88215
    35  H   1.0    0.04    1.06    1.44   249.40036   129.06639   240.18795
    36  H   1.0    0.04    1.06    1.44   248.39881   129.58418   237.41572
    37  N   5.0   -0.23    3.27    1.97   262.62088   125.86898   231.96197
    38  C   4.0    0.03    4.34    4.27   261.73271   125.70646   229.33147
    39  C   4.0    0.16    3.45    3.10   262.33743   128.15554   227.96898
    40  O   6.0   -0.31    1.28    1.80   263.23882   128.12720   225.82225
    41  C   4.0   -0.07    4.23    4.06   258.90001   125.22080   229.26533
    42  H   1.0    0.14    1.10    1.44   261.43792   125.76126   233.07124
    43  H   1.0    0.04    1.12    1.45   262.58309   124.31562   228.49432
    44  H   1.0    0.06    1.06    1.44   258.33688   125.11687   227.52300
    45  H   1.0    0.05    1.06    1.44   258.52963   123.64288   230.12138
    46  H   1.0    0.06    1.06    1.44   258.02507   126.59274   230.11004
    47  N   5.0   -0.17    3.55    2.11   261.74405   130.27582   229.17840
    48  C   4.0    0.03    4.40    4.38   262.19192   132.75703   228.07480
    49  C   4.0    0.08    3.23    3.04   264.99249   133.37119   227.90851
    50  O   6.0   -0.29    1.11    1.80   265.85421   134.49558   226.03957
    51  C   4.0   -0.05    4.38    4.35   260.87856   134.74691   229.72831
    52  C   4.0   -0.04    4.35    4.29   258.10444   134.09306   230.25366
    53  C   4.0    0.15    3.30    3.05   256.97627   135.81460   232.23787
    54  O   6.0   -0.30    1.19    1.80   257.38634   135.44422   234.52822
    55  N   5.0   -0.25    3.23    1.96   255.42859   137.59662   231.40639
    56  H   1.0    0.11    1.16    1.46   261.07320   130.31361   230.65806
    57  H   1.0    0.06    1.13    1.45   261.52295   132.73624   226.36838
    58  H   1.0    0.05    1.09    1.44   261.77618   134.90187   231.31757
    59  H   1.0    0.04    1.09    1.44   260.96926   136.37774   228.89872
    60  H   1.0    0.04    1.10    1.44   257.13690   134.23101   228.70219
    61  H   1.0    0.07    1.11    1.45   257.97972   132.35074   230.81113
    62  H   1.0    0.10    1.09    1.44   255.19804   137.78937   229.80957
    63  H   1.0    0.11    1.09    1.44   254.65569   138.55849   232.46086
    64  N   5.0   -0.22    3.24    1.96   269.83397   129.01348   227.62316
    65  C   4.0    0.03    4.39    4.37   270.86198   127.35052   225.65029
    66  C   4.0    0.15    3.42    3.09   270.00782   128.25759   223.01034
    67  O   6.0   -0.32    1.25    1.80   271.55551   128.68089   221.31714
    68  C   4.0    0.04    4.30    4.21   270.07018   124.57829   226.11705
    69  O   6.0   -0.30    2.11    1.84   270.86954   123.74870   228.62471
    70  C   4.0   -0.09    4.20    4.00   271.21158   122.84353   224.15362
    71  H   1.0    0.10    1.08    1.44   268.84186   128.26893   228.67196
    72  H   1.0    0.05    1.12    1.45   272.69123   127.42800   225.71643
    73  H   1.0    0.04    1.11    1.44   268.24282   124.49892   225.99989
    74  H   1.0    0.13    1.07    1.44   269.86042   124.30995   229.71509
    75  H   1.0    0.04    1.06    1.44   270.69001   121.11821   224.48432
    76  H   1.0    0.04    1.06    1.44   270.63899   123.34619   222.48688
    77  H   1.0    0.04    1.06    1.44   273.03894   122.95313   224.22921
    78  N   5.0   -0.16    3.48    2.07   267.54929   128.71112   222.69286
    79  C   4.0    0.03    4.39    4.37   266.48915   129.66355   220.28535
    80  C   4.0    0.09    3.28    3.05   267.66834   132.18255   219.65041
    81  O   6.0   -0.30    1.11    1.80   267.98960   132.82317   217.40163
    82  C   4.0   -0.04    4.44    4.44   263.65834   130.06417   220.53669
    83  C   4.0   -0.03    4.33    4.26   262.11633   127.72280   220.12473
    84  C   4.0    0.25    3.17    3.03   259.38378   128.07807   220.72755
    85  O   6.0   -0.29    1.18    1.80   258.05531   129.50859   219.41986
    86  O   6.0   -0.29    1.21    1.80   258.52207   126.84407   222.51901
    87  H   1.0    0.12    1.16    1.45   266.43813   128.48058   223.85694
    88  H   1.0    0.05    1.12    1.45   266.84064   128.43144   218.97388
    89  H   1.0    0.07    1.11    1.44   263.29930   130.72368   222.20909
    90  H   1.0    0.06    1.10    1.44   263.13111   131.34162   219.33104
    91  H   1.0    0.04    1.10    1.44   262.28262   127.19367   218.37862
    92  H   1.0    0.05    1.10    1.44   262.78907   126.36975   221.16219
    93  N   5.0   -0.24    3.24    1.97   274.41844   131.11863   217.32415
    94  C   4.0    0.03    4.32    4.24   274.16900   130.20212   214.74657
    95  C   4.0    0.08    3.21    3.04   273.60019   132.27515   212.85684
    96  O   6.0   -0.31    1.13    1.80   274.60364   132.21468   210.79137
    97  C   4.0   -0.05    4.48    4.50   272.22447   128.07051   214.61429
    98  C   4.0   -0.03    4.32    4.24   273.03516   125.63087   215.84828
    99  C   4.0   -0.09    4.23    4.06   270.71080   123.99626   216.33394
   100  C   4.0   -0.10    4.22    4.03   274.90032   124.18712   214.15697
   101  H   1.0    0.13    1.11    1.44   273.32051   130.49692   218.34838
   102  H   1.0    0.04    1.14    1.45   275.80361   129.53315   214.26091
   103  H   1.0    0.06    1.10    1.44   270.67301   128.64120   215.40608
   104  H   1.0    0.04    1.10    1.44   271.83708   127.73792   212.85306
   105  H   1.0    0.05    1.13    1.45   273.87231   126.02204   217.43187
   106  H   1.0    0.04    1.06    1.44   271.22292   122.42590   217.12762
   107  H   1.0    0.05    1.06    1.44   269.55429   124.89010   217.43943
   108  H   1.0    0.04    1.06    1.44   269.87554   123.63343   214.74279
   109  H   1.0    0.03    1.05    1.44   275.39543   122.62810   214.98467
   110  H   1.0    0.04    1.06    1.44   274.09908   123.79973   212.55449
   111  H   1.0    0.04    1.05    1.44   276.38565   125.22080   213.86218
   112  N   5.0   -0.22    3.26    1.97   256.63045   107.85800   242.70317
   113  C   4.0    0.03    4.44    4.44   255.69882   109.90268   244.36802
   114  C   4.0    0.07    3.26    3.05   253.43304   108.85577   245.75697
   115  O   6.0   -0.30    1.17    1.80   251.58488   108.07343   244.58912
   116  C   4.0   -0.02    4.48    4.50   255.13946   112.32342   242.99608
   117  C   4.0   -0.06    4.33    4.25   257.49595   113.26450   241.56367
   118  C   4.0   -0.10    4.27    4.14   254.25129   114.32275   244.81967
   119  C   4.0   -0.10    4.16    3.93   259.88645   113.29474   243.16049
   120  H   1.0    0.14    1.09    1.44   255.82543   107.68225   241.30289
   121  H   1.0    0.03    1.15    1.45   257.01029   110.39212   245.55099
   122  H   1.0    0.07    1.14    1.45   253.80720   111.99272   241.78288
   123  H   1.0    0.05    1.09    1.44   257.76996   112.19492   240.10102
   124  H   1.0    0.04    1.09    1.44   257.17658   114.95770   240.93817
   125  H   1.0    0.04    1.06    1.44   253.89791   115.87233   243.90504
   126  H   1.0    0.04    1.06    1.44   252.72628   113.75016   245.66059
   127  H   1.0    0.03    1.06    1.44   255.55709   114.63456   246.06877
   128  H   1.0    0.03    1.05    1.44   261.29052   113.90323   242.14948
   129  H   1.0    0.03    1.06    1.44   259.64646   114.40212   244.60046
   130  H   1.0    0.04    1.06    1.44   260.24928   111.59777   243.75008
   131  N   5.0   -0.25    3.25    1.97   247.33678   109.24506   249.16604
   132  C   4.0    0.03    4.37    4.33   245.20328   110.96849   249.23407
   133  C   4.0    0.07    3.25    3.04   242.91293   109.86678   250.56632
   134  O   6.0   -0.31    1.13    1.80   241.31611   111.21415   251.47339
   135  C   4.0   -0.03    4.38    4.34   244.39070   111.79241   246.52987
   136  C   4.0   -0.09    4.22    4.04   246.59601   113.05285   245.12958
   137  C   4.0   -0.09    4.27    4.13   243.49308   109.50395   245.06911
   138  H   1.0    0.10    1.08    1.44   247.03820   107.82398   248.43471
   139  H   1.0    0.04    1.13    1.45   245.79099   112.41980   250.18649
   140  H   1.0    0.05    1.12    1.45   243.02821   113.00939   246.66971
   141  H   1.0    0.04    1.06    1.44   246.04988   113.55174   243.45150
   142  H   1.0    0.04    1.05    1.44   247.14403   114.53440   246.05933
   143  H   1.0    0.05    1.06    1.44   247.98874   111.86989   244.99163
   144  H   1.0    0.04    1.06    1.44   242.98663   110.01418   243.38347
   145  H   1.0    0.04    1.06    1.44   244.85368   108.27941   244.95384
   146  H   1.0    0.04    1.06    1.44   242.06445   108.74806   245.93271
   147  N   5.0   -0.22    3.29    1.98   248.83344   106.14213   240.42416
   148  C   4.0    0.03    4.51    4.56   249.12068   107.29486   237.96563
   149  C   4.0    0.16    3.51    3.12   251.89480   107.59533   237.42895
   150  O   6.0   -0.31    1.29    1.80   253.18359   109.06553   238.65916
   151  C   4.0   -0.03    4.48    4.51   247.86590   109.92725   237.85225
   152  C   4.0   -0.06    4.33    4.26   245.04832   109.70804   238.40216
   153  C   4.0   -0.09    4.27    4.14   248.40826   111.12344   235.30301
   154  C   4.0   -0.09    4.15    3.90   243.78032   112.22327   238.85758
   155  H   1.0    0.14    1.11    1.45   249.62146   106.94904   241.59390
   156  H   1.0    0.04    1.13    1.45   248.30810   106.21583   236.72597
   157  H   1.0    0.05    1.13    1.45   248.56888   111.02518   239.14104
   158  H   1.0    0.04    1.09    1.44   244.22818   108.87089   236.99242
   159  H   1.0    0.04    1.10    1.44   244.80644   108.64223   239.87425
   160  H   1.0    0.04    1.06    1.44   247.62213   112.77695   235.22364
   161  H   1.0    0.05    1.06    1.44   250.22050   111.29730   235.08191
   162  H   1.0    0.04    1.06    1.44   247.72984   110.06142   233.97264
   163  H   1.0    0.04    1.06    1.44   241.99831   111.95870   239.19584
   164  H   1.0    0.04    1.06    1.44   244.55888   113.04908   240.29755
   165  H   1.0    0.04    1.06    1.44   243.96929   113.28151   237.37226
   166  N   5.0   -0.15    3.51    2.08   252.82643   106.11567   235.62993
   167  C   4.0    0.04    4.51    4.56   255.51551   106.06654   234.92695
   168  C   4.0    0.15    3.42    3.08   256.25629   107.77674   232.72731
   169  O   6.0   -0.29    1.21    1.80   254.94104   107.88445   230.78845
   170  C   4.0   -0.03    4.36    4.30   256.33944   103.39825   234.34869
   171  C   4.0    0.25    3.14    3.03   255.63835   101.47639   236.45007
   172  O   6.0   -0.28    1.21    1.80   254.69537   102.27008   238.46263
   173  O   6.0   -0.30    1.17    1.80   256.06731    99.21061   236.07968
   174  H   1.0    0.10    1.13    1.45   251.90992   105.09144   234.76254
   175  H   1.0    0.06    1.15    1.45   256.38479   106.73550   236.39527
   176  H   1.0    0.06    1.09    1.44   255.57410   102.86534   232.77077
   177  H   1.0    0.06    1.09    1.44   258.15546   103.37368   234.09736
   178  N   5.0   -0.16    3.51    2.09   258.42569   109.00884   233.04856
   179  C   4.0    0.03    4.54    4.59   259.51229   110.68314   231.13616
   180  C   4.0    0.15    3.45    3.10   261.74216   109.34521   229.89461
   181  O   6.0   -0.29    1.26    1.80   262.85899   107.71627   231.11159
   182  C   4.0   -0.03    4.45    4.46   260.37400   113.22482   232.36259
   183  C   4.0   -0.06    4.35    4.29   258.18192   114.50416   233.72131
   184  C   4.0   -0.09    4.29    4.18   261.50028   114.93124   230.40295
   185  C   4.0   -0.09    4.17    3.94   258.83009   117.04774   234.80601
   186  H   1.0    0.09    1.13    1.45   259.31953   108.89546   234.39972
   187  H   1.0    0.05    1.13    1.45   258.24995   111.07431   229.86626
   188  H   1.0    0.04    1.13    1.45   261.66468   112.86010   233.61359
   189  H   1.0    0.04    1.11    1.45   256.78541   114.69503   232.54968
   190  H   1.0    0.05    1.10    1.44   257.59988   113.41190   235.07246
   191  H   1.0    0.04    1.06    1.44   262.02751   116.50160   231.18907
   192  H   1.0    0.05    1.07    1.44   262.95348   114.11299   229.64139
   193  H   1.0    0.04    1.06    1.44   260.25117   115.28462   229.10848
   194  H   1.0    0.04    1.06    1.44   257.35611   117.75071   235.63938
   195  H   1.0    0.04    1.06    1.44   260.19070   116.86632   236.02110
   196  H   1.0    0.05    1.06    1.44   259.36300   118.17023   233.45863
   197  N   5.0   -0.16    3.48    2.06   262.37144   109.98016   227.53245
   198  C   4.0    0.04    4.52    4.57   264.46148   108.76696   226.19831
   199  C   4.0    0.14    3.45    3.09   266.64978   110.53385   225.56714
   200  O   6.0   -0.31    1.25    1.80   266.33042   112.30830   224.11205
   201  C   4.0   -0.03    4.40    4.37   263.50339   107.54997   223.81536
   202  C   4.0    0.25    3.16    3.03   261.68547   105.38624   224.35393
   203  O   6.0   -0.27    1.17    1.80   259.53685   105.40513   223.39962
   204  O   6.0   -0.28    1.19    1.80   262.48671   103.63068   225.71265
   205  H   1.0    0.09    1.13    1.45   261.60043   111.11967   226.66885
   206  H   1.0    0.07    1.15    1.45   265.13422   107.51218   227.35293
   207  H   1.0    0.06    1.10    1.44   262.66057   108.81042   222.78546
   208  H   1.0    0.05    1.10    1.44   264.92257   106.92258   222.84026
   209  N   5.0   -0.16    3.54    2.10   268.90233   109.93859   226.50255
   210  C   4.0    0.03    4.48    4.50   271.07741   111.48060   226.03201
   211  C   4.0    0.07    3.23    3.04   272.83674   110.11433   224.21598
   212  O   6.0   -0.30    1.14    1.80   272.98603   107.78808   224.30858
   213  C   4.0   -0.06    4.49    4.52   272.40400   112.17791   228.49432
   214  C   4.0   -0.03    4.36    4.31   270.70513   113.60654   230.29712
   215  C   4.0   -0.10    4.21    4.03   272.04306   114.24716   232.78022
   216  C   4.0   -0.09    4.29    4.18   269.87554   115.98004   228.97620
   217  H   1.0    0.10    1.13    1.45   269.18957   108.62901   227.42285
   218  H   1.0    0.05    1.15    1.45   270.55017   113.05474   225.25533
   219  H   1.0    0.04    1.09    1.44   273.00304   110.65101   229.31069
   220  H   1.0    0.03    1.10    1.44   273.87987   113.19836   228.11827
   221  H   1.0    0.05    1.13    1.45   269.26894   112.55964   230.74310
   222  H   1.0    0.04    1.05    1.44   270.89221   115.15990   233.87815
   223  H   1.0    0.03    1.05    1.44   272.57596   112.69948   233.60603
   224  H   1.0    0.03    1.06    1.44   273.50949   115.29029   232.43251
   225  H   1.0    0.04    1.06    1.44   268.77950   116.94569   230.08358
   226  H   1.0    0.04    1.06    1.44   271.34575   116.98537   228.54535
   227  H   1.0    0.05    1.07    1.44   268.96658   115.54351   227.44553
   228  N   5.0   -0.25    3.26    1.97   267.03150   120.47381   205.00503
   229  C   4.0    0.03    4.41    4.40   264.36699   120.92167   205.29794
   230  C   4.0    0.14    3.47    3.10   262.82120   118.70314   206.20501
   231  O   6.0   -0.30    1.29    1.80   261.23194   119.02250   207.87363
   232  C   4.0   -0.04    4.35    4.30   263.22560   121.93646   202.81862
   233  C   4.0    0.24    3.13    3.03   263.76228   124.74459   202.35185
   234  O   6.0   -0.31    1.17    1.80   265.89389   125.38143   201.57518
   235  O   6.0   -0.30    1.17    1.80   262.07097   126.31306   202.87342
   236  H   1.0    0.10    1.09    1.44   267.59086   120.74782   203.50459
   237  H   1.0    0.05    1.14    1.45   264.27062   122.16511   206.63964
   238  H   1.0    0.04    1.09    1.44   263.88889   120.96136   201.41455
   239  H   1.0    0.05    1.10    1.44   261.41146   121.67189   202.84507
   240  N   5.0   -0.18    3.51    2.09   263.37111   116.46192   205.21479
   241  C   4.0    0.04    4.52    4.56   262.03696   114.14890   205.92911
   242  C   4.0    0.17    3.52    3.12   262.22782   113.82575   208.80716
   243  O   6.0   -0.26    1.25    1.80   260.43447   112.93380   210.04304
   244  C   4.0    0.04    4.34    4.27   263.01395   111.77540   204.51559
   245  O   6.0   -0.28    2.15    1.85   261.13556   109.86678   204.65543
   246  C   4.0   -0.09    4.26    4.13   265.42524   110.84377   205.64754
   247  H   1.0    0.08    1.13    1.45   264.53518   116.23515   204.10363
   248  H   1.0    0.07    1.13    1.45   260.28140   114.31708   205.43022
   249  H   1.0    0.03    1.11    1.45   263.35032   112.20815   202.76570
   250  H   1.0    0.13    1.08    1.44   261.64012   108.56854   203.89387
   251  H   1.0    0.03    1.06    1.44   265.99782   109.36222   204.73291
   252  H   1.0    0.03    1.06    1.44   266.69891   112.15712   205.53982
   253  H   1.0    0.05    1.07    1.44   265.14745   110.40724   207.40498
   254  N   5.0   -0.17    3.56    2.12   264.43502   114.42858   209.85596
   255  C   4.0    0.03    4.48    4.51   264.83942   114.27929   212.55071
   256  C   4.0    0.16    3.42    3.08   263.44103   116.44302   213.93587
   257  O   6.0   -0.29    1.23    1.80   262.07097   116.00272   215.75379
   258  C   4.0   -0.06    4.45    4.46   267.70425   114.41535   213.17998
   259  C   4.0   -0.03    4.33    4.26   269.27083   112.29507   211.95733
   260  C   4.0   -0.10    4.23    4.07   272.01849   112.81286   212.64708
   261  C   4.0   -0.09    4.25    4.09   268.44691   109.72127   212.75480
   262  H   1.0    0.09    1.14    1.45   265.72948   114.93313   209.01314
   263  H   1.0    0.07    1.13    1.45   264.17046   112.67113   213.12329
   264  H   1.0    0.04    1.09    1.44   268.35998   116.03484   212.62629
   265  H   1.0    0.05    1.09    1.44   267.91968   114.34165   214.99979
   266  H   1.0    0.03    1.13    1.45   269.03461   112.30263   210.13942
   267  H   1.0    0.03    1.06    1.44   273.08808   111.51651   211.91387
   268  H   1.0    0.03    1.06    1.44   272.51360   114.45314   211.99702
   269  H   1.0    0.04    1.06    1.44   272.20557   112.79774   214.47067
   270  H   1.0    0.03    1.06    1.44   269.49382   108.46082   211.93088
   271  H   1.0    0.05    1.06    1.44   268.61510   109.56064   214.57271
   272  H   1.0    0.05    1.06    1.44   266.69513   109.46427   212.27859
   273  N   5.0   -0.16    3.50    2.08   263.68480   118.72392   212.87007
   274  C   4.0    0.03    4.47    4.50   262.50561   121.03506   213.86218
   275  C   4.0    0.16    3.56    3.14   259.68614   120.74026   214.28547
   276  O   6.0   -0.31    1.27    1.80   258.70726   121.44702   216.28858
   277  C   4.0   -0.06    4.39    4.36   262.76072   123.23281   212.03859
   278  C   4.0   -0.06    4.27    4.14   261.50028   125.75748   212.94377
   279  C   4.0   -0.01    4.33    4.25   261.22249   127.69634   210.82728
   280  N   5.0   -0.16    3.44    2.04   263.59598   128.67333   209.88241
   281  C   4.0    0.12    3.48    3.11   263.76984   130.39109   208.07017
   282  N   5.0   -0.23    3.32    1.99   261.68547   131.32462   207.03082
   283  N   5.0   -0.24    3.27    1.97   266.03940   131.17533   207.24058
   284  H   1.0    0.10    1.14    1.45   264.55785   118.97526   211.52269
   285  H   1.0    0.05    1.12    1.45   263.38244   121.34875   215.44010
   286  H   1.0    0.04    1.09    1.44   264.54274   123.54083   211.73812
   287  H   1.0    0.06    1.10    1.44   262.02184   122.75093   210.43232
   288  H   1.0    0.06    1.09    1.44   259.84677   125.38899   213.64297
   289  H   1.0    0.04    1.09    1.44   262.50372   126.48125   214.29492
   290  H   1.0    0.05    1.09    1.44   260.30219   126.92911   209.43833
   291  H   1.0    0.04    1.09    1.44   260.20581   129.09474   211.43577
   292  H   1.0    0.09    1.14    1.45   264.97170   128.10641   210.53437
   293  H   1.0    0.10    1.10    1.44   260.22660   130.81439   207.53537
   294  H   1.0    0.10    1.09    1.44   261.79318   132.43955   205.85352
   295  H   1.0    0.11    1.09    1.44   267.39811   130.56117   207.88686
   296  H   1.0    0.10    1.09    1.44   266.13200   132.29215   206.06328
   297  N   5.0   -0.16    3.59    2.15   258.38790   119.72359   212.39575
   298  C   4.0    0.03    4.48    4.51   255.67236   119.38155   212.49023
   299  C   4.0    0.17    3.50    3.12   254.89757   118.10598   214.90530
   300  O   6.0   -0.31    1.28    1.80   252.98328   118.80140   216.06371
   301  C   4.0    0.02    4.24    4.09   254.83899   117.84331   210.13564
   302  O   6.0   -0.25    2.13    1.84   256.62478   115.92902   209.51392
   303  H   1.0    0.13    1.17    1.46   259.07009   119.20958   211.01247
   304  H   1.0    0.05    1.13    1.45   254.83710   121.01238   212.46378
   305  H   1.0    0.05    1.07    1.44   253.20438   117.07608   210.45311
   306  H   1.0    0.05    1.07    1.44   254.63112   118.97337   208.70700
   307  H   1.0    0.17    1.10    1.44   257.30131   115.38289   210.84239
   308  N   5.0   -0.14    3.57    2.13   256.34321   116.20303   215.68009
   309  C   4.0    0.04    4.51    4.56   255.90102   114.73282   217.99501
   310  C   4.0    0.17    3.52    3.12   255.92370   116.45814   220.25701
   311  O   6.0   -0.31    1.30    1.80   254.07554   116.65845   221.58549
   312  C   4.0   -0.03    4.39    4.36   257.94003   112.72971   218.36350
   313  C   4.0    0.26    3.16    3.03   258.50506   111.20470   215.97678
   314  O   6.0   -0.27    1.20    1.80   256.77974   110.90991   214.38374
   315  O   6.0   -0.27    1.18    1.80   260.62155   110.23527   215.71411
   316  H   1.0    0.12    1.15    1.45   257.65279   115.70981   214.85239
   317  H   1.0    0.06    1.12    1.45   254.27019   113.91079   217.82871
   318  H   1.0    0.06    1.10    1.44   259.48205   113.54418   218.93042
   319  H   1.0    0.05    1.09    1.44   257.41847   111.58265   219.69576
   320  N   5.0   -0.16    3.56    2.13   258.03452   117.80174   220.59527
   321  C   4.0    0.03    4.50    4.53   258.38979   119.46470   222.76089
   322  C   4.0    0.18    3.52    3.13   256.14101   121.22592   222.92719
   323  O   6.0   -0.30    1.23    1.80   254.96938   121.47158   224.92841
   324  C   4.0   -0.05    4.46    4.47   260.82375   121.03128   222.44720
   325  C   4.0   -0.03    4.31    4.22   263.29930   119.48737   222.36594
   326  C   4.0   -0.09    4.23    4.06   265.52728   121.19946   221.85005
   327  C   4.0   -0.08    4.24    4.07   263.66401   118.06819   224.82826
   328  H   1.0    0.11    1.14    1.45   259.29497   117.76772   219.57104
   329  H   1.0    0.05    1.12    1.45   258.53341   118.46125   224.28779
   330  H   1.0    0.06    1.09    1.44   260.69336   122.00827   220.90140
   331  H   1.0    0.05    1.09    1.44   260.92958   122.22936   223.83048
   332  H   1.0    0.06    1.13    1.45   263.18591   118.26661   221.00345
   333  H   1.0    0.04    1.06    1.44   267.06552   120.20358   221.80469
   334  H   1.0    0.04    1.06    1.44   265.29485   122.03661   220.23622
   335  H   1.0    0.04    1.06    1.44   265.65200   122.45613   223.17852
   336  H   1.0    0.05    1.06    1.44   265.22304   117.10632   224.75456
   337  H   1.0    0.04    1.06    1.44   263.74905   119.26249   226.21531
   338  H   1.0    0.05    1.06    1.44   262.25428   116.92679   225.09093
   339  N   5.0   -0.14    3.55    2.11   255.52307   122.43156   220.81826
   340  C   4.0    0.05    4.41    4.40   253.39146   124.16633   220.59149
   341  C   4.0    0.17    3.47    3.10   250.92537   122.80195   221.35872
   342  O   6.0   -0.29    1.33    1.80   249.62902   123.62587   223.13884
   343  C   4.0   -0.07    4.26    4.11   253.23273   125.09419   217.91753
   344  H   1.0    0.12    1.16    1.46   256.35644   122.25960   219.43498
   345  H   1.0    0.08    1.12    1.45   253.62957   125.60064   221.70832
   346  H   1.0    0.05    1.06    1.44   251.81921   126.24881   217.75312
   347  H   1.0    0.07    1.06    1.44   254.78608   125.96346   217.47911
   348  H   1.0    0.06    1.06    1.44   252.99084   123.66934   216.78936
   349  N   5.0   -0.15    3.51    2.09   250.32255   120.67790   220.11150
   350  C   4.0    0.04    4.44    4.44   248.08700   119.18880   220.68598
   351  C   4.0    0.17    3.50    3.11   247.68449   118.91290   223.53190
   352  O   6.0   -0.31    1.26    1.80   245.71351   119.64044   224.52779
   353  C   4.0   -0.08    4.23    4.05   248.27220   116.62633   219.38206
   354  H   1.0    0.13    1.17    1.46   251.22017   120.07130   218.90018
   355  H   1.0    0.05    1.13    1.45   246.61491   120.07130   220.04158
   356  H   1.0    0.04    1.06    1.44   246.77931   115.63422   219.76757
   357  H   1.0    0.05    1.06    1.44   248.39314   116.87010   217.56982
   358  H   1.0    0.06    1.06    1.44   249.76319   115.74193   219.97922
   359  N   5.0   -0.16    3.53    2.10   249.67437   118.05685   224.79424
   360  C   4.0    0.03    4.49    4.53   249.72539   117.73560   227.54001
   361  C   4.0    0.17    3.47    3.10   248.84289   120.15633   228.93274
   362  O   6.0   -0.32    1.31    1.80   247.58056   119.97114   230.83002
   363  C   4.0   -0.03    4.36    4.32   252.48061   117.03640   228.38850
   364  C   4.0   -0.08    4.23    4.06   252.68093   116.91923   231.25521
   365  C   4.0   -0.08    4.21    4.03   253.39524   114.60621   227.13183
   366  H   1.0    0.12    1.16    1.46   251.06521   117.63544   224.06859
   367  H   1.0    0.05    1.12    1.45   248.56510   116.38822   227.98221
   368  H   1.0    0.06    1.13    1.45   253.59933   118.37243   227.82158
   369  H   1.0    0.04    1.07    1.44   254.39680   116.48460   231.73142
   370  H   1.0    0.05    1.06    1.44   252.24440   118.55196   231.96575
   371  H   1.0    0.05    1.06    1.44   251.52819   115.64556   231.89772
   372  H   1.0    0.05    1.06    1.44   255.09789   114.23015   227.69497
   373  H   1.0    0.05    1.06    1.44   252.28219   113.22482   227.58914
   374  H   1.0    0.07    1.07    1.44   253.38768   114.81786   225.31202
   375  N   5.0   -0.15    3.56    2.12   249.38335   122.39188   227.90473
   376  C   4.0    0.03    4.49    4.52   248.57077   124.77671   229.07069
   377  C   4.0    0.17    3.49    3.11   245.69839   124.81451   229.32580
   378  O   6.0   -0.29    1.26    1.80   244.66093   125.39654   231.34781
   379  C   4.0   -0.04    4.40    4.38   249.41926   127.00659   227.51167
   380  C   4.0   -0.04    4.26    4.11   252.28786   127.54138   227.58348
   381  C   4.0    0.16    3.24    3.04   253.12312   129.72402   225.84682
   382  O   6.0   -0.28    1.20    1.80   251.62079   130.73124   224.35771
   383  N   5.0   -0.23    3.20    1.96   255.57599   130.48747   225.98288
   384  H   1.0    0.13    1.17    1.46   250.22239   122.57329   226.52523
   385  H   1.0    0.05    1.13    1.45   249.33800   124.89766   230.73176
   386  H   1.0    0.08    1.11    1.45   248.91848   126.72880   225.77123
   387  H   1.0    0.06    1.10    1.44   248.52920   128.49947   228.09370
   388  H   1.0    0.04    1.09    1.44   252.77730   127.93067   229.30691
   389  H   1.0    0.06    1.09    1.44   253.18926   126.02015   227.10160
   390  H   1.0    0.11    1.08    1.44   256.59455   129.76937   227.02601
   391  H   1.0    0.12    1.08    1.44   256.10700   131.68744   225.02479
   392  N   5.0   -0.14    3.55    2.12   244.37936   124.03027   227.33403
   393  C   4.0    0.05    4.51    4.56   241.63359   123.97169   227.34915
   394  C   4.0    0.16    3.44    3.09   240.58479   121.79095   228.90628
   395  O   6.0   -0.32    1.31    1.80   238.64215   122.08574   230.16673
   396  C   4.0   -0.04    4.39    4.37   240.56778   123.83941   224.65062
   397  C   4.0    0.16    3.31    3.05   241.48430   125.99748   222.99900
   398  O   6.0   -0.28    1.24    1.80   242.48019   127.86075   223.92686
   399  N   5.0   -0.25    3.23    1.96   241.07612   125.76126   220.53480
   400  H   1.0    0.12    1.15    1.45   245.05210   123.52005   225.94508
   401  H   1.0    0.08    1.14    1.45   241.09691   125.53638   228.13717
   402  H   1.0    0.05    1.09    1.44   241.05155   122.24448   223.88717
   403  H   1.0    0.04    1.09    1.44   238.73664   123.86587   224.72054
   404  H   1.0    0.11    1.09    1.44   241.51831   126.95179   219.52001
   405  H   1.0    0.10    1.09    1.44   240.36936   124.41767   219.95276
   406  N   5.0   -0.16    3.53    2.10   241.84524   119.60642   228.90628
   407  C   4.0    0.03    4.49    4.52   241.02132   117.35009   230.35948
   408  C   4.0    0.16    3.53    3.13   241.21218   118.07953   233.10337
   409  O   6.0   -0.32    1.25    1.80   239.56245   117.47292   234.63404
   410  C   4.0   -0.05    4.42    4.41   242.72396   115.06352   229.88516
   411  C   4.0   -0.06    4.32    4.24   241.79988   112.66924   231.18529
   412  C   4.0   -0.02    4.36    4.30   243.75764   110.57164   230.93774
   413  N   5.0   -0.17    3.49    2.07   244.54755   110.16535   228.32614
   414  C   4.0    0.11    3.51    3.12   243.04332   109.28096   226.55924
   415  N   5.0   -0.25    3.30    1.98   243.85780   109.02585   224.21976
   416  N   5.0   -0.25    3.35    2.00   240.66605   108.71404   227.12427
   417  H   1.0    0.12    1.14    1.45   243.21529   119.37210   228.06347
   418  H   1.0    0.05    1.12    1.45   239.32623   116.87010   229.85493
   419  H   1.0    0.05    1.09    1.44   242.83356   114.76117   228.08047
   420  H   1.0    0.05    1.10    1.44   244.41904   115.44714   230.46909
   421  H   1.0    0.05    1.09    1.44   241.47296   113.00939   232.95597
   422  H   1.0    0.04    1.09    1.44   240.21251   112.13067   230.44263
   423  H   1.0    0.04    1.10    1.44   245.22407   110.98927   231.95630
   424  H   1.0    0.04    1.09    1.44   243.06411   109.01451   231.61048
   425  H   1.0    0.09    1.14    1.45   246.08011   110.52440   227.92174
   426  H   1.0    0.10    1.09    1.44   245.38280   109.43970   223.83993
   427  H   1.0    0.10    1.09    1.44   242.86380   108.44570   223.07270
   428  H   1.0    0.10    1.11    1.44   240.11803   108.92569   228.63983
   429  H   1.0    0.10    1.09    1.44   239.67394   108.13390   225.97532
   430  N   5.0   -0.16    3.61    2.17   243.26820   119.39666   233.70052
   431  C   4.0    0.04    4.54    4.59   243.80866   120.29051   236.21952
   432  C   4.0    0.16    3.49    3.11   241.71863   122.10086   237.06423
   433  O   6.0   -0.32    1.26    1.80   240.70195   121.82307   239.14104
   434  C   4.0   -0.04    4.44    4.45   246.32956   121.68512   236.24031
   435  C   4.0   -0.01    3.58    3.15   248.54243   120.09775   237.12659
   436  C   4.0   -0.04    3.53    3.13   250.97639   120.95191   236.75243
   437  C   4.0   -0.05    3.54    3.13   248.19850   117.81118   238.37948
   438  C   4.0   -0.04    3.46    3.10   253.02864   119.54784   237.60469
   439  C   4.0   -0.05    3.43    3.09   250.28475   116.39767   239.26576
   440  C   4.0   -0.05    3.44    3.09   252.68471   117.30285   238.86703
   441  H   1.0    0.13    1.19    1.46   244.40771   119.79729   232.61393
   442  H   1.0    0.05    1.14    1.45   243.89370   118.85998   237.36092
   443  H   1.0    0.07    1.11    1.44   246.68105   122.29928   234.54901
   444  H   1.0    0.04    1.10    1.44   246.18405   123.15533   237.32501
   445  H   1.0    0.05    1.11    1.45   251.24662   122.47881   235.92473
   446  H   1.0    0.05    1.10    1.44   246.56955   117.20269   238.63837
   447  H   1.0    0.05    1.10    1.44   254.65947   120.13744   237.31556
   448  H   1.0    0.05    1.09    1.44   250.03531   114.87455   240.10669
   449  H   1.0    0.05    1.10    1.44   254.07365   116.39956   239.44906
   450  N   5.0   -0.16    3.54    2.11   241.05155   123.85453   235.39560
   451  C   4.0    0.03    4.51    4.55   239.04844   125.71024   235.90961
   452  C   4.0    0.16    3.51    3.12   236.53322   124.34586   236.34047
   453  O   6.0   -0.32    1.30    1.80   235.06868   125.08852   237.95618
   454  C   4.0   -0.04    4.43    4.43   238.70640   127.43556   233.60603
   455  C   4.0    0.16    3.31    3.06   240.83612   129.28749   233.29045
   456  O   6.0   -0.27    1.22    1.80   241.85847   129.61630   231.22876
   457  N   5.0   -0.25    3.26    1.97   241.45028   130.63864   235.31245
   458  H   1.0    0.12    1.15    1.45   241.73941   124.01138   233.93106
   459  H   1.0    0.05    1.12    1.45   239.51143   126.66644   237.40249
   460  H   1.0    0.07    1.10    1.44   238.57223   126.40566   232.09614
   461  H   1.0    0.05    1.10    1.44   237.12848   128.35397   233.77044
   462  H   1.0    0.11    1.09    1.44   242.59546   131.78760   235.20663
   463  H   1.0    0.10    1.09    1.44   240.70384   130.36463   236.72975
   464  N   5.0   -0.15    3.59    2.15   236.07779   122.40700   234.83624
   465  C   4.0    0.04    4.47    4.50   233.79500   120.92923   235.06112
   466  C   4.0    0.16    3.52    3.12   233.71186   119.78028   237.71619
   467  O   6.0   -0.30    1.24    1.80   231.77867   119.90500   238.98041
   468  C   4.0    0.02    4.25    4.10   233.79500   118.75983   233.10148
   469  O   6.0   -0.29    2.08    1.84   234.05768   119.71981   230.57869
   470  H   1.0    0.12    1.17    1.46   237.08502   121.91378   233.65894
   471  H   1.0    0.06    1.12    1.45   232.33992   122.00449   234.76443
   472  H   1.0    0.06    1.07    1.44   235.16695   117.59954   233.46619
   473  H   1.0    0.04    1.07    1.44   232.23598   117.80552   233.23943
   474  H   1.0    0.17    1.11    1.45   235.49009   120.38499   230.41051
   475  N   5.0   -0.16    3.55    2.11   235.81890   118.61999   238.44940
   476  C   4.0    0.04    4.41    4.40   236.02299   117.48993   240.95140
   477  C   4.0    0.17    3.47    3.10   235.44663   119.49682   242.96207
   478  O   6.0   -0.29    1.23    1.80   234.07279   118.99415   244.72896
   479  C   4.0   -0.08    4.18    3.96   238.72719   116.39011   241.36903
   480  H   1.0    0.12    1.15    1.45   237.14738   118.46881   237.52532
   481  H   1.0    0.05    1.12    1.45   234.81357   116.11988   241.08935
   482  H   1.0    0.04    1.05    1.44   238.83301   115.64556   243.04143
   483  H   1.0    0.04    1.05    1.44   239.06734   115.10510   240.10669
   484  H   1.0    0.06    1.05    1.44   239.96496   117.73371   241.21974
   485  N   5.0   -0.16    3.52    2.09   236.36881   121.80418   242.50475
   486  C   4.0    0.04    4.49    4.53   235.97764   123.92634   244.23007
   487  C   4.0    0.17    3.43    3.09   233.11848   124.62554   244.37180
   488  O   6.0   -0.30    1.20    1.80   232.16606   125.01860   246.44294
   489  C   4.0   -0.03    4.41    4.39   237.51965   126.38298   243.49308
   490  C   4.0   -0.06    4.35    4.29   240.33724   125.90110   243.59890
   491  C   4.0   -0.09    4.26    4.12   236.89982   128.53916   245.31288
   492  C   4.0   -0.09    4.17    3.94   241.95295   128.06106   242.79010
   493  H   1.0    0.12    1.15    1.45   237.23809   122.17834   241.18383
   494  H   1.0    0.05    1.12    1.45   236.59747   123.35186   245.85713
   495  H   1.0    0.06    1.12    1.45   237.04155   126.83841   241.78288
   496  H   1.0    0.04    1.10    1.44   240.78888   125.44568   245.31666
   497  H   1.0    0.06    1.11    1.45   240.72274   124.45546   242.54066
   498  H   1.0    0.03    1.06    1.44   237.85414   130.03015   244.84234
   499  H   1.0    0.05    1.06    1.44   235.10647   128.91144   245.23163
   500  H   1.0    0.04    1.06    1.44   237.34391   128.04405   247.02120
   501  H   1.0    0.04    1.06    1.44   243.71796   127.58674   242.91860
   502  H   1.0    0.04    1.06    1.44   241.56367   128.49947   241.05344
   503  H   1.0    0.03    1.06    1.44   241.62981   129.50481   243.87102
   504  N   5.0   -0.16    3.48    2.07   231.90717   124.73703   242.14759
   505  C   4.0    0.04    4.40    4.38   229.21431   125.33040   241.91705
   506  C   4.0    0.09    3.25    3.04   227.65151   123.15911   242.95640
   507  O   6.0   -0.31    1.12    1.80   225.59926   123.57107   243.93149
   508  C   4.0    0.05    4.31    4.21   228.47543   125.86142   239.10891
   509  O   6.0   -0.29    2.14    1.85   229.89839   127.94579   238.16216
   510  C   4.0   -0.08    4.18    3.97   225.66918   126.40566   238.75176
   511  H   1.0    0.13    1.16    1.46   232.64038   124.46680   240.72274
   512  H   1.0    0.06    1.12    1.45   228.87227   126.84785   242.88648
   513  H   1.0    0.05    1.11    1.45   228.85904   124.33074   238.17728
   514  H   1.0    0.16    1.08    1.44   231.40450   127.49792   237.92973
   515  H   1.0    0.04    1.05    1.44   225.32714   126.71935   236.97919
   516  H   1.0    0.05    1.06    1.44   224.69031   124.96380   239.31678
   517  H   1.0    0.04    1.06    1.44   225.20242   127.88153   239.73252
   518  H   1.0    0.09    1.07    1.44   254.18726   119.73346   248.14331
   519  H   1.0    0.04    1.04    1.44   252.50944   125.11624   245.25892
   520  H   1.0    0.08    1.08    1.44   260.42333   123.31774   243.23059
   521  H   1.0    0.06    1.04    1.44   258.96737   129.51640   237.31471
   522  H   1.0    0.10    1.07    1.44   263.71252   124.60215   232.27189
   523  H   1.0    0.05    1.04    1.43   266.15490   132.86878   229.31117
   524  H   1.0    0.09    1.07    1.44   271.11141   129.67552   228.53002
   525  H   1.0    0.07    1.04    1.44   268.19919   133.35330   221.03555
   526  H   1.0    0.09    1.08    1.44   275.95687   130.71237   217.92477
   527  H   1.0    0.06    1.05    1.44   272.41176   133.67117   213.31491
   528  H   1.0    0.09    1.08    1.44   258.25372   108.15577   242.29222
   529  H   1.0    0.04    1.05    1.44   253.42790   108.79473   247.64570
   530  H   1.0    0.10    1.09    1.44   248.62522   109.96953   248.32484
   531  H   1.0    0.04    1.05    1.44   242.70983   107.99296   250.70275
   532  H   1.0    0.09    1.09    1.44   247.18546   106.10009   240.84244
   533  H   1.0    0.04    1.04    1.43   273.85546   111.09982   222.96615
   534  H   1.0    0.10    1.08    1.44   267.89745   121.49426   206.05449
   535  H   1.0    0.07    1.05    1.44   228.30150   121.38829   242.84347

  Z AO/shell   Hii/eV     exponent
  1     Wed Apr 25 08:07:45 CEST 2018   EN: 2.200 GM2: 0.406  GM3: 0.0800  RAES: 1.40
     1s    -10.707211    1.230000
  6     Wed Apr 25 08:07:45 CEST 2018   EN: 2.550 GM2: 0.538  GM3: 0.1500  RAES: 3.00
     2s    -13.970922    2.096432
     2p    -10.063292    1.800000
  7     Wed Apr 25 08:07:45 CEST 2018   EN: 3.040 GM2: 0.461  GM3:-0.0640  RAES: 1.90
     2s    -16.686243    2.339881
     2p    -12.523956    2.014332
  8     Wed Apr 25 08:07:45 CEST 2018   EN: 3.440 GM2: 0.452  GM3:-0.0517  RAES: 1.80
     2s    -20.229985    2.439742
     2p    -15.503117    2.137023
 no old-style atom pair restraining (fixing) potential

molecular fragmentation (1/2 indicates fragments):
111111111122222222222222222222222222222222222222222222222222222222222222
222222222222222222222222222222222222222222222222222222222222222222222222
222222222222222222222222222222222222222222222222222222222222222222222222
222222222222222222222222222222222222222222222222222222222222222222222222
222222222222222222222222222222222222222222222222222222222222222222222222
222222222222222222222222222222222222222222222222222222222222222222222222
222222222222222222222222222222222222222222222222222222222222222222222222
2222222222222112222222222222222
# atoms in fragment 1/2:    12   523
 fragment masses (1/2) :       73.09     3582.12
CMA distance (Bohr)    :  17.775
constraining FC (au)   :  0.0500
           ------------------------------------------------- 
          |        Self-Consistent Charge Iterations        |
           ------------------------------------------------- 

 Ncao       : 1303
 Nao        : 1303
 Nshell     : 791
 Nel        : 1456
 T(el)      :   500.0
 intcut     :    35.0
 scfconv/Eh :  0.100E-06
   qconv/e  :  0.100E-04
 intneglect :  0.100E-08
 broydamp   :      0.400
 iter      E             dE          RMSdq      gap      omega  full diag
   1   -839.8052548 -0.839805E+03  0.470E+00    3.16       0.0  T
   2   -842.0224509 -0.221720E+01  0.217E+00    1.74       1.0  T
   3   -842.1486961 -0.126245E+00  0.127E+00    1.92       1.0  T
   4   -842.2737044 -0.125008E+00  0.245E-01    1.05       1.0  T
   5   -842.2830781 -0.937376E-02  0.122E-01    1.20       1.0  T
   6   -842.2840610 -0.982819E-03  0.544E-02    1.21       1.0  T
   7   -842.2844091 -0.348185E-03  0.214E-02    1.23       1.0  T
   8   -842.2844453 -0.361862E-04  0.107E-02    1.23       1.0  T
   9   -842.2844576 -0.122845E-04  0.478E-03    1.23       1.0  T
  10   -842.2844601 -0.248429E-05  0.218E-03    1.23       2.0  T
  11   -842.2844607 -0.620897E-06  0.960E-04    1.23       4.5  T
  12   -842.2844608 -0.972549E-07  0.456E-04    1.23       9.5  T
  13   -842.2844608 -0.224933E-07  0.194E-04    1.23      22.2  T
  14   -842.2844608 -0.411228E-08  0.775E-05    1.23      55.8  T
  15   -842.2844608 -0.551495E-09  0.318E-05    1.23     136.1  T
speedup  1.00
cpu  time for SCC   12.48 s
wall time for SCC   12.48 s

   *** convergence criteria satisfied after 15 iterations ***

          eigenvalues
 #    :         716        717        718        719        720        721        722        723
 occ. :        2.000      2.000      2.000      2.000      2.000      2.000      2.000      2.000
 eps  :       -10.096    -10.096    -10.076    -10.052    -10.001     -9.963     -9.886     -9.874
 #    :         724        725        726        727        728        729        730        731
 occ. :        2.000      2.000      2.000      2.000      2.000      0.000      0.000      0.000
 eps  :        -9.779     -9.768     -9.690     -9.578     -9.554     -8.327     -8.159     -7.914
 #    :         732        733        734        735        736        737        738        739
 occ. :        0.000      0.000      0.000      0.000      0.000      0.000      0.000      0.000
 eps  :        -7.752     -7.714     -7.688     -7.625     -7.507     -7.396     -7.031     -6.869


   #   Z            q   n(s)   n(p)   n(d)      C6AA      α(0)
   1   7 N     -0.418  1.286  4.132  0.000    30.882     8.253
   2   6 C      0.026  1.037  2.938  0.000    20.162     6.396
   3   6 C      0.190  1.098  2.712  0.000    23.938     8.013
   4   8 O     -0.372  1.750  4.622  0.000    21.126     6.162
   5   6 C     -0.156  0.983  3.172  0.000    23.550     6.916
   6   1 H      0.197  0.803  0.000  0.000     1.122     1.659
   7   1 H      0.063  0.937  0.000  0.000     2.167     2.302
   8   1 H      0.068  0.932  0.000  0.000     2.103     2.268
   9   1 H      0.074  0.926  0.000  0.000     2.041     2.234
  10   1 H      0.078  0.922  0.000  0.000     1.998     2.210
  11   7 N     -0.416  1.281  4.135  0.000    30.815     8.244
  12   6 C     -0.027  0.998  3.029  0.000    21.115     6.553
  13   6 C      0.271  1.042  2.687  0.000    22.415     7.753
  14   8 O     -0.514  1.751  4.763  0.000    24.090     6.581
  15   1 H      0.183  0.817  0.000  0.000     1.194     1.711
  16   1 H      0.063  0.937  0.000  0.000     2.165     2.301
  17   1 H      0.070  0.930  0.000  0.000     2.082     2.256
  18   7 N     -0.191  1.216  3.976  0.000    25.148     7.448
  19   6 C      0.009  1.044  2.947  0.000    20.421     6.434
  20   6 C      0.207  1.088  2.704  0.000    23.601     7.956
  21   8 O     -0.368  1.742  4.626  0.000    21.047     6.151
  22   6 C     -0.040  1.045  2.995  0.000    21.251     6.556
  23   6 C     -0.095  1.007  3.088  0.000    22.299     6.720
  24   6 C     -0.152  0.978  3.174  0.000    23.457     6.901
  25   6 C     -0.154  0.976  3.178  0.000    23.511     6.910
  26   1 H      0.246  0.754  0.000  0.000     0.900     1.486
  27   1 H      0.083  0.917  0.000  0.000     1.952     2.185
  28   1 H      0.078  0.922  0.000  0.000     1.998     2.210
  29   1 H      0.049  0.951  0.000  0.000     2.332     2.388
  30   1 H      0.071  0.929  0.000  0.000     2.075     2.253
  31   1 H      0.082  0.918  0.000  0.000     1.957     2.188
  32   1 H      0.051  0.949  0.000  0.000     2.311     2.377
  33   1 H      0.048  0.952  0.000  0.000     2.344     2.394
  34   1 H      0.057  0.943  0.000  0.000     2.228     2.334
  35   1 H      0.067  0.933  0.000  0.000     2.115     2.274
  36   1 H      0.062  0.938  0.000  0.000     2.178     2.307
  37   7 N     -0.425  1.285  4.140  0.000    31.065     8.278
  38   6 C      0.032  1.030  2.939  0.000    20.049     6.376
  39   6 C      0.264  1.050  2.687  0.000    22.553     7.777
  40   8 O     -0.510  1.751  4.759  0.000    23.999     6.568
  41   6 C     -0.146  0.977  3.170  0.000    23.356     6.886
  42   1 H      0.197  0.803  0.000  0.000     1.122     1.659
  43   1 H      0.043  0.957  0.000  0.000     2.414     2.430
  44   1 H      0.048  0.952  0.000  0.000     2.339     2.391
  45   1 H      0.065  0.935  0.000  0.000     2.141     2.288
  46   1 H      0.067  0.933  0.000  0.000     2.119     2.276
  47   7 N     -0.186  1.210  3.976  0.000    25.035     7.431
  48   6 C      0.017  1.037  2.946  0.000    20.287     6.413
  49   6 C      0.196  1.088  2.716  0.000    23.823     7.994
  50   8 O     -0.362  1.762  4.600  0.000    20.934     6.134
  51   6 C     -0.091  1.012  3.079  0.000    22.211     6.707
  52   6 C     -0.129  1.014  3.115  0.000    22.964     6.820
  53   6 C      0.281  1.037  2.682  0.000    22.234     7.721
  54   8 O     -0.506  1.762  4.744  0.000    23.920     6.557
  55   7 N     -0.296  1.200  4.096  0.000    27.625     7.806
  56   1 H      0.241  0.759  0.000  0.000     0.918     1.501
  57   1 H      0.093  0.907  0.000  0.000     1.854     2.129
  58   1 H      0.091  0.909  0.000  0.000     1.865     2.136
  59   1 H      0.093  0.907  0.000  0.000     1.852     2.128
  60   1 H      0.072  0.928  0.000  0.000     2.058     2.243
  61   1 H      0.097  0.903  0.000  0.000     1.814     2.106
  62   1 H      0.239  0.761  0.000  0.000     0.927     1.508
  63   1 H      0.250  0.750  0.000  0.000     0.885     1.473
  64   7 N     -0.418  1.285  4.134  0.000    30.891     8.255
  65   6 C      0.005  1.047  2.948  0.000    20.512     6.451
  66   6 C      0.259  1.055  2.685  0.000    22.630     7.789
  67   8 O     -0.491  1.743  4.748  0.000    23.593     6.512
  68   6 C      0.101  1.029  2.869  0.000    19.006     6.225
  69   8 O     -0.494  1.687  4.808  0.000    22.774     6.442
  70   6 C     -0.160  0.979  3.181  0.000    23.640     6.929
  71   1 H      0.172  0.828  0.000  0.000     1.259     1.757
  72   1 H      0.079  0.921  0.000  0.000     1.986     2.203
  73   1 H      0.032  0.968  0.000  0.000     2.559     2.501
  74   1 H      0.321  0.679  0.000  0.000     0.662     1.277
  75   1 H      0.075  0.925  0.000  0.000     2.030     2.228
  76   1 H      0.060  0.940  0.000  0.000     2.193     2.316
  77   1 H      0.083  0.917  0.000  0.000     1.944     2.180
  78   7 N     -0.190  1.219  3.971  0.000    25.111     7.442
  79   6 C      0.026  1.039  2.935  0.000    20.138     6.390
  80   6 C      0.198  1.087  2.715  0.000    23.773     7.986
  81   8 O     -0.372  1.754  4.618  0.000    21.122     6.162
  82   6 C     -0.067  1.003  3.064  0.000    21.765     6.638
  83   6 C     -0.108  1.008  3.100  0.000    22.547     6.758
  84   6 C      0.373  1.014  2.613  0.000    20.678     7.442
  85   8 O     -0.657  1.767  4.890  0.000    27.557     7.038
  86   8 O     -0.646  1.769  4.877  0.000    27.285     7.003
  87   1 H      0.223  0.777  0.000  0.000     0.998     1.565
  88   1 H      0.093  0.907  0.000  0.000     1.852     2.128
  89   1 H      0.069  0.931  0.000  0.000     2.091     2.261
  90   1 H      0.069  0.931  0.000  0.000     2.098     2.265
  91   1 H      0.038  0.962  0.000  0.000     2.475     2.460
  92   1 H      0.048  0.952  0.000  0.000     2.341     2.393
  93   7 N     -0.422  1.283  4.139  0.000    31.004     8.270
  94   6 C      0.026  1.031  2.943  0.000    20.150     6.393
  95   6 C      0.199  1.089  2.712  0.000    23.751     7.981
  96   8 O     -0.379  1.749  4.631  0.000    21.274     6.184
  97   6 C     -0.091  1.010  3.080  0.000    22.208     6.706
  98   6 C     -0.025  1.032  2.993  0.000    20.977     6.514
  99   6 C     -0.148  0.977  3.171  0.000    23.384     6.890
 100   6 C     -0.158  0.981  3.177  0.000    23.588     6.921
 101   1 H      0.188  0.812  0.000  0.000     1.168     1.693
 102   1 H      0.073  0.927  0.000  0.000     2.053     2.241
 103   1 H      0.059  0.941  0.000  0.000     2.215     2.327
 104   1 H      0.057  0.943  0.000  0.000     2.229     2.335
 105   1 H      0.055  0.945  0.000  0.000     2.254     2.347
 106   1 H      0.054  0.946  0.000  0.000     2.267     2.354
 107   1 H      0.036  0.964  0.000  0.000     2.503     2.474
 108   1 H      0.052  0.948  0.000  0.000     2.299     2.371
 109   1 H      0.057  0.943  0.000  0.000     2.236     2.338
 110   1 H      0.056  0.944  0.000  0.000     2.247     2.344
 111   1 H      0.055  0.945  0.000  0.000     2.254     2.348
 112   7 N     -0.413  1.291  4.122  0.000    30.736     8.234
 113   6 C      0.028  1.030  2.941  0.000    20.097     6.383
 114   6 C      0.200  1.088  2.712  0.000    23.743     7.980
 115   8 O     -0.373  1.755  4.618  0.000    21.144     6.165
 116   6 C     -0.033  1.035  2.998  0.000    21.120     6.535
 117   6 C     -0.081  1.004  3.078  0.000    22.037     6.681
 118   6 C     -0.152  0.975  3.176  0.000    23.456     6.900
 119   6 C     -0.149  0.973  3.176  0.000    23.424     6.898
 120   1 H      0.171  0.829  0.000  0.000     1.265     1.762
 121   1 H      0.072  0.928  0.000  0.000     2.058     2.243
 122   1 H      0.068  0.932  0.000  0.000     2.104     2.268
 123   1 H      0.031  0.969  0.000  0.000     2.576     2.510
 124   1 H      0.055  0.945  0.000  0.000     2.256     2.349
 125   1 H      0.067  0.933  0.000  0.000     2.122     2.278
 126   1 H      0.049  0.951  0.000  0.000     2.327     2.386
 127   1 H      0.060  0.940  0.000  0.000     2.197     2.318
 128   1 H      0.050  0.950  0.000  0.000     2.318     2.381
 129   1 H      0.065  0.935  0.000  0.000     2.144     2.289
 130   1 H      0.043  0.957  0.000  0.000     2.402     2.424
 131   7 N     -0.413  1.284  4.129  0.000    30.736     8.234
 132   6 C      0.016  1.040  2.944  0.000    20.309     6.418
 133   6 C      0.206  1.080  2.714  0.000    23.634     7.962
 134   8 O     -0.382  1.750  4.632  0.000    21.334     6.193
 135   6 C     -0.031  1.042  2.989  0.000    21.087     6.531
 136   6 C     -0.146  0.977  3.169  0.000    23.347     6.886
 137   6 C     -0.149  0.974  3.175  0.000    23.414     6.895
 138   1 H      0.177  0.823  0.000  0.000     1.229     1.736
 139   1 H      0.087  0.913  0.000  0.000     1.908     2.160
 140   1 H      0.058  0.942  0.000  0.000     2.221     2.330
 141   1 H      0.066  0.934  0.000  0.000     2.128     2.281
 142   1 H      0.054  0.946  0.000  0.000     2.265     2.353
 143   1 H      0.050  0.950  0.000  0.000     2.317     2.380
 144   1 H      0.071  0.929  0.000  0.000     2.072     2.251
 145   1 H      0.052  0.948  0.000  0.000     2.296     2.370
 146   1 H      0.045  0.955  0.000  0.000     2.379     2.412
 147   7 N     -0.430  1.303  4.127  0.000    31.218     8.298
 148   6 C      0.027  1.031  2.942  0.000    20.112     6.385
 149   6 C      0.285  1.042  2.673  0.000    22.169     7.711
 150   8 O     -0.490  1.730  4.759  0.000    23.556     6.507
 151   6 C     -0.042  1.042  3.000  0.000    21.287     6.561
 152   6 C     -0.094  1.004  3.090  0.000    22.287     6.719
 153   6 C     -0.155  0.977  3.178  0.000    23.526     6.912
 154   6 C     -0.152  0.976  3.177  0.000    23.480     6.906
 155   1 H      0.194  0.806  0.000  0.000     1.139     1.672
 156   1 H      0.042  0.958  0.000  0.000     2.416     2.431
 157   1 H      0.063  0.937  0.000  0.000     2.165     2.301
 158   1 H      0.057  0.943  0.000  0.000     2.237     2.339
 159   1 H      0.054  0.946  0.000  0.000     2.265     2.354
 160   1 H      0.074  0.926  0.000  0.000     2.038     2.232
 161   1 H      0.031  0.969  0.000  0.000     2.571     2.507
 162   1 H      0.053  0.947  0.000  0.000     2.282     2.362
 163   1 H      0.063  0.937  0.000  0.000     2.168     2.302
 164   1 H      0.056  0.944  0.000  0.000     2.244     2.342
 165   1 H      0.056  0.944  0.000  0.000     2.247     2.344
 166   7 N     -0.193  1.215  3.978  0.000    25.188     7.454
 167   6 C      0.037  1.029  2.934  0.000    19.945     6.358
 168   6 C      0.265  1.049  2.686  0.000    22.534     7.773
 169   8 O     -0.509  1.754  4.755  0.000    23.984     6.566
 170   6 C     -0.110  1.015  3.095  0.000    22.582     6.763
 171   6 C      0.373  1.020  2.607  0.000    20.676     7.441
 172   8 O     -0.624  1.766  4.859  0.000    26.723     6.931
 173   8 O     -0.644  1.768  4.876  0.000    27.216     6.994
 174   1 H      0.200  0.800  0.000  0.000     1.104     1.645
 175   1 H      0.069  0.931  0.000  0.000     2.092     2.261
 176   1 H      0.039  0.961  0.000  0.000     2.460     2.452
 177   1 H      0.035  0.965  0.000  0.000     2.511     2.478
 178   7 N     -0.182  1.208  3.974  0.000    24.949     7.418
 179   6 C      0.016  1.040  2.944  0.000    20.314     6.417
 180   6 C      0.276  1.043  2.681  0.000    22.336     7.739
 181   8 O     -0.499  1.750  4.749  0.000    23.771     6.537
 182   6 C     -0.036  1.040  2.996  0.000    21.181     6.545
 183   6 C     -0.088  1.002  3.086  0.000    22.154     6.699
 184   6 C     -0.150  0.973  3.177  0.000    23.436     6.898
 185   6 C     -0.148  0.974  3.174  0.000    23.391     6.893
 186   1 H      0.216  0.784  0.000  0.000     1.030     1.589
 187   1 H      0.072  0.928  0.000  0.000     2.061     2.245
 188   1 H      0.067  0.933  0.000  0.000     2.117     2.275
 189   1 H      0.053  0.947  0.000  0.000     2.280     2.361
 190   1 H      0.054  0.946  0.000  0.000     2.270     2.356
 191   1 H      0.092  0.908  0.000  0.000     1.857     2.131
 192   1 H      0.045  0.955  0.000  0.000     2.388     2.416
 193   1 H      0.044  0.956  0.000  0.000     2.397     2.421
 194   1 H      0.069  0.931  0.000  0.000     2.095     2.263
 195   1 H      0.063  0.937  0.000  0.000     2.168     2.302
 196   1 H      0.056  0.944  0.000  0.000     2.240     2.340
 197   7 N     -0.201  1.214  3.987  0.000    25.358     7.479
 198   6 C      0.034  1.029  2.937  0.000    20.002     6.367
 199   6 C      0.261  1.045  2.694  0.000    22.602     7.786
 200   8 O     -0.491  1.743  4.748  0.000    23.594     6.512
 201   6 C     -0.102  1.011  3.091  0.000    22.420     6.738
 202   6 C      0.374  1.019  2.607  0.000    20.664     7.439
 203   8 O     -0.656  1.775  4.880  0.000    27.529     7.035
 204   8 O     -0.649  1.770  4.879  0.000    27.363     7.013
 205   1 H      0.205  0.795  0.000  0.000     1.082     1.630
 206   1 H      0.075  0.925  0.000  0.000     2.032     2.229
 207   1 H      0.040  0.960  0.000  0.000     2.455     2.450
 208   1 H      0.049  0.951  0.000  0.000     2.331     2.387
 209   7 N     -0.167  1.199  3.968  0.000    24.609     7.368
 210   6 C      0.016  1.031  2.953  0.000    20.301     6.414
 211   6 C      0.190  1.089  2.720  0.000    23.926     8.011
 212   8 O     -0.370  1.765  4.605  0.000    21.097     6.158
 213   6 C     -0.098  1.013  3.085  0.000    22.353     6.727
 214   6 C     -0.026  1.027  2.999  0.000    20.999     6.517
 215   6 C     -0.158  0.981  3.177  0.000    23.593     6.922
 216   6 C     -0.158  0.976  3.181  0.000    23.571     6.916
 217   1 H      0.217  0.783  0.000  0.000     1.023     1.584
 218   1 H      0.110  0.890  0.000  0.000     1.693     2.035
 219   1 H      0.073  0.927  0.000  0.000     2.049     2.238
 220   1 H      0.093  0.907  0.000  0.000     1.845     2.124
 221   1 H      0.039  0.961  0.000  0.000     2.466     2.456
 222   1 H      0.065  0.935  0.000  0.000     2.142     2.288
 223   1 H      0.058  0.942  0.000  0.000     2.225     2.333
 224   1 H      0.071  0.929  0.000  0.000     2.075     2.252
 225   1 H      0.060  0.940  0.000  0.000     2.197     2.318
 226   1 H      0.072  0.928  0.000  0.000     2.059     2.244
 227   1 H      0.041  0.959  0.000  0.000     2.435     2.440
 228   7 N     -0.422  1.272  4.150  0.000    30.992     8.268
 229   6 C      0.033  1.027  2.940  0.000    20.027     6.373
 230   6 C      0.261  1.049  2.690  0.000    22.607     7.786
 231   8 O     -0.517  1.752  4.764  0.000    24.161     6.590
 232   6 C     -0.117  1.020  3.096  0.000    22.714     6.783
 233   6 C      0.365  1.022  2.613  0.000    20.815     7.466
 234   8 O     -0.640  1.769  4.871  0.000    27.129     6.983
 235   8 O     -0.642  1.769  4.873  0.000    27.164     6.988
 236   1 H      0.193  0.807  0.000  0.000     1.142     1.674
 237   1 H      0.054  0.946  0.000  0.000     2.275     2.359
 238   1 H      0.048  0.952  0.000  0.000     2.345     2.395
 239   1 H      0.037  0.963  0.000  0.000     2.490     2.468
 240   7 N     -0.196  1.212  3.984  0.000    25.253     7.463
 241   6 C      0.001  1.048  2.950  0.000    20.565     6.457
 242   6 C      0.287  1.039  2.673  0.000    22.130     7.704
 243   8 O     -0.509  1.787  4.723  0.000    23.992     6.567
 244   6 C      0.107  1.022  2.871  0.000    18.908     6.207
 245   8 O     -0.515  1.699  4.816  0.000    23.215     6.504
 246   6 C     -0.173  0.978  3.195  0.000    23.909     6.968
 247   1 H      0.232  0.768  0.000  0.000     0.957     1.532
 248   1 H      0.104  0.896  0.000  0.000     1.747     2.067
 249   1 H      0.072  0.928  0.000  0.000     2.061     2.245
 250   1 H      0.357  0.643  0.000  0.000     0.572     1.187
 251   1 H      0.090  0.910  0.000  0.000     1.879     2.143
 252   1 H      0.078  0.922  0.000  0.000     2.002     2.212
 253   1 H      0.056  0.944  0.000  0.000     2.248     2.345
 254   7 N     -0.195  1.204  3.991  0.000    25.237     7.461
 255   6 C      0.016  1.041  2.943  0.000    20.301     6.415
 256   6 C      0.277  1.047  2.676  0.000    22.319     7.736
 257   8 O     -0.517  1.767  4.750  0.000    24.154     6.589
 258   6 C     -0.108  1.020  3.087  0.000    22.536     6.756
 259   6 C     -0.029  1.030  2.998  0.000    21.048     6.525
 260   6 C     -0.162  0.982  3.180  0.000    23.660     6.930
 261   6 C     -0.147  0.972  3.175  0.000    23.357     6.886
 262   1 H      0.230  0.770  0.000  0.000     0.966     1.540
 263   1 H      0.082  0.918  0.000  0.000     1.962     2.190
 264   1 H      0.079  0.921  0.000  0.000     1.991     2.206
 265   1 H      0.068  0.932  0.000  0.000     2.112     2.272
 266   1 H      0.062  0.938  0.000  0.000     2.175     2.306
 267   1 H      0.074  0.926  0.000  0.000     2.046     2.237
 268   1 H      0.072  0.928  0.000  0.000     2.062     2.246
 269   1 H      0.057  0.943  0.000  0.000     2.229     2.335
 270   1 H      0.071  0.929  0.000  0.000     2.078     2.254
 271   1 H      0.042  0.958  0.000  0.000     2.426     2.435
 272   1 H      0.032  0.968  0.000  0.000     2.558     2.501
 273   7 N     -0.202  1.212  3.989  0.000    25.384     7.483
 274   6 C      0.017  1.035  2.947  0.000    20.284     6.413
 275   6 C      0.279  1.039  2.681  0.000    22.271     7.729
 276   8 O     -0.515  1.754  4.761  0.000    24.129     6.586
 277   6 C     -0.111  1.014  3.097  0.000    22.594     6.764
 278   6 C     -0.095  1.009  3.086  0.000    22.302     6.723
 279   6 C     -0.042  1.006  3.035  0.000    21.381     6.594
 280   7 N     -0.148  1.174  3.975  0.000    24.203     7.307
 281   6 C      0.228  1.020  2.752  0.000    23.213     7.888
 282   7 N     -0.250  1.168  4.082  0.000    26.508     7.647
 283   7 N     -0.268  1.174  4.094  0.000    26.934     7.708
 284   1 H      0.225  0.775  0.000  0.000     0.988     1.557
 285   1 H      0.090  0.910  0.000  0.000     1.882     2.145
 286   1 H      0.089  0.911  0.000  0.000     1.891     2.150
 287   1 H      0.086  0.914  0.000  0.000     1.914     2.163
 288   1 H      0.070  0.930  0.000  0.000     2.082     2.256
 289   1 H      0.082  0.918  0.000  0.000     1.953     2.185
 290   1 H      0.098  0.902  0.000  0.000     1.803     2.100
 291   1 H      0.109  0.891  0.000  0.000     1.705     2.042
 292   1 H      0.231  0.769  0.000  0.000     0.962     1.536
 293   1 H      0.247  0.753  0.000  0.000     0.896     1.483
 294   1 H      0.263  0.737  0.000  0.000     0.835     1.431
 295   1 H      0.246  0.754  0.000  0.000     0.899     1.485
 296   1 H      0.263  0.737  0.000  0.000     0.833     1.430
 297   7 N     -0.191  1.209  3.982  0.000    25.146     7.448
 298   6 C      0.004  1.039  2.958  0.000    20.519     6.449
 299   6 C      0.274  1.039  2.687  0.000    22.369     7.745
 300   8 O     -0.498  1.734  4.764  0.000    23.731     6.531
 301   6 C      0.046  1.002  2.952  0.000    19.985     6.399
 302   8 O     -0.458  1.666  4.792  0.000    22.013     6.334
 303   1 H      0.241  0.759  0.000  0.000     0.918     1.501
 304   1 H      0.108  0.892  0.000  0.000     1.710     2.045
 305   1 H      0.076  0.924  0.000  0.000     2.022     2.223
 306   1 H      0.108  0.892  0.000  0.000     1.713     2.047
 307   1 H      0.297  0.703  0.000  0.000     0.728     1.340
 308   7 N     -0.185  1.212  3.974  0.000    25.011     7.428
 309   6 C      0.040  1.032  2.928  0.000    19.907     6.352
 310   6 C      0.278  1.037  2.684  0.000    22.288     7.731
 311   8 O     -0.479  1.718  4.761  0.000    23.330     6.476
 312   6 C     -0.109  1.015  3.094  0.000    22.567     6.760
 313   6 C      0.376  1.018  2.606  0.000    20.627     7.433
 314   8 O     -0.646  1.766  4.879  0.000    27.265     7.001
 315   8 O     -0.640  1.769  4.871  0.000    27.118     6.982
 316   1 H      0.199  0.801  0.000  0.000     1.111     1.651
 317   1 H      0.079  0.921  0.000  0.000     1.985     2.203
 318   1 H      0.048  0.952  0.000  0.000     2.339     2.392
 319   1 H      0.040  0.960  0.000  0.000     2.444     2.445
 320   7 N     -0.203  1.213  3.989  0.000    25.402     7.485
 321   6 C      0.027  1.036  2.937  0.000    20.123     6.387
 322   6 C      0.287  1.037  2.676  0.000    22.138     7.705
 323   8 O     -0.506  1.735  4.771  0.000    23.911     6.556
 324   6 C     -0.090  1.013  3.077  0.000    22.200     6.705
 325   6 C     -0.022  1.029  2.993  0.000    20.932     6.507
 326   6 C     -0.148  0.977  3.172  0.000    23.396     6.892
 327   6 C     -0.149  0.976  3.173  0.000    23.410     6.894
 328   1 H      0.207  0.793  0.000  0.000     1.071     1.621
 329   1 H      0.075  0.925  0.000  0.000     2.031     2.228
 330   1 H      0.059  0.941  0.000  0.000     2.209     2.324
 331   1 H      0.073  0.927  0.000  0.000     2.053     2.240
 332   1 H      0.031  0.969  0.000  0.000     2.568     2.506
 333   1 H      0.073  0.927  0.000  0.000     2.057     2.242
 334   1 H      0.047  0.953  0.000  0.000     2.357     2.401
 335   1 H      0.059  0.941  0.000  0.000     2.205     2.322
 336   1 H      0.066  0.934  0.000  0.000     2.127     2.280
 337   1 H      0.063  0.937  0.000  0.000     2.169     2.303
 338   1 H      0.033  0.967  0.000  0.000     2.544     2.494
 339   7 N     -0.185  1.213  3.972  0.000    25.011     7.428
 340   6 C      0.039  1.030  2.931  0.000    19.929     6.357
 341   6 C      0.263  1.056  2.681  0.000    22.570     7.779
 342   8 O     -0.496  1.744  4.752  0.000    23.699     6.527
 343   6 C     -0.156  0.976  3.180  0.000    23.548     6.914
 344   1 H      0.216  0.784  0.000  0.000     1.026     1.587
 345   1 H      0.085  0.915  0.000  0.000     1.932     2.173
 346   1 H      0.085  0.915  0.000  0.000     1.925     2.170
 347   1 H      0.075  0.925  0.000  0.000     2.034     2.230
 348   1 H      0.068  0.932  0.000  0.000     2.102     2.267
 349   7 N     -0.190  1.218  3.973  0.000    25.131     7.445
 350   6 C      0.012  1.037  2.951  0.000    20.381     6.428
 351   6 C      0.271  1.042  2.687  0.000    22.415     7.753
 352   8 O     -0.489  1.726  4.762  0.000    23.533     6.504
 353   6 C     -0.168  0.983  3.185  0.000    23.797     6.952
 354   1 H      0.229  0.771  0.000  0.000     0.971     1.543
 355   1 H      0.101  0.899  0.000  0.000     1.775     2.083
 356   1 H      0.099  0.901  0.000  0.000     1.792     2.093
 357   1 H      0.083  0.917  0.000  0.000     1.951     2.184
 358   1 H      0.064  0.936  0.000  0.000     2.150     2.293
 359   7 N     -0.188  1.213  3.975  0.000    25.069     7.436
 360   6 C     -0.002  1.055  2.948  0.000    20.631     6.469
 361   6 C      0.273  1.043  2.684  0.000    22.390     7.748
 362   8 O     -0.475  1.713  4.762  0.000    23.235     6.463
 363   6 C     -0.033  1.041  2.992  0.000    21.132     6.538
 364   6 C     -0.155  0.979  3.176  0.000    23.540     6.914
 365   6 C     -0.149  0.976  3.173  0.000    23.405     6.895
 366   1 H      0.215  0.785  0.000  0.000     1.035     1.593
 367   1 H      0.097  0.903  0.000  0.000     1.811     2.104
 368   1 H      0.063  0.937  0.000  0.000     2.161     2.299
 369   1 H      0.067  0.933  0.000  0.000     2.120     2.277
 370   1 H      0.065  0.935  0.000  0.000     2.139     2.287
 371   1 H      0.068  0.932  0.000  0.000     2.103     2.268
 372   1 H      0.039  0.961  0.000  0.000     2.458     2.451
 373   1 H      0.065  0.935  0.000  0.000     2.143     2.289
 374   1 H      0.052  0.948  0.000  0.000     2.299     2.371
 375   7 N     -0.192  1.218  3.974  0.000    25.158     7.449
 376   6 C      0.021  1.037  2.942  0.000    20.225     6.403
 377   6 C      0.273  1.043  2.684  0.000    22.389     7.749
 378   8 O     -0.482  1.737  4.745  0.000    23.394     6.485
 379   6 C     -0.090  1.005  3.085  0.000    22.202     6.706
 380   6 C     -0.116  1.013  3.103  0.000    22.707     6.783
 381   6 C      0.283  1.050  2.667  0.000    22.209     7.716
 382   8 O     -0.496  1.759  4.737  0.000    23.694     6.526
 383   7 N     -0.291  1.188  4.102  0.000    27.501     7.788
 384   1 H      0.220  0.780  0.000  0.000     1.010     1.574
 385   1 H      0.091  0.909  0.000  0.000     1.867     2.136
 386   1 H      0.087  0.913  0.000  0.000     1.906     2.159
 387   1 H      0.084  0.916  0.000  0.000     1.933     2.174
 388   1 H      0.084  0.916  0.000  0.000     1.934     2.175
 389   1 H      0.078  0.922  0.000  0.000     1.999     2.211
 390   1 H      0.214  0.786  0.000  0.000     1.037     1.595
 391   1 H      0.221  0.779  0.000  0.000     1.005     1.570
 392   7 N     -0.173  1.203  3.970  0.000    24.747     7.388
 393   6 C      0.021  1.034  2.945  0.000    20.216     6.401
 394   6 C      0.264  1.050  2.686  0.000    22.547     7.775
 395   8 O     -0.498  1.734  4.763  0.000    23.730     6.531
 396   6 C     -0.136  1.019  3.117  0.000    23.093     6.839
 397   6 C      0.287  1.030  2.683  0.000    22.137     7.704
 398   8 O     -0.495  1.759  4.735  0.000    23.663     6.522
 399   7 N     -0.308  1.198  4.110  0.000    27.938     7.850
 400   1 H      0.214  0.786  0.000  0.000     1.037     1.595
 401   1 H      0.116  0.884  0.000  0.000     1.645     2.006
 402   1 H      0.101  0.899  0.000  0.000     1.777     2.085
 403   1 H      0.120  0.880  0.000  0.000     1.615     1.987
 404   1 H      0.241  0.759  0.000  0.000     0.917     1.500
 405   1 H      0.245  0.755  0.000  0.000     0.902     1.488
 406   7 N     -0.185  1.213  3.972  0.000    25.005     7.427
 407   6 C     -0.003  1.047  2.957  0.000    20.642     6.469
 408   6 C      0.264  1.038  2.698  0.000    22.545     7.776
 409   8 O     -0.488  1.738  4.751  0.000    23.530     6.504
 410   6 C     -0.113  1.011  3.101  0.000    22.633     6.770
 411   6 C     -0.115  1.011  3.105  0.000    22.693     6.780
 412   6 C     -0.056  1.014  3.043  0.000    21.645     6.634
 413   7 N     -0.152  1.176  3.976  0.000    24.287     7.319
 414   6 C      0.224  1.014  2.762  0.000    23.288     7.901
 415   7 N     -0.269  1.173  4.095  0.000    26.954     7.711
 416   7 N     -0.253  1.166  4.087  0.000    26.587     7.658
 417   1 H      0.218  0.782  0.000  0.000     1.018     1.581
 418   1 H      0.121  0.879  0.000  0.000     1.606     1.981
 419   1 H      0.090  0.910  0.000  0.000     1.877     2.142
 420   1 H      0.074  0.926  0.000  0.000     2.046     2.236
 421   1 H      0.099  0.901  0.000  0.000     1.791     2.093
 422   1 H      0.099  0.901  0.000  0.000     1.793     2.094
 423   1 H      0.102  0.898  0.000  0.000     1.769     2.080
 424   1 H      0.111  0.889  0.000  0.000     1.685     2.030
 425   1 H      0.218  0.782  0.000  0.000     1.018     1.580
 426   1 H      0.238  0.762  0.000  0.000     0.930     1.511
 427   1 H      0.267  0.733  0.000  0.000     0.821     1.419
 428   1 H      0.256  0.744  0.000  0.000     0.862     1.454
 429   1 H      0.263  0.737  0.000  0.000     0.834     1.431
 430   7 N     -0.189  1.212  3.977  0.000    25.104     7.441
 431   6 C      0.005  1.039  2.956  0.000    20.490     6.444
 432   6 C      0.266  1.043  2.691  0.000    22.508     7.769
 433   8 O     -0.480  1.741  4.740  0.000    23.353     6.479
 434   6 C     -0.108  1.012  3.095  0.000    22.531     6.754
 435   6 C      0.006  1.084  2.910  0.000    27.896     8.663
 436   6 C     -0.063  1.056  3.007  0.000    29.571     8.918
 437   6 C     -0.071  1.058  3.012  0.000    29.759     8.946
 438   6 C     -0.054  1.054  3.000  0.000    29.330     8.882
 439   6 C     -0.052  1.060  2.992  0.000    29.281     8.874
 440   6 C     -0.060  1.052  3.008  0.000    29.484     8.904
 441   1 H      0.229  0.771  0.000  0.000     0.971     1.544
 442   1 H      0.110  0.890  0.000  0.000     1.697     2.037
 443   1 H      0.092  0.908  0.000  0.000     1.861     2.133
 444   1 H      0.087  0.913  0.000  0.000     1.909     2.160
 445   1 H      0.061  0.939  0.000  0.000     2.187     2.313
 446   1 H      0.071  0.929  0.000  0.000     2.073     2.251
 447   1 H      0.048  0.952  0.000  0.000     2.347     2.395
 448   1 H      0.066  0.934  0.000  0.000     2.125     2.280
 449   1 H      0.056  0.944  0.000  0.000     2.248     2.345
 450   7 N     -0.190  1.210  3.980  0.000    25.124     7.444
 451   6 C      0.009  1.045  2.946  0.000    20.434     6.436
 452   6 C      0.272  1.037  2.692  0.000    22.412     7.753
 453   8 O     -0.490  1.733  4.757  0.000    23.560     6.508
 454   6 C     -0.130  1.017  3.113  0.000    22.980     6.821
 455   6 C      0.288  1.028  2.683  0.000    22.112     7.700
 456   8 O     -0.490  1.765  4.725  0.000    23.563     6.508
 457   7 N     -0.295  1.191  4.104  0.000    27.601     7.803
 458   1 H      0.220  0.780  0.000  0.000     1.010     1.574
 459   1 H      0.102  0.898  0.000  0.000     1.765     2.077
 460   1 H      0.098  0.902  0.000  0.000     1.803     2.099
 461   1 H      0.110  0.890  0.000  0.000     1.696     2.036
 462   1 H      0.242  0.758  0.000  0.000     0.914     1.498
 463   1 H      0.232  0.768  0.000  0.000     0.958     1.533
 464   7 N     -0.181  1.205  3.976  0.000    24.915     7.413
 465   6 C     -0.003  1.045  2.958  0.000    20.638     6.467
 466   6 C      0.267  1.039  2.694  0.000    22.493     7.767
 467   8 O     -0.491  1.749  4.742  0.000    23.584     6.511
 468   6 C      0.039  1.005  2.956  0.000    20.105     6.419
 469   8 O     -0.481  1.676  4.805  0.000    22.486     6.401
 470   1 H      0.228  0.772  0.000  0.000     0.973     1.545
 471   1 H      0.100  0.900  0.000  0.000     1.781     2.087
 472   1 H      0.078  0.922  0.000  0.000     2.003     2.213
 473   1 H      0.091  0.909  0.000  0.000     1.867     2.136
 474   1 H      0.332  0.668  0.000  0.000     0.632     1.249
 475   7 N     -0.191  1.212  3.978  0.000    25.139     7.447
 476   6 C      0.008  1.046  2.946  0.000    20.453     6.439
 477   6 C      0.283  1.038  2.679  0.000    22.207     7.717
 478   8 O     -0.498  1.750  4.748  0.000    23.743     6.533
 479   6 C     -0.168  0.987  3.181  0.000    23.808     6.955
 480   1 H      0.234  0.766  0.000  0.000     0.948     1.525
 481   1 H      0.093  0.907  0.000  0.000     1.854     2.129
 482   1 H      0.081  0.919  0.000  0.000     1.971     2.195
 483   1 H      0.090  0.910  0.000  0.000     1.882     2.145
 484   1 H      0.087  0.913  0.000  0.000     1.911     2.162
 485   7 N     -0.199  1.211  3.988  0.000    25.313     7.472
 486   6 C      0.002  1.056  2.942  0.000    20.556     6.457
 487   6 C      0.280  1.046  2.674  0.000    22.251     7.724
 488   8 O     -0.493  1.752  4.741  0.000    23.630     6.517
 489   6 C     -0.040  1.047  2.993  0.000    21.245     6.556
 490   6 C     -0.096  1.000  3.096  0.000    22.307     6.721
 491   6 C     -0.153  0.978  3.175  0.000    23.494     6.907
 492   6 C     -0.151  0.973  3.178  0.000    23.447     6.901
 493   1 H      0.221  0.779  0.000  0.000     1.006     1.571
 494   1 H      0.086  0.914  0.000  0.000     1.918     2.166
 495   1 H      0.063  0.937  0.000  0.000     2.167     2.302
 496   1 H      0.058  0.942  0.000  0.000     2.221     2.330
 497   1 H      0.062  0.938  0.000  0.000     2.180     2.309
 498   1 H      0.080  0.920  0.000  0.000     1.981     2.201
 499   1 H      0.047  0.953  0.000  0.000     2.352     2.398
 500   1 H      0.062  0.938  0.000  0.000     2.172     2.305
 501   1 H      0.064  0.936  0.000  0.000     2.157     2.297
 502   1 H      0.044  0.956  0.000  0.000     2.401     2.423
 503   1 H      0.066  0.934  0.000  0.000     2.126     2.280
 504   7 N     -0.194  1.210  3.984  0.000    25.214     7.458
 505   6 C      0.004  1.047  2.949  0.000    20.519     6.451
 506   6 C      0.206  1.083  2.711  0.000    23.632     7.961
 507   8 O     -0.360  1.746  4.614  0.000    20.905     6.130
 508   6 C      0.110  1.026  2.865  0.000    18.876     6.202
 509   8 O     -0.471  1.672  4.799  0.000    22.282     6.372
 510   6 C     -0.164  0.981  3.183  0.000    23.730     6.943
 511   1 H      0.226  0.774  0.000  0.000     0.982     1.552
 512   1 H      0.111  0.889  0.000  0.000     1.685     2.030
 513   1 H      0.054  0.946  0.000  0.000     2.267     2.355
 514   1 H      0.328  0.672  0.000  0.000     0.641     1.257
 515   1 H      0.093  0.907  0.000  0.000     1.848     2.126
 516   1 H      0.069  0.931  0.000  0.000     2.100     2.266
 517   1 H      0.085  0.915  0.000  0.000     1.923     2.168
 518   1 H      0.175  0.825  0.000  0.000     1.244     1.747
 519   1 H      0.085  0.915  0.000  0.000     1.923     2.169
 520   1 H      0.185  0.815  0.000  0.000     1.184     1.704
 521   1 H      0.079  0.921  0.000  0.000     1.991     2.207
 522   1 H      0.175  0.825  0.000  0.000     1.244     1.747
 523   1 H      0.089  0.911  0.000  0.000     1.886     2.147
 524   1 H      0.196  0.804  0.000  0.000     1.126     1.662
 525   1 H      0.079  0.921  0.000  0.000     1.986     2.204
 526   1 H      0.181  0.819  0.000  0.000     1.210     1.723
 527   1 H      0.070  0.930  0.000  0.000     2.083     2.257
 528   1 H      0.172  0.828  0.000  0.000     1.262     1.760
 529   1 H      0.072  0.928  0.000  0.000     2.064     2.246
 530   1 H      0.176  0.824  0.000  0.000     1.237     1.742
 531   1 H      0.061  0.939  0.000  0.000     2.183     2.310
 532   1 H      0.192  0.808  0.000  0.000     1.150     1.680
 533   1 H      0.096  0.904  0.000  0.000     1.819     2.109
 534   1 H      0.187  0.813  0.000  0.000     1.172     1.696
 535   1 H      0.069  0.931  0.000  0.000     2.091     2.261

 Mol. C6AA /au·bohr⁶  :    2576983.154769
 Mol. C8AA /au·bohr⁸  :   56889576.315577
 Mol. α(0) /au        :       2389.163334

 
molecular dipole:
                 x           y           z       tot (Debye)
 q only:     -774.625    -332.327    -676.293
   full:     -770.525    -335.439    -679.644    2747.196
molecular quadrupole (traceless):
                xx          xy          yy          xz          yz          zz
 q only:  -105131.191 -128520.628  139392.931 -261432.829 -112105.148  -34261.739
  q+dip:  -101985.013 -128976.966  138406.816 -261227.901 -113748.964  -36421.802
   full:  -101983.494 -128978.866  138405.203 -261225.736 -113745.882  -36421.709
speedup  1.00
cpu  time for grad   15.74 s
wall time for grad   15.75 s

SCC energy    :    -842.3002378
rep           :      17.6383278
ES            :       3.1909258
AES           :      -0.1239968
AXC           :       0.0970016
disp          :      -0.7256230
XB            :       0.0000000
fix           :       0.0000000
Gborn         :       0.0000000
Gsasa         :       0.0000000
Ghb           :       0.0000000
Gshift        :       0.0000000
Gsolv         :      -0.9310132     -584.22
Etot ala COSMO:    -842.3002378
grad norm     :       2.9797415
total E       :    -824.5857737
atomizationE  :     145.8294666    91509.37
(atE without considering molecular charge,
 total energy contains solvation terms)
H-L gap (eV)  :          1.2272

------------------------------------------------------------------------
 * finished run on 2019/03/07 at 11:38:03.703     
------------------------------------------------------------------------
 total:
 * wall-time:     0 d,  0 h,  0 min, 17.437 sec
 *  cpu-time:     0 d,  0 h,  0 min, 17.286 sec
 * ratio c/w:     0.991 speedup
 SCF:
 * wall-time:     0 d,  0 h,  0 min, 16.923 sec
 *  cpu-time:     0 d,  0 h,  0 min, 16.921 sec
 * ratio c/w:     1.000 speedup

