      -----------------------------------------------------------      
     |                   =====================                   |     
     |                           x T B                           |     
     |                   =====================                   |     
     |                         S. Grimme                         |     
     |          Mulliken Center for Theoretical Chemistry        |     
     |                    University of Bonn                     |     
     |                 Version 6.0.1 (SAW181210)                 |     
      -----------------------------------------------------------      

   This program is distributed in the hope that it will be useful,
   but WITHOUT ANY WARRANTY; without even the implied warranty of
   MERCHANTABILITY or FITNESS FOR A PARTICULAR PURPOSE.
   
   FOR NON-COMMERCIAL, ACADEMIA USE ONLY.
   
   Cite this work as:
   S. Grimme, C. Bannwarth, P. Shushkov, J. Comput. Theory Chem., 2017,
   13, 1989-2009.
   C. Bannwarth, S. Ehlert and S. Grimme., ChemRxiv, 2018, preprint.
   http://doi.org/10.26434/chemrxiv.7246238.v1
   
   for sTDA-xTB:
   S. Grimme and C. Bannwarth, J. Chem. Phys., 2016, 145, 054103.
   
   in the mass-spec context:
   V. Asgeirsson, C. Bauer and S. Grimme, Chem. Sci., 2017, 8, 4879.
   
   if GBSA is used:
   P. Shushkov, F. März and S. Grimme, unpublished.
   
   for ANC optimizer:
   S. Grimme, unpublished.
   Rational Function algorithm used in ANCopt:
   F. Eckert, P. Pulay, H.-J. Werner, J. Comput. Chem., 1997, 18, 1473.
   
   with help from (in alphabetical order)
   C. Bannwarth, F. Bohle, G. Brandenburg, E. Caldeweyher, M. Checinski,
   S. Dohm, S. Ehlert, S. Ehrlich, F. März, H. Neugebauer, J. Pisarek,
   P. Pracht, P. Shushkov, and S. Spicher.
   
 * started run on 2019/02/13 at 00:17:23.134     
========================================================================
 # omp threads = 16
========================================================================
number of atoms            : 508
number of electrons        : 1406
charge                     : 1
spin                       : .0
first test random number   : .4213

########################################################################
# WARNING! Please study the warnings concerning your input carefully
#  - Process number higher than OMP_NUM_THREADS, I hope you know what you are doing.
########################################################################

           ------------------------------------------------- 
          |                 G F N 2 - x T B                 |
          | Geometry, Frequencies, Noncovalent interactions |
          |            JCTC 2018 parametrisation            |
           ------------------------------------------------- 
 
      method parameters     
 k(s)        :  1.8500
 k(p)        :  2.2300
 k(d)        :  2.2300
 k(f)        :  2.0000
 kEN (H0ij)  : -2.0000
 D4 a1       :  0.5200
 D4 a2       :  5.0000
 D4 s6       :  1.0000
 D4 s8       :  2.7000
 D4 s9       :  5.0000
 alphaj      :  2.0000

 Solvent             : h2o
 Using internal parameter file: .param_gbsa2_h2o
 Gsolv ref. state (COSMO-RS): gsolv [1 M gas/solution]
 temperature (mdtemp)       :    298.150000000000     
 dielectric constant        :    80.2000000000000     
 rho                        :    1.00000000000000     
 mass                       :    18.0000000000000     
 surface tension            :    15.5689454083859     
 probe radius               :   0.975313790000000     
 vdW radii scaling          :    1.00000000000000     
 Gshift (Eh)                :   1.857443126794793E-003
 c1                         :    1.55243817000000     
 soset                      :   0.130326360000000     
 HB correction              :  T

            Z     q(EN)     CN     RAES       Cart. coordinates
     1  N   5.0   -0.18    3.25    1.97   354.24197   125.01829   207.01497
     2  C   4.0    0.03    4.42    4.42   351.88051   124.35854   205.78459
     3  C   4.0    0.16    3.45    3.09   349.71455   125.09477   207.55122
     4  O   6.0   -0.28    1.24    1.80   349.91986   124.94177   209.85568
     5  C   4.0   -0.03    4.33    4.25   351.82244   121.54096   205.08200
     6  C   4.0   -0.05    4.20    3.99   353.91123   120.99695   203.14683
     7  C   4.0   -0.07    4.14    3.89   349.22235   120.87422   204.03400
     8  C   4.0   -0.07    4.01    3.63   354.36345   118.18252   202.72798
     9  H   1.0    0.10    1.03    1.43   354.62835   124.04014   208.60849
    10  H   1.0    0.05    1.06    1.44   351.74546   125.49832   204.06584
    11  H   1.0    0.04    1.05    1.44   352.17214   120.44310   206.80315
    12  H   1.0    0.05    1.03    1.43   353.38673   121.90044   201.36800
    13  H   1.0    0.04    1.04    1.43   355.65361   121.88022   203.80686
    14  H   1.0    0.04    1.00    1.43   349.23558   118.96815   203.27534
    15  H   1.0    0.06    1.01    1.43   347.78254   120.99717   205.49455
    16  H   1.0    0.05    1.00    1.43   348.71890   122.19039   202.53622
    17  H   1.0    0.05    1.00    1.43   355.93749   117.90506   201.43996
    18  H   1.0    0.04    1.00    1.43   354.80474   117.25130   204.50519
    19  H   1.0    0.04    1.00    1.43   352.71204   117.28083   201.90921
    20  N   5.0   -0.12    3.50    2.08   347.64460   125.95743   206.39604
    21  C   4.0    0.05    4.43    4.44   345.45980   126.74571   207.83010
    22  C   4.0    0.16    3.40    3.08   344.12920   124.38907   208.91612
    23  O   6.0   -0.31    1.26    1.80   344.31308   122.33101   207.88978
    24  C   4.0   -0.03    4.32    4.24   343.69147   128.26931   206.14401
    25  C   4.0    0.16    3.23    3.04   344.83991   130.76132   205.28858
    26  O   6.0   -0.27    1.22    1.80   347.06074   131.32398   205.62882
    27  N   5.0   -0.17    3.19    1.95   343.18852   132.28659   204.14326
    28  H   1.0    0.08    1.06    1.44   347.57707   126.10816   204.48831
    29  H   1.0    0.07    1.05    1.44   346.12377   127.90831   209.41744
    30  H   1.0    0.05    1.03    1.43   343.27532   127.19622   204.43030
    31  H   1.0    0.06    1.03    1.43   341.91929   128.65793   207.11579
    32  H   1.0    0.11    1.03    1.43   343.78260   133.97099   203.48148
    33  H   1.0    0.12    1.05    1.44   341.40263   131.70679   203.76901
    34  N   5.0   -0.13    3.48    2.06   342.88551   124.77464   211.09025
    35  C   4.0    0.05    4.45    4.47   341.41467   122.83484   212.34071
    36  C   4.0    0.17    3.42    3.09   338.70551   123.77916   212.74729
    37  O   6.0   -0.28    1.25    1.80   338.11707   125.95676   212.25490
    38  C   4.0    0.05    4.23    4.06   342.58141   122.00366   214.90866
    39  O   6.0   -0.26    2.13    1.84   341.72002   123.46192   216.98224
    40  C   4.0   -0.06    4.09    3.78   345.45832   121.94356   214.75791
    41  H   1.0    0.09    1.07    1.44   342.49421   126.56991   211.61664
    42  H   1.0    0.08    1.07    1.44   341.36105   121.18983   211.08963
    43  H   1.0    0.05    1.05    1.44   341.85815   120.10442   215.26856
    44  H   1.0    0.13    1.03    1.43   342.35048   125.16576   216.79705
    45  H   1.0    0.05    1.00    1.43   346.24357   121.11857   216.46253
    46  H   1.0    0.05    1.00    1.43   346.03176   120.80813   213.14873
    47  H   1.0    0.06    1.00    1.43   346.23528   123.82741   214.49019
    48  N   5.0   -0.14    3.52    2.09   337.20079   122.07129   213.88900
    49  C   4.0    0.05    4.48    4.50   334.56034   122.49937   214.43704
    50  C   4.0    0.16    3.45    3.10   333.87720   122.09505   217.22276
    51  O   6.0   -0.29    1.32    1.80   331.67574   121.81677   217.87226
    52  C   4.0    0.06    4.28    4.16   332.84654   120.73380   212.90490
    53  O   6.0   -0.25    2.14    1.85   333.57721   118.23673   213.53247
    54  C   4.0   -0.06    4.07    3.75   333.02526   121.27063   210.09012
    55  H   1.0    0.10    1.08    1.44   337.69843   120.22954   213.73858
    56  H   1.0    0.09    1.07    1.44   334.07283   124.46404   213.97351
    57  H   1.0    0.06    1.04    1.44   330.90310   121.09499   213.55636
    58  H   1.0    0.11    1.02    1.43   332.41377   117.07712   212.73720
    59  H   1.0    0.04    1.00    1.43   331.69086   120.11428   209.04356
    60  H   1.0    0.06    1.00    1.43   332.58065   123.25161   209.78313
    61  H   1.0    0.08    1.01    1.43   334.92554   120.90729   209.39934
    62  N   5.0   -0.14    3.45    2.05   335.83971   121.90931   218.80700
    63  C   4.0    0.03    4.38    4.34   335.64060   121.83166   221.56115
    64  C   4.0    0.17    3.48    3.11   332.87312   121.41393   222.40067
    65  O   6.0   -0.29    1.28    1.80   331.48180   123.15296   223.02132
    66  C   4.0   -0.03    4.26    4.11   336.68508   124.28679   222.69338
    67  C   4.0   -0.04    4.15    3.91   337.37710   124.04865   225.48986
    68  C   4.0   -0.04    4.14    3.89   339.57272   122.26633   226.10816
    69  C   4.0   -0.03    4.10    3.81   342.11720   123.01991   224.96454
    70  N   5.0   -0.12    4.01    2.89   342.61901   121.77322   222.48395
    71  H   1.0    0.09    1.09    1.44   337.55241   122.41538   218.10105
    72  H   1.0    0.04    1.05    1.44   336.74644   120.19657   222.19422
    73  H   1.0    0.05    1.03    1.43   338.29592   124.92533   221.57623
    74  H   1.0    0.07    1.03    1.43   335.21550   125.72517   222.48959
    75  H   1.0    0.05    1.03    1.43   337.82689   125.93653   226.18315
    76  H   1.0    0.06    1.03    1.43   335.70149   123.41182   226.50936
    77  H   1.0    0.05    1.03    1.43   339.76553   122.28301   228.15830
    78  H   1.0    0.05    1.03    1.43   339.10060   120.33878   225.56790
    79  H   1.0    0.05    1.02    1.43   342.20428   125.06433   224.73193
    80  H   1.0    0.05    1.02    1.43   343.61992   122.43494   226.24611
    81  H   1.0    0.06    1.02    1.43   344.49045   121.99466   222.01260
    82  H   1.0    0.08    1.07    1.44   342.19136   119.83183   222.58351
    83  H   1.0    0.07    1.03    1.43   341.56839   122.52940   221.02403
    84  N   5.0   -0.12    3.48    2.07   332.22063   118.97111   222.61993
    85  C   4.0    0.04    4.40    4.38   329.71835   118.13443   223.33614
    86  C   4.0    0.16    3.38    3.07   329.78575   117.03343   226.02014
    87  O   6.0   -0.29    1.26    1.80   331.74646   116.92847   227.24075
    88  C   4.0   -0.03    4.31    4.21   328.59857   116.35767   221.32359
    89  C   4.0   -0.01    3.55    3.14   330.12319   114.00567   220.87349
    90  C   4.0   -0.03    3.46    3.10   329.58687   111.78382   222.17145
    91  C   4.0   -0.04    3.47    3.10   332.03990   113.97761   219.07526
    92  C   4.0   -0.03    3.43    3.09   330.87637   109.57775   221.64456
    93  C   4.0   -0.04    3.43    3.09   333.34956   111.77833   218.53913
    94  C   4.0    0.07    3.45    3.09   332.74467   109.55104   219.79161
    95  O   6.0   -0.26    2.12    1.84   333.90776   107.32781   219.25917
    96  H   1.0    0.09    1.07    1.44   333.43480   117.58912   222.11516
    97  H   1.0    0.06    1.07    1.44   328.52111   119.81920   223.42051
    98  H   1.0    0.06    1.03    1.43   326.67944   115.86048   221.88836
    99  H   1.0    0.07    1.03    1.43   328.46293   117.46214   219.58414
   100  H   1.0    0.07    1.03    1.43   328.10239   111.76814   223.57299
   101  H   1.0    0.06    1.03    1.43   332.46077   115.68321   218.03031
   102  H   1.0    0.06    1.03    1.43   330.39276   107.84778   222.60712
   103  H   1.0    0.05    1.03    1.43   334.79407   111.77565   217.09480
   104  H   1.0    0.12    1.04    1.43   335.11353   107.55628   217.90652
   105  N   5.0   -0.13    3.47    2.06   327.54788   116.26153   226.91192
   106  C   4.0    0.04    4.47    4.50   327.13349   115.62973   229.54179
   107  C   4.0    0.15    3.41    3.08   326.15398   112.90068   229.76707
   108  O   6.0   -0.28    1.24    1.80   323.91033   112.41874   230.01292
   109  C   4.0    0.07    4.24    4.09   325.23816   117.50729   230.72901
   110  O   6.0   -0.24    2.12    1.84   326.12559   119.99883   230.30635
   111  C   4.0   -0.06    4.08    3.76   324.94665   117.00167   233.55868
   112  H   1.0    0.11    1.10    1.44   325.95184   116.35872   225.85799
   113  H   1.0    0.06    1.07    1.44   328.95996   115.82475   230.49031
   114  H   1.0    0.07    1.04    1.43   323.41713   117.24424   229.77762
   115  H   1.0    0.15    1.06    1.44   324.76629   120.97193   229.55441
   116  H   1.0    0.06    1.00    1.43   323.69529   118.41190   234.36635
   117  H   1.0    0.06    1.00    1.43   324.15788   115.13199   233.84098
   118  H   1.0    0.05    1.00    1.43   326.77579   117.14894   234.47775
   119  N   5.0   -0.14    3.43    2.04   328.01586   111.18840   229.80879
   120  C   4.0    0.03    4.33    4.25   327.65838   108.47399   229.92865
   121  C   4.0    0.15    3.41    3.08   326.51178   107.37709   227.51420
   122  O   6.0   -0.30    1.24    1.80   325.10703   108.56651   226.12905
   123  C   4.0   -0.05    4.13    3.86   325.94819   107.68792   232.13939
   124  H   1.0    0.10    1.10    1.44   329.81916   111.79183   229.48299
   125  H   1.0    0.03    1.06    1.44   329.51038   107.61482   230.20821
   126  H   1.0    0.06    1.00    1.43   325.72234   105.64621   232.10054
   127  H   1.0    0.05    1.00    1.43   326.84202   108.28345   233.88680
   128  H   1.0    0.08    1.01    1.43   324.11363   108.58568   231.92314
   129  N   5.0   -0.15    3.43    2.04   327.17124   104.93997   227.11637
   130  C   4.0    0.04    4.37    4.33   325.61222   103.26516   225.59668
   131  C   4.0    0.11    3.32    3.06   324.73048   101.11439   227.31310
   132  O   6.0   -0.25    1.12    1.80   323.06054   101.49281   228.88836
   133  C   4.0   -0.04    4.22    4.04   326.75068   102.34272   223.13379
   134  C   4.0    0.25    3.14    3.03   324.74589   100.57953   221.84716
   135  O   6.0   -0.26    1.28    1.80   323.03272    99.75521   223.25964
   136  O   6.0   -0.28    1.16    1.80   325.00469   100.17504   219.54933
   137  H   1.0    0.07    1.07    1.44   328.37825   104.10626   228.34294
   138  H   1.0    0.07    1.08    1.44   323.89350   104.31174   225.12035
   139  H   1.0    0.05    1.02    1.43   327.13454   103.90085   221.84211
   140  H   1.0    0.04    1.02    1.43   328.47796   101.24671   223.37473
   141  N   5.0   -0.20    3.20    1.95   334.68953   107.04842   233.66421
   142  C   4.0    0.03    4.33    4.25   334.78730   108.70149   231.49734
   143  C   4.0    0.15    3.38    3.07   337.20976   108.25076   229.96182
   144  O   6.0   -0.29    1.21    1.80   339.00929   107.07207   230.78487
   145  C   4.0    0.03    4.12    3.84   334.37289   111.52981   232.03650
   146  O   6.0   -0.26    2.14    1.85   333.25532   112.49865   229.80409
   147  H   1.0    0.10    1.03    1.43   336.22016   107.05872   234.80803
   148  H   1.0    0.04    1.07    1.44   333.22156   108.11764   230.27270
   149  H   1.0    0.04    1.01    1.43   333.09126   111.75689   233.64843
   150  H   1.0    0.05    1.01    1.43   336.16464   112.47115   232.44790
   151  H   1.0    0.15    1.03    1.43   333.42792   114.32038   229.65785
   152  N   5.0   -0.13    3.54    2.11   337.00965   109.23795   227.64711
   153  C   4.0    0.03    4.38    4.34   338.57072   108.62280   225.49614
   154  C   4.0    0.15    3.41    3.08   338.83920   111.02067   223.91885
   155  O   6.0   -0.30    1.30    1.80   337.99781   113.05786   224.62348
   156  C   4.0   -0.04    4.25    4.10   337.31703   106.43395   224.03567
   157  C   4.0   -0.04    4.18    3.96   337.58625   103.88149   225.40586
   158  C   4.0   -0.05    4.15    3.89   335.07823   102.45315   225.69548
   159  C   4.0   -0.03    4.13    3.85   335.63163    99.77917   226.61794
   160  N   5.0   -0.12    4.00    2.86   333.31947    98.32469   227.27967
   161  H   1.0    0.10    1.10    1.44   335.51960   110.39212   227.28958
   162  H   1.0    0.06    1.05    1.44   340.43711   108.04334   226.18190
   163  H   1.0    0.05    1.03    1.43   335.32034   106.89088   223.80904
   164  H   1.0    0.05    1.03    1.43   338.12322   106.28367   222.15052
   165  H   1.0    0.05    1.03    1.43   338.89936   102.69021   224.35922
   166  H   1.0    0.06    1.04    1.43   338.38169   104.16331   227.28322
   167  H   1.0    0.04    1.02    1.43   333.88032   103.42335   227.06574
   168  H   1.0    0.04    1.02    1.43   334.07956   102.39406   223.89207
   169  H   1.0    0.05    1.02    1.43   336.64586    98.74319   225.15473
   170  H   1.0    0.05    1.02    1.43   336.80231    99.89208   228.31450
   171  H   1.0    0.06    1.01    1.43   332.33154    99.15637   228.75271
   172  H   1.0    0.06    1.01    1.43   332.06277    98.05291   225.79230
   173  H   1.0    0.06    1.02    1.43   333.80925    96.54477   227.87098
   174  N   5.0   -0.14    3.50    2.08   340.07331   110.79063   221.72615
   175  C   4.0    0.03    4.46    4.48   340.37052   112.91120   220.01551
   176  C   4.0    0.14    3.43    3.09   340.98230   111.77796   217.42572
   177  O   6.0   -0.30    1.26    1.80   341.96590   109.70032   217.24187
   178  C   4.0    0.06    4.21    4.01   342.38098   114.78704   221.06792
   179  O   6.0   -0.27    2.18    1.85   341.13307   116.70816   222.45262
   180  C   4.0   -0.07    4.09    3.78   344.00603   116.03015   219.04540
   181  H   1.0    0.09    1.08    1.44   340.90745   109.16768   221.14722
   182  H   1.0    0.05    1.06    1.44   338.56539   113.92837   219.90250
   183  H   1.0    0.05    1.04    1.43   343.61483   113.70832   222.34454
   184  H   1.0    0.15    1.06    1.44   339.96048   115.89317   223.62492
   185  H   1.0    0.05    1.00    1.43   345.45411   117.17315   219.94292
   186  H   1.0    0.05    1.00    1.43   344.94021   114.59751   217.91209
   187  H   1.0    0.05    1.00    1.43   342.86756   117.21533   217.81778
   188  N   5.0   -0.14    3.49    2.07   340.23031   113.16709   215.45706
   189  C   4.0    0.03    4.34    4.27   340.55537   112.37883   212.85583
   190  C   4.0    0.14    3.39    3.08   341.13340   114.74263   211.27660
   191  O   6.0   -0.31    1.25    1.80   340.94246   116.86002   212.18508
   192  C   4.0   -0.06    4.10    3.80   338.18723   110.98897   211.94920
   193  H   1.0    0.09    1.08    1.44   339.48279   114.91316   215.67590
   194  H   1.0    0.05    1.06    1.44   342.18620   111.10454   212.78632
   195  H   1.0    0.05    1.00    1.43   338.27873   110.56014   209.94732
   196  H   1.0    0.06    1.00    1.43   337.99477   109.21802   212.96863
   197  H   1.0    0.05    1.00    1.43   336.52735   112.14935   212.28414
   198  N   5.0   -0.14    3.49    2.07   341.96532   114.23891   208.94522
   199  C   4.0    0.04    4.41    4.40   342.98798   116.08788   207.22038
   200  C   4.0    0.16    3.41    3.08   341.01185   116.81658   205.23533
   201  O   6.0   -0.29    1.24    1.80   339.31767   115.38327   204.60236
   202  C   4.0   -0.05    4.36    4.30   345.32499   114.98162   205.90651
   203  C   4.0   -0.02    4.19    3.97   347.30169   113.89725   207.73421
   204  C   4.0   -0.07    4.10    3.80   349.53208   112.85906   206.22031
   205  C   4.0   -0.07    4.11    3.81   348.19464   115.86962   209.63919
   206  H   1.0    0.08    1.07    1.44   341.88884   112.44316   208.31137
   207  H   1.0    0.06    1.06    1.44   343.46704   117.77416   208.31180
   208  H   1.0    0.05    1.03    1.43   344.69664   113.47626   204.64345
   209  H   1.0    0.04    1.03    1.43   346.18172   116.46911   204.77285
   210  H   1.0    0.04    1.06    1.44   346.45051   112.33684   208.79292
   211  H   1.0    0.05    1.00    1.43   350.86777   111.91599   207.46659
   212  H   1.0    0.05    1.00    1.43   348.88281   111.49673   204.82778
   213  H   1.0    0.04    1.00    1.43   350.50738   114.38608   205.25483
   214  H   1.0    0.04    1.00    1.43   349.70414   115.09967   210.80238
   215  H   1.0    0.04    1.00    1.43   348.89018   117.55065   208.68440
   216  H   1.0    0.05    1.00    1.43   346.66894   116.43175   210.89747
   217  N   5.0   -0.13    3.47    2.06   341.41630   119.08016   204.15706
   218  C   4.0    0.05    4.33    4.25   339.50638   120.26174   202.57645
   219  C   4.0    0.09    3.20    3.04   340.23944   119.97870   199.77670
   220  O   6.0   -0.28    1.13    1.80   341.72419   121.41022   198.73180
   221  C   4.0   -0.02    4.33    4.26   339.24539   123.06141   203.19705
   222  C   4.0    0.16    3.23    3.04   338.51599   123.54864   205.92711
   223  O   6.0   -0.29    1.26    1.80   338.37181   121.87646   207.51516
   224  N   5.0   -0.18    3.20    1.96   338.01220   125.97325   206.45023
   225  H   1.0    0.10    1.09    1.44   342.66958   120.25649   204.99588
   226  H   1.0    0.07    1.06    1.44   337.72380   119.26028   202.91990
   227  H   1.0    0.06    1.03    1.43   341.03167   124.01268   202.78836
   228  H   1.0    0.05    1.03    1.43   337.82628   123.90987   201.96891
   229  H   1.0    0.12    1.04    1.43   337.59407   126.45573   208.24994
   230  H   1.0    0.11    1.07    1.44   338.11176   127.34632   205.11146
   231  N   5.0   -0.19    3.23    1.96   330.79155   126.72383   195.98364
   232  C   4.0    0.03    4.31    4.22   332.29544   125.09092   197.59738
   233  C   4.0    0.15    3.42    3.08   330.57970   122.90881   198.43563
   234  O   6.0   -0.32    1.29    1.80   328.54074   123.34371   199.47245
   235  C   4.0   -0.04    4.27    4.14   333.30569   126.53529   199.88180
   236  C   4.0   -0.03    4.17    3.93   335.48690   128.30327   199.21447
   237  C   4.0    0.25    3.11    3.03   336.12372   129.98742   201.52822
   238  O   6.0   -0.28    1.17    1.80   334.47477   131.44954   202.29408
   239  O   6.0   -0.31    1.23    1.80   338.29261   129.72080   202.50410
   240  H   1.0    0.09    1.03    1.43   329.88425   128.17456   196.82096
   241  H   1.0    0.04    1.05    1.44   333.85731   124.32681   196.47998
   242  H   1.0    0.06    1.03    1.43   331.78542   127.64507   200.73153
   243  H   1.0    0.05    1.03    1.43   333.94281   125.17307   201.29947
   244  H   1.0    0.05    1.02    1.43   337.15142   127.22486   198.65225
   245  H   1.0    0.05    1.03    1.43   334.92916   129.55155   197.66945
   246  N   5.0   -0.14    3.49    2.07   331.37742   120.60582   197.85023
   247  C   4.0    0.04    4.50    4.53   330.01774   118.35652   198.59191
   248  C   4.0    0.14    3.45    3.10   331.74280   116.81517   200.31254
   249  O   6.0   -0.30    1.26    1.80   334.04547   116.99514   200.23380
   250  C   4.0   -0.02    4.25    4.09   329.11627   116.78966   196.29243
   251  C   4.0   -0.06    4.11    3.83   327.50064   118.43538   194.55702
   252  C   4.0   -0.06    4.12    3.84   331.33493   115.65733   194.83976
   253  H   1.0    0.08    1.06    1.44   333.13956   120.36717   197.11127
   254  H   1.0    0.07    1.07    1.44   328.36664   118.99648   199.66884
   255  H   1.0    0.05    1.05    1.44   327.95505   115.25219   197.05038
   256  H   1.0    0.05    1.00    1.43   326.70440   117.29831   193.04615
   257  H   1.0    0.05    1.00    1.43   325.96324   119.31354   195.60168
   258  H   1.0    0.05    1.00    1.43   328.63791   119.93813   193.72969
   259  H   1.0    0.05    1.00    1.43   330.64327   114.62119   193.20940
   260  H   1.0    0.05    1.00    1.43   332.59045   117.14459   194.17929
   261  H   1.0    0.06    1.00    1.43   332.38618   114.37618   196.05060
   262  N   5.0   -0.14    3.47    2.06   330.56104   115.20858   201.86925
   263  C   4.0    0.04    4.52    4.56   332.00470   113.82831   203.73768
   264  C   4.0    0.15    3.43    3.09   330.97093   111.16511   204.05943
   265  O   6.0   -0.31    1.29    1.80   328.71045   110.71154   204.17948
   266  C   4.0   -0.02    4.26    4.12   332.03232   115.24066   206.30184
   267  C   4.0   -0.07    4.12    3.83   329.42638   115.26726   207.54027
   268  C   4.0   -0.07    4.11    3.82   334.03556   114.10275   208.03150
   269  H   1.0    0.11    1.09    1.44   328.64881   115.21386   202.01501
   270  H   1.0    0.06    1.07    1.44   333.95234   113.76952   203.03678
   271  H   1.0    0.05    1.06    1.44   332.59017   117.18791   205.86033
   272  H   1.0    0.03    1.00    1.43   329.44905   116.42093   209.24219
   273  H   1.0    0.06    1.00    1.43   328.02973   116.05403   206.25299
   274  H   1.0    0.05    1.00    1.43   328.85185   113.36402   208.05779
   275  H   1.0    0.05    1.00    1.43   334.24630   115.26405   209.71114
   276  H   1.0    0.05    1.00    1.43   333.52849   112.19073   208.58981
   277  H   1.0    0.07    1.01    1.43   335.85032   114.08329   207.06645
   278  N   5.0   -0.15    3.45    2.05   332.74784   109.36316   204.22021
   279  C   4.0    0.05    4.40    4.38   332.14456   106.74677   204.73882
   280  C   4.0    0.16    3.42    3.09   332.31997   106.19902   207.58859
   281  O   6.0   -0.30    1.22    1.80   334.23150   106.69896   208.78711
   282  C   4.0    0.04    4.16    3.91   334.02553   104.99809   203.39533
   283  O   6.0   -0.23    2.06    1.83   333.31376   102.48350   203.89927
   284  H   1.0    0.08    1.07    1.44   334.58042   109.87066   204.37413
   285  H   1.0    0.08    1.07    1.44   330.22497   106.36977   204.07958
   286  H   1.0    0.05    1.01    1.43   333.98962   105.39822   201.36015
   287  H   1.0    0.06    1.01    1.43   335.92432   105.38805   204.14386
   288  H   1.0    0.13    1.02    1.43   334.46382   101.34998   203.06120
   289  N   5.0   -0.13    3.49    2.07   330.25593   105.13084   208.55785
   290  C   4.0    0.03    4.49    4.52   330.09640   104.21756   211.13559
   291  C   4.0    0.15    3.46    3.10   328.87909   101.59994   210.96799
   292  O   6.0   -0.30    1.28    1.80   326.81872   101.28542   209.96634
   293  C   4.0   -0.02    4.32    4.23   328.51186   105.98672   212.83759
   294  C   4.0   -0.04    4.19    3.98   329.58314   108.67659   212.72352
   295  C   4.0   -0.07    4.12    3.84   328.45850   104.96709   215.53563
   296  C   4.0   -0.08    4.01    3.65   328.09762   110.57713   214.30067
   297  H   1.0    0.12    1.10    1.44   328.73160   104.81107   207.43798
   298  H   1.0    0.05    1.06    1.44   332.02855   104.11195   211.86469
   299  H   1.0    0.05    1.05    1.44   326.59190   106.00746   212.07249
   300  H   1.0    0.05    1.03    1.43   331.54773   108.65101   213.34946
   301  H   1.0    0.05    1.03    1.43   329.57470   109.29860   210.75408
   302  H   1.0    0.05    1.00    1.43   327.24408   106.13454   216.70986
   303  H   1.0    0.06    1.00    1.43   327.71382   103.05279   215.60210
   304  H   1.0    0.05    1.00    1.43   330.34347   104.97645   216.35055
   305  H   1.0    0.04    1.00    1.43   328.77161   112.48340   213.92674
   306  H   1.0    0.04    1.00    1.43   326.09569   110.50112   213.84810
   307  H   1.0    0.04    1.00    1.43   328.31289   110.22568   216.31125
   308  N   5.0   -0.13    3.36    2.00   330.21955    99.68790   211.94538
   309  C   4.0    0.02    4.25    4.10   329.33672    97.09832   211.75287
   310  C   4.0    0.16    3.34    3.06   329.28762    96.33542   208.95422
   311  O   6.0   -0.27    1.22    1.80   331.23066    95.94545   207.77433
   312  H   1.0    0.08    1.06    1.44   331.97163   100.00430   212.61065
   313  H   1.0    0.06    1.03    1.43   330.65532    95.88065   212.75864
   314  H   1.0    0.06    1.02    1.43   327.46128    96.95802   212.61013
   315  N   5.0   -0.14    3.38    2.01   326.97132    96.16928   207.93877
   316  C   4.0    0.02    4.24    4.08   326.55618    95.58083   205.31067
   317  C   4.0    0.15    3.30    3.05   324.96976    97.48569   203.83240
   318  O   6.0   -0.28    1.22    1.80   324.07974    96.90680   201.77835
   319  H   1.0    0.09    1.07    1.44   325.46562    96.63376   209.01462
   320  H   1.0    0.07    1.04    1.43   328.41511    95.45170   204.41014
   321  H   1.0    0.06    1.02    1.43   325.63940    93.73479   205.11404
   322  N   5.0   -0.13    3.48    2.06   324.53735    99.70643   204.96554
   323  C   4.0    0.04    4.43    4.42   323.01127   101.65486   203.80659
   324  C   4.0    0.15    3.41    3.08   324.51591   104.07562   203.34807
   325  O   6.0   -0.30    1.27    1.80   326.35320   104.64162   204.64685
   326  C   4.0   -0.04    4.28    4.16   320.73494   102.29216   205.49173
   327  C   4.0   -0.04    4.18    3.95   318.76630   100.18139   205.47585
   328  C   4.0   -0.05    4.17    3.95   316.34219   101.02911   206.80408
   329  C   4.0   -0.03    4.11    3.83   314.33388    98.97401   206.94895
   330  N   5.0   -0.12    4.02    2.90   315.05347    97.00875   208.84289
   331  H   1.0    0.12    1.09    1.44   325.49377   100.16637   206.56077
   332  H   1.0    0.06    1.07    1.44   322.35919   100.93398   201.97868
   333  H   1.0    0.06    1.03    1.43   321.41969   102.63763   207.40585
   334  H   1.0    0.05    1.03    1.43   319.88084   104.03617   204.80124
   335  H   1.0    0.05    1.03    1.43   318.34676    99.70067   203.51136
   336  H   1.0    0.05    1.02    1.43   319.60452    98.52542   206.37303
   337  H   1.0    0.06    1.03    1.43   316.77787   101.74365   208.68666
   338  H   1.0    0.04    1.03    1.43   315.55471   102.61378   205.74907
   339  H   1.0    0.05    1.02    1.43   312.54365    99.82335   207.51248
   340  H   1.0    0.05    1.02    1.43   314.10891    98.08750   205.10188
   341  H   1.0    0.06    1.02    1.43   313.67148    95.64570   208.97424
   342  H   1.0    0.06    1.02    1.43   316.72530    96.18043   208.29055
   343  H   1.0    0.06    1.02    1.43   315.31471    97.85214   210.58264
   344  N   5.0   -0.15    3.44    2.04   323.57421   105.52396   201.50512
   345  C   4.0    0.05    4.47    4.49   324.70204   107.91396   200.82260
   346  C   4.0    0.16    3.41    3.08   322.80899   110.08373   201.13378
   347  O   6.0   -0.30    1.23    1.80   320.83018   110.26256   199.94162
   348  C   4.0    0.06    4.21    4.03   325.85533   107.88211   198.14430
   349  O   6.0   -0.24    2.12    1.84   327.14336   110.21293   197.87672
   350  C   4.0   -0.06    4.07    3.75   323.93093   107.48149   196.04084
   351  H   1.0    0.08    1.05    1.44   322.17429   104.79790   200.35421
   352  H   1.0    0.08    1.09    1.44   326.25822   108.24744   202.14360
   353  H   1.0    0.05    1.03    1.43   327.23334   106.31436   198.10794
   354  H   1.0    0.12    1.03    1.43   327.79569   110.30742   196.17420
   355  H   1.0    0.05    1.00    1.43   324.88750   107.35040   194.22651
   356  H   1.0    0.05    1.00    1.43   322.87858   105.74714   196.35815
   357  H   1.0    0.07    1.00    1.43   322.60355   109.04691   195.99663
   358  N   5.0   -0.13    3.50    2.08   323.49415   111.76424   202.89196
   359  C   4.0    0.04    4.42    4.41   321.92154   113.87811   203.59849
   360  C   4.0    0.15    3.43    3.09   323.08293   116.36953   202.70854
   361  O   6.0   -0.31    1.29    1.80   325.36115   116.64668   202.41661
   362  C   4.0   -0.03    4.33    4.25   321.65797   114.01068   206.49901
   363  C   4.0   -0.01    3.56    3.14   320.78405   111.55070   207.62942
   364  C   4.0   -0.04    3.47    3.10   318.44211   110.52460   207.02153
   365  C   4.0   -0.04    3.47    3.10   322.29041   110.28710   209.36525
   366  C   4.0   -0.04    3.43    3.09   317.61887   108.30783   208.12712
   367  C   4.0   -0.04    3.44    3.09   321.45579   108.10603   210.53385
   368  C   4.0    0.07    3.45    3.09   319.10535   107.10435   209.93328
   369  O   6.0   -0.25    2.12    1.84   318.21675   104.97877   211.06826
   370  H   1.0    0.11    1.10    1.44   325.24342   111.65313   203.66853
   371  H   1.0    0.06    1.06    1.44   320.07652   113.57893   202.71036
   372  H   1.0    0.05    1.03    1.43   323.49764   114.50919   207.29185
   373  H   1.0    0.04    1.03    1.43   320.32227   115.50932   206.98016
   374  H   1.0    0.05    1.03    1.43   317.19974   111.47506   205.71204
   375  H   1.0    0.05    1.03    1.43   324.12798   111.03993   209.83776
   376  H   1.0    0.06    1.03    1.43   315.79889   107.52569   207.63931
   377  H   1.0    0.05    1.03    1.43   322.61097   107.19099   211.94789
   378  H   1.0    0.12    1.04    1.43   319.33929   104.49215   212.42556
   379  N   5.0   -0.14    3.46    2.05   321.43140   118.24774   202.29640
   380  C   4.0    0.04    4.34    4.28   322.31837   120.82283   201.88969
   381  C   4.0    0.16    3.49    3.11   323.59357   121.71897   204.32845
   382  O   6.0   -0.31    1.33    1.80   322.54291   121.45285   206.38078
   383  C   4.0   -0.07    4.11    3.82   320.10331   122.55341   201.26917
   384  H   1.0    0.07    1.07    1.44   319.60691   118.02638   202.81160
   385  H   1.0    0.06    1.05    1.44   323.71254   120.79207   200.36416
   386  H   1.0    0.05    1.00    1.43   320.81372   124.41695   200.79047
   387  H   1.0    0.05    1.00    1.43   319.05871   121.79978   199.67188
   388  H   1.0    0.05    1.00    1.43   318.86673   122.70669   202.90323
   389  N   5.0   -0.14    3.46    2.05   325.81625   122.88275   204.07459
   390  C   4.0    0.04    4.36    4.31   327.22428   123.63693   206.30144
   391  C   4.0    0.16    3.52    3.12   325.47760   124.87402   208.23487
   392  O   6.0   -0.32    1.31    1.80   325.47713   124.23446   210.46211
   393  C   4.0   -0.07    4.12    3.84   329.33410   125.47258   205.62313
   394  H   1.0    0.11    1.10    1.44   326.71740   123.00354   202.37552
   395  H   1.0    0.05    1.05    1.44   328.03717   121.96622   207.23047
   396  H   1.0    0.06    1.00    1.43   330.21141   126.20895   207.33235
   397  H   1.0    0.05    1.00    1.43   330.77778   124.51459   204.52238
   398  H   1.0    0.05    1.00    1.43   328.62248   127.05679   204.52905
   399  N   5.0   -0.14    3.52    2.09   324.01294   126.72234   207.33368
   400  C   4.0    0.04    4.39    4.36   322.48014   128.32634   208.93388
   401  C   4.0    0.16    3.44    3.09   320.70673   126.84056   210.68963
   402  O   6.0   -0.28    1.22    1.80   320.16860   127.67576   212.77414
   403  C   4.0    0.03    4.17    3.94   320.87990   130.07225   207.26782
   404  O   6.0   -0.25    2.08    1.84   319.32370   128.58654   205.71493
   405  H   1.0    0.08    1.07    1.44   324.10908   127.16075   205.47922
   406  H   1.0    0.05    1.05    1.44   323.69429   129.47482   210.16335
   407  H   1.0    0.05    1.01    1.43   319.76118   131.28867   208.52006
   408  H   1.0    0.04    1.01    1.43   322.15935   131.25650   206.14314
   409  H   1.0    0.12    1.02    1.43   318.46811   129.68712   204.53760
   410  N   5.0   -0.13    3.52    2.09   319.63664   124.78969   209.66678
   411  C   4.0    0.04    4.42    4.41   317.91002   123.21785   211.08595
   412  C   4.0    0.16    3.40    3.08   319.22177   121.44608   212.97243
   413  O   6.0   -0.29    1.22    1.80   318.04964   120.53674   214.74059
   414  C   4.0   -0.04    4.26    4.13   316.27664   121.66339   209.26424
   415  C   4.0   -0.05    4.15    3.90   314.31466   123.23448   207.82034
   416  C   4.0   -0.05    4.16    3.92   312.19113   124.17654   209.55871
   417  C   4.0   -0.04    4.10    3.81   309.70045   124.76049   208.21784
   418  N   5.0   -0.12    4.00    2.86   309.90616   127.00927   206.52270
   419  H   1.0    0.11    1.10    1.44   320.40629   124.01171   208.09270
   420  H   1.0    0.07    1.06    1.44   316.74176   124.46451   212.25393
   421  H   1.0    0.05    1.03    1.43   317.56108   120.73283   207.94408
   422  H   1.0    0.05    1.03    1.43   315.33428   120.19564   210.36485
   423  H   1.0    0.05    1.02    1.43   315.29603   124.80385   206.91475
   424  H   1.0    0.04    1.03    1.43   313.51162   122.00449   206.37412
   425  H   1.0    0.05    1.03    1.43   311.79666   122.70528   210.94734
   426  H   1.0    0.05    1.02    1.43   312.82528   125.82785   210.61407
   427  H   1.0    0.04    1.02    1.43   309.08630   123.13848   207.10730
   428  H   1.0    0.05    1.02    1.43   308.26484   125.15341   209.64230
   429  H   1.0    0.06    1.00    1.43   308.12116   127.80583   206.14879
   430  H   1.0    0.06    1.03    1.43   311.01525   128.34026   207.40827
   431  H   1.0    0.06    1.02    1.43   310.74621   126.50781   204.84468
   432  N   5.0   -0.14    3.49    2.07   321.64760   120.89572   212.47048
   433  C   4.0    0.04    4.34    4.28   323.19266   119.45011   214.18653
   434  C   4.0    0.16    3.44    3.09   324.31617   121.02107   216.34796
   435  O   6.0   -0.32    1.34    1.80   324.67067   120.02385   218.41632
   436  C   4.0   -0.07    4.11    3.83   325.35900   118.19213   212.76078
   437  H   1.0    0.11    1.10    1.44   322.57906   121.83638   211.09369
   438  H   1.0    0.06    1.06    1.44   321.97820   118.02580   215.07837
   439  H   1.0    0.04    1.00    1.43   326.49499   117.09191   214.07127
   440  H   1.0    0.04    1.00    1.43   324.61866   116.96551   211.29049
   441  H   1.0    0.06    1.00    1.43   326.53704   119.64787   211.90754
   442  N   5.0   -0.12    3.48    2.06   324.88513   123.41392   215.83866
   443  C   4.0    0.05    4.43    4.43   326.08613   125.06485   217.67102
   444  C   4.0    0.17    3.53    3.13   324.74588   124.76695   220.21322
   445  O   6.0   -0.27    1.25    1.80   322.51069   125.30816   220.46132
   446  C   4.0   -0.03    4.29    4.17   325.81905   127.83023   216.87799
   447  C   4.0   -0.02    4.17    3.95   327.45659   128.50733   214.61728
   448  C   4.0    0.25    3.10    3.02   330.34115   128.17545   215.11738
   449  O   6.0   -0.27    1.17    1.80   331.16585   128.68051   217.26075
   450  O   6.0   -0.28    1.18    1.80   331.61157   127.45972   213.25425
   451  H   1.0    0.11    1.10    1.44   324.78825   124.05442   214.04199
   452  H   1.0    0.07    1.05    1.44   328.09341   124.57157   217.86193
   453  H   1.0    0.07    1.03    1.43   323.82602   128.19864   216.47409
   454  H   1.0    0.07    1.03    1.43   326.39850   129.00392   218.47464
   455  H   1.0    0.07    1.03    1.43   327.00353   127.35367   212.97371
   456  H   1.0    0.06    1.02    1.43   327.16782   130.49304   214.12134
   457  N   5.0   -0.13    3.38    2.01   326.18383   123.92391   222.11747
   458  C   4.0    0.03    4.25    4.09   325.21182   123.68689   224.65318
   459  C   4.0    0.16    3.36    3.07   323.07669   121.77806   224.99928
   460  O   6.0   -0.29    1.30    1.80   322.18573   121.43679   227.12745
   461  H   1.0    0.12    1.09    1.44   328.07489   123.68536   221.88223
   462  H   1.0    0.06    1.03    1.43   326.76719   123.20176   225.91968
   463  H   1.0    0.07    1.03    1.43   324.41545   125.49813   225.27955
   464  N   5.0   -0.12    3.51    2.08   322.19417   120.59484   222.97418
   465  C   4.0    0.05    4.40    4.37   319.95556   119.04772   223.18992
   466  C   4.0    0.09    3.30    3.05   320.45913   116.86154   224.99966
   467  O   6.0   -0.29    1.18    1.80   322.47968   115.73690   225.04269
   468  C   4.0   -0.03    4.30    4.19   319.11588   117.93549   220.65586
   469  C   4.0    0.06    3.81    3.35   316.70792   116.53041   221.08285
   470  N   5.0   -0.16    2.55    1.90   314.64256   117.70872   222.09635
   471  C   4.0   -0.01    3.60    3.17   316.18658   114.01764   220.77705
   472  C   4.0    0.08    3.63    3.19   312.92315   115.95341   222.36202
   473  N   5.0   -0.12    3.44    2.04   313.76033   113.67505   221.58465
   474  H   1.0    0.12    1.13    1.45   323.11528   120.62084   221.29266
   475  H   1.0    0.07    1.06    1.44   318.42350   120.21835   223.94586
   476  H   1.0    0.08    1.03    1.43   318.82550   119.46071   219.29734
   477  H   1.0    0.05    1.03    1.43   320.55703   116.64852   219.93624
   478  H   1.0    0.05    1.03    1.43   317.30505   112.49610   220.06590
   479  H   1.0    0.06    1.02    1.43   311.08269   116.28534   223.13536
   480  H   1.0    0.08    1.04    1.43   312.86758   111.98480   221.69597
   481  N   5.0   -0.19    3.20    1.95   318.88763   110.35988   226.06613
   482  C   4.0    0.04    4.22    4.04   318.07420   108.06300   224.83926
   483  C   4.0    0.10    3.20    3.04   317.45637   105.93447   226.71825
   484  O   6.0   -0.26    1.13    1.80   316.73482   103.87991   225.93387
   485  C   4.0   -0.02    4.35    4.29   320.09757   107.10880   223.00030
   486  C   4.0   -0.01    3.55    3.14   320.28211   108.59545   220.59569
   487  C   4.0   -0.04    3.47    3.10   322.12604   110.44710   220.32592
   488  C   4.0   -0.04    3.46    3.10   318.64537   108.12100   218.59483
   489  C   4.0   -0.04    3.37    3.07   322.33356   111.80925   218.10206
   490  C   4.0   -0.04    3.38    3.07   318.85533   109.48418   216.37180
   491  C   4.0   -0.04    3.37    3.07   320.69398   111.33189   216.11974
   492  H   1.0    0.12    1.03    1.43   320.76191   110.73569   226.04432
   493  H   1.0    0.05    1.05    1.44   316.29948   108.42796   223.81552
   494  H   1.0    0.07    1.05    1.44   321.90881   107.20791   223.97837
   495  H   1.0    0.07    1.03    1.43   319.67652   105.13054   222.56766
   496  H   1.0    0.07    1.03    1.43   323.41353   110.80689   221.86902
   497  H   1.0    0.06    1.03    1.43   317.20094   106.68428   218.78413
   498  H   1.0    0.05    1.03    1.43   323.78427   113.23469   217.92782
   499  H   1.0    0.06    1.03    1.43   317.56080   109.09467   214.84425
   500  H   1.0    0.05    1.03    1.43   320.83791   112.38691   214.38092
   501  H   1.0    0.09    1.08    1.44   355.53614   124.73625   205.94813
   502  H   1.0    0.07    1.05    1.44   325.51019    99.40018   227.15628
   503  H   1.0    0.09    1.08    1.44   333.36974   107.47820   234.64706
   504  H   1.0    0.07    1.05    1.44   339.49448   118.58446   198.74123
   505  H   1.0    0.10    1.07    1.44   331.79084   127.43242   194.80385
   506  H   1.0    0.06    1.05    1.44   319.11447   116.30335   226.20440
   507  H   1.0    0.10    1.07    1.44   318.14424   111.69564   225.32068
   508  H   1.0    0.07    1.04    1.43   317.64406   106.22952   228.57534

  Z AO/shell   Hii/eV     exponent
  1     Wed Apr 25 08:07:45 CEST 2018   EN: 2.200 GM2: 0.406  GM3: 0.0800  RAES: 1.40
     1s    -10.707211    1.230000
  6     Wed Apr 25 08:07:45 CEST 2018   EN: 2.550 GM2: 0.538  GM3: 0.1500  RAES: 3.00
     2s    -13.970922    2.096432
     2p    -10.063292    1.800000
  7     Wed Apr 25 08:07:45 CEST 2018   EN: 3.040 GM2: 0.461  GM3:-0.0640  RAES: 1.90
     2s    -16.686243    2.339881
     2p    -12.523956    2.014332
  8     Wed Apr 25 08:07:45 CEST 2018   EN: 3.440 GM2: 0.452  GM3:-0.0517  RAES: 1.80
     2s    -20.229985    2.439742
     2p    -15.503117    2.137023
 no old-style atom pair restraining (fixing) potential

molecular fragmentation (1/2 indicates fragments):
111111111111111111111111111111111111111111111111111111111111111111111111
111111111111111111111111111111111111111111111111111111111111111111112222
222222222222222222222222222222222222222222222222222222222222222222222222
222222222222222222222222222222222222222222222222222222222222222222222222
222222222222222222222222222222222222222222222222222222222222222222222222
222222222222222222222222222222222222222222222222222222222222222222222222
222222222222222222222222222222222222222222222222222222222222222222221122
2222
# atoms in fragment 1/2:   142   366
 fragment masses (1/2) :     1010.11     2554.90
CMA distance (Bohr)    :  10.962
constraining FC (au)   :  0.0500
           ------------------------------------------------- 
          |        Self-Consistent Charge Iterations        |
           ------------------------------------------------- 

 Ncao       : 1261
 Nao        : 1261
 Nshell     : 759
 Nel        : 1406
 T(el)      :   500.0
 intcut     :    35.0
 scfconv/Eh :  0.100E-06
   qconv/e  :  0.100E-04
 intneglect :  0.100E-08
 broydamp   :      0.400
 iter      E             dE          RMSdq      gap      omega  full diag
   1   -809.3301761 -0.809330E+03  0.466E+00    3.10       0.0  T
   2   -811.2305038 -0.190033E+01  0.219E+00    1.89       1.0  T
   3   -811.3457340 -0.115230E+00  0.120E+00    1.94       1.0  T
   4   -811.4588239 -0.113090E+00  0.268E-01    1.26       1.0  T
   5   -811.4662690 -0.744503E-02  0.130E-01    1.42       1.0  T
   6   -811.4677127 -0.144375E-02  0.587E-02    1.42       1.0  T
   7   -811.4682210 -0.508307E-03  0.275E-02    1.44       1.0  T
   8   -811.4682890 -0.679282E-04  0.137E-02    1.42       1.0  T
   9   -811.4683141 -0.251084E-04  0.627E-03    1.41       1.0  T
  10   -811.4683188 -0.475172E-05  0.313E-03    1.41       1.4  T
  11   -811.4683201 -0.129739E-05  0.142E-03    1.41       3.1  T
  12   -811.4683204 -0.266604E-06  0.778E-04    1.40       5.7  T
  13   -811.4683205 -0.114463E-06  0.374E-04    1.40      11.9  T
  14   -811.4683205 -0.192159E-07  0.182E-04    1.40      24.4  T
  15   -811.4683205 -0.486330E-08  0.831E-05    1.40      53.4  T
  16   -811.4683205 -0.922228E-09  0.412E-05    1.40     107.8  T
speedup 15.98
cpu  time for SCC    1 m  3.9 s
wall time for SCC    0 m  4.0 s

   *** convergence criteria satisfied after 16 iterations ***

          eigenvalues
 #    :         691        692        693        694        695        696        697        698
 occ. :        2.000      2.000      2.000      2.000      2.000      2.000      2.000      2.000
 eps  :       -10.551    -10.511    -10.485    -10.483    -10.476    -10.337    -10.323    -10.235
 #    :         699        700        701        702        703        704        705        706
 occ. :        2.000      2.000      2.000      2.000      2.000      0.000      0.000      0.000
 eps  :       -10.194     -9.966     -9.956     -9.929     -9.874     -8.471     -8.019     -7.589
 #    :         707        708        709        710        711        712        713        714
 occ. :        0.000      0.000      0.000      0.000      0.000      0.000      0.000      0.000
 eps  :        -7.443     -6.836     -6.727     -6.636     -6.539     -6.517     -6.469     -6.464


   #   Z            q   n(s)   n(p)   n(d)      C6AA      α(0)
   1   7 N     -0.395  1.328  4.067  0.000    30.225     8.165
   2   6 C      0.029  1.062  2.909  0.000    20.094     6.384
   3   6 C      0.277  1.045  2.679  0.000    22.317     7.736
   4   8 O     -0.481  1.741  4.740  0.000    23.369     6.481
   5   6 C     -0.023  1.067  2.956  0.000    20.941     6.509
   6   6 C     -0.060  1.050  3.009  0.000    21.646     6.624
   7   6 C     -0.116  1.040  3.076  0.000    22.778     6.805
   8   6 C     -0.110  1.037  3.073  0.000    22.657     6.788
   9   1 H      0.167  0.833  0.000  0.000     1.290     1.779
  10   1 H      0.030  0.970  0.000  0.000     2.588     2.516
  11   1 H      0.038  0.962  0.000  0.000     2.470     2.458
  12   1 H      0.032  0.968  0.000  0.000     2.557     2.501
  13   1 H      0.035  0.965  0.000  0.000     2.518     2.481
  14   1 H      0.053  0.947  0.000  0.000     2.283     2.363
  15   1 H      0.040  0.960  0.000  0.000     2.444     2.445
  16   1 H      0.024  0.976  0.000  0.000     2.669     2.555
  17   1 H      0.043  0.957  0.000  0.000     2.405     2.425
  18   1 H      0.046  0.954  0.000  0.000     2.375     2.410
  19   1 H      0.040  0.960  0.000  0.000     2.448     2.447
  20   7 N     -0.162  1.235  3.927  0.000    24.503     7.352
  21   6 C      0.032  1.055  2.913  0.000    20.040     6.374
  22   6 C      0.274  1.047  2.679  0.000    22.374     7.746
  23   8 O     -0.467  1.728  4.738  0.000    23.062     6.439
  24   6 C     -0.099  1.059  3.040  0.000    22.377     6.733
  25   6 C      0.290  1.033  2.677  0.000    22.074     7.693
  26   8 O     -0.491  1.747  4.743  0.000    23.577     6.510
  27   7 N     -0.287  1.269  4.018  0.000    27.412     7.776
  28   1 H      0.192  0.808  0.000  0.000     1.146     1.677
  29   1 H      0.076  0.924  0.000  0.000     2.020     2.223
  30   1 H      0.067  0.933  0.000  0.000     2.115     2.274
  31   1 H      0.067  0.933  0.000  0.000     2.118     2.276
  32   1 H      0.234  0.766  0.000  0.000     0.946     1.524
  33   1 H      0.224  0.776  0.000  0.000     0.989     1.558
  34   7 N     -0.164  1.239  3.925  0.000    24.543     7.358
  35   6 C     -0.003  1.068  2.935  0.000    20.640     6.470
  36   6 C      0.290  1.040  2.670  0.000    22.089     7.696
  37   8 O     -0.497  1.758  4.739  0.000    23.725     6.530
  38   6 C      0.089  1.056  2.855  0.000    19.207     6.258
  39   8 O     -0.473  1.704  4.768  0.000    22.310     6.376
  40   6 C     -0.141  1.042  3.099  0.000    23.278     6.880
  41   1 H      0.199  0.801  0.000  0.000     1.112     1.652
  42   1 H      0.108  0.892  0.000  0.000     1.711     2.045
  43   1 H      0.083  0.917  0.000  0.000     1.949     2.183
  44   1 H      0.335  0.665  0.000  0.000     0.624     1.241
  45   1 H      0.094  0.906  0.000  0.000     1.844     2.124
  46   1 H      0.056  0.944  0.000  0.000     2.245     2.343
  47   1 H      0.060  0.940  0.000  0.000     2.203     2.321
  48   7 N     -0.182  1.248  3.933  0.000    24.937     7.417
  49   6 C      0.022  1.055  2.923  0.000    20.214     6.402
  50   6 C      0.281  1.041  2.677  0.000    22.238     7.722
  51   8 O     -0.498  1.754  4.744  0.000    23.748     6.534
  52   6 C      0.130  1.039  2.831  0.000    18.551     6.148
  53   8 O     -0.459  1.706  4.753  0.000    22.029     6.336
  54   6 C     -0.124  1.039  3.085  0.000    22.944     6.830
  55   1 H      0.229  0.771  0.000  0.000     0.971     1.543
  56   1 H      0.083  0.917  0.000  0.000     1.951     2.184
  57   1 H      0.012  0.988  0.000  0.000     2.866     2.647
  58   1 H      0.318  0.682  0.000  0.000     0.670     1.286
  59   1 H      0.045  0.955  0.000  0.000     2.380     2.412
  60   1 H      0.026  0.974  0.000  0.000     2.640     2.541
  61   1 H      0.071  0.929  0.000  0.000     2.077     2.254
  62   7 N     -0.185  1.253  3.932  0.000    25.002     7.426
  63   6 C      0.005  1.074  2.921  0.000    20.511     6.450
  64   6 C      0.298  1.038  2.664  0.000    21.947     7.671
  65   8 O     -0.497  1.750  4.746  0.000    23.709     6.528
  66   6 C     -0.077  1.054  3.024  0.000    21.974     6.674
  67   6 C     -0.076  1.050  3.026  0.000    21.944     6.670
  68   6 C     -0.100  1.054  3.046  0.000    22.408     6.740
  69   6 C     -0.054  1.060  2.994  0.000    21.651     6.643
  70   7 N     -0.151  1.232  3.918  0.000    24.249     7.314
  71   1 H      0.224  0.776  0.000  0.000     0.992     1.561
  72   1 H      0.095  0.905  0.000  0.000     1.828     2.115
  73   1 H      0.067  0.933  0.000  0.000     2.123     2.279
  74   1 H      0.047  0.953  0.000  0.000     2.355     2.400
  75   1 H      0.066  0.934  0.000  0.000     2.134     2.284
  76   1 H      0.046  0.954  0.000  0.000     2.367     2.406
  77   1 H      0.094  0.906  0.000  0.000     1.840     2.122
  78   1 H      0.085  0.915  0.000  0.000     1.929     2.172
  79   1 H      0.115  0.885  0.000  0.000     1.657     2.013
  80   1 H      0.128  0.872  0.000  0.000     1.551     1.948
  81   1 H      0.286  0.714  0.000  0.000     0.758     1.364
  82   1 H      0.300  0.700  0.000  0.000     0.713     1.322
  83   1 H      0.263  0.737  0.000  0.000     0.836     1.432
  84   7 N     -0.164  1.235  3.929  0.000    24.543     7.358
  85   6 C      0.026  1.058  2.917  0.000    20.152     6.393
  86   6 C      0.271  1.043  2.686  0.000    22.416     7.753
  87   8 O     -0.467  1.726  4.741  0.000    23.071     6.440
  88   6 C     -0.071  1.051  3.020  0.000    21.847     6.654
  89   6 C     -0.002  1.077  2.925  0.000    28.073     8.691
  90   6 C     -0.036  1.083  2.954  0.000    28.900     8.816
  91   6 C     -0.045  1.082  2.963  0.000    29.120     8.849
  92   6 C     -0.059  1.072  2.987  0.000    29.462     8.901
  93   6 C     -0.078  1.076  3.002  0.000    29.943     8.973
  94   6 C      0.142  1.043  2.815  0.000    24.905     8.179
  95   8 O     -0.394  1.697  4.697  0.000    20.738     6.148
  96   1 H      0.211  0.789  0.000  0.000     1.052     1.606
  97   1 H      0.058  0.942  0.000  0.000     2.220     2.330
  98   1 H      0.052  0.948  0.000  0.000     2.300     2.372
  99   1 H      0.054  0.946  0.000  0.000     2.265     2.354
 100   1 H      0.031  0.969  0.000  0.000     2.575     2.509
 101   1 H      0.036  0.964  0.000  0.000     2.508     2.476
 102   1 H      0.059  0.941  0.000  0.000     2.213     2.326
 103   1 H      0.051  0.949  0.000  0.000     2.313     2.378
 104   1 H      0.333  0.667  0.000  0.000     0.629     1.245
 105   7 N     -0.177  1.243  3.933  0.000    24.823     7.400
 106   6 C      0.006  1.072  2.922  0.000    20.481     6.444
 107   6 C      0.277  1.039  2.684  0.000    22.315     7.735
 108   8 O     -0.469  1.749  4.720  0.000    23.113     6.446
 109   6 C      0.124  1.042  2.834  0.000    18.654     6.167
 110   8 O     -0.492  1.718  4.775  0.000    22.729     6.436
 111   6 C     -0.133  1.044  3.088  0.000    23.107     6.855
 112   1 H      0.201  0.799  0.000  0.000     1.100     1.643
 113   1 H      0.081  0.919  0.000  0.000     1.971     2.195
 114   1 H      0.020  0.980  0.000  0.000     2.732     2.585
 115   1 H      0.318  0.682  0.000  0.000     0.670     1.285
 116   1 H      0.060  0.940  0.000  0.000     2.196     2.317
 117   1 H      0.058  0.942  0.000  0.000     2.218     2.329
 118   1 H      0.061  0.939  0.000  0.000     2.188     2.313
 119   7 N     -0.184  1.246  3.938  0.000    24.989     7.424
 120   6 C      0.019  1.062  2.919  0.000    20.258     6.410
 121   6 C      0.278  1.042  2.679  0.000    22.288     7.731
 122   8 O     -0.465  1.752  4.713  0.000    23.018     6.433
 123   6 C     -0.126  1.042  3.084  0.000    22.974     6.834
 124   1 H      0.227  0.773  0.000  0.000     0.976     1.548
 125   1 H      0.076  0.924  0.000  0.000     2.025     2.225
 126   1 H      0.063  0.937  0.000  0.000     2.162     2.299
 127   1 H      0.074  0.926  0.000  0.000     2.042     2.235
 128   1 H      0.068  0.932  0.000  0.000     2.102     2.267
 129   7 N     -0.188  1.257  3.931  0.000    25.069     7.436
 130   6 C      0.041  1.052  2.907  0.000    19.887     6.350
 131   6 C      0.206  1.080  2.714  0.000    23.623     7.960
 132   8 O     -0.417  1.766  4.651  0.000    22.022     6.292
 133   6 C     -0.116  1.069  3.047  0.000    22.724     6.787
 134   6 C      0.372  1.021  2.608  0.000    20.702     7.446
 135   8 O     -0.610  1.787  4.824  0.000    26.375     6.885
 136   8 O     -0.601  1.762  4.839  0.000    26.143     6.855
 137   1 H      0.208  0.792  0.000  0.000     1.067     1.618
 138   1 H      0.066  0.934  0.000  0.000     2.135     2.285
 139   1 H      0.053  0.947  0.000  0.000     2.286     2.365
 140   1 H      0.064  0.936  0.000  0.000     2.153     2.295
 141   7 N     -0.378  1.312  4.066  0.000    29.755     8.101
 142   6 C      0.014  1.064  2.922  0.000    20.343     6.423
 143   6 C      0.274  1.038  2.688  0.000    22.360     7.743
 144   8 O     -0.474  1.744  4.730  0.000    23.215     6.460
 145   6 C      0.062  1.045  2.893  0.000    19.757     6.370
 146   8 O     -0.468  1.709  4.760  0.000    22.224     6.364
 147   1 H      0.167  0.833  0.000  0.000     1.292     1.781
 148   1 H      0.060  0.940  0.000  0.000     2.193     2.316
 149   1 H      0.038  0.962  0.000  0.000     2.469     2.457
 150   1 H      0.035  0.965  0.000  0.000     2.515     2.480
 151   1 H      0.333  0.667  0.000  0.000     0.631     1.248
 152   7 N     -0.168  1.232  3.936  0.000    24.630     7.371
 153   6 C      0.007  1.065  2.928  0.000    20.463     6.442
 154   6 C      0.266  1.044  2.689  0.000    22.503     7.768
 155   8 O     -0.478  1.743  4.735  0.000    23.304     6.472
 156   6 C     -0.089  1.061  3.028  0.000    22.194     6.707
 157   6 C     -0.082  1.053  3.029  0.000    22.062     6.687
 158   6 C     -0.091  1.055  3.036  0.000    22.237     6.714
 159   6 C     -0.054  1.062  2.992  0.000    21.629     6.638
 160   7 N     -0.137  1.225  3.912  0.000    23.960     7.270
 161   1 H      0.210  0.790  0.000  0.000     1.055     1.609
 162   1 H      0.094  0.906  0.000  0.000     1.844     2.124
 163   1 H      0.070  0.930  0.000  0.000     2.082     2.256
 164   1 H      0.068  0.932  0.000  0.000     2.111     2.272
 165   1 H      0.068  0.932  0.000  0.000     2.107     2.270
 166   1 H      0.066  0.934  0.000  0.000     2.129     2.282
 167   1 H      0.062  0.938  0.000  0.000     2.171     2.304
 168   1 H      0.077  0.923  0.000  0.000     2.006     2.215
 169   1 H      0.125  0.875  0.000  0.000     1.574     1.962
 170   1 H      0.124  0.876  0.000  0.000     1.583     1.968
 171   1 H      0.287  0.713  0.000  0.000     0.754     1.360
 172   1 H      0.281  0.719  0.000  0.000     0.771     1.376
 173   1 H      0.305  0.695  0.000  0.000     0.700     1.310
 174   7 N     -0.175  1.239  3.936  0.000    24.796     7.396
 175   6 C     -0.009  1.074  2.935  0.000    20.747     6.486
 176   6 C      0.268  1.037  2.694  0.000    22.470     7.762
 177   8 O     -0.462  1.740  4.722  0.000    22.961     6.425
 178   6 C      0.101  1.054  2.845  0.000    19.021     6.228
 179   8 O     -0.465  1.696  4.769  0.000    22.149     6.353
 180   6 C     -0.149  1.044  3.105  0.000    23.441     6.904
 181   1 H      0.225  0.775  0.000  0.000     0.989     1.557
 182   1 H      0.078  0.922  0.000  0.000     1.995     2.209
 183   1 H      0.054  0.946  0.000  0.000     2.266     2.354
 184   1 H      0.340  0.660  0.000  0.000     0.612     1.229
 185   1 H      0.087  0.913  0.000  0.000     1.911     2.162
 186   1 H      0.059  0.941  0.000  0.000     2.215     2.327
 187   1 H      0.065  0.935  0.000  0.000     2.138     2.286
 188   7 N     -0.159  1.232  3.927  0.000    24.430     7.341
 189   6 C      0.010  1.063  2.927  0.000    20.421     6.435
 190   6 C      0.267  1.042  2.691  0.000    22.494     7.766
 191   8 O     -0.483  1.743  4.741  0.000    23.422     6.489
 192   6 C     -0.130  1.042  3.088  0.000    23.052     6.846
 193   1 H      0.207  0.793  0.000  0.000     1.071     1.621
 194   1 H      0.092  0.908  0.000  0.000     1.859     2.132
 195   1 H      0.064  0.936  0.000  0.000     2.155     2.296
 196   1 H      0.080  0.920  0.000  0.000     1.978     2.199
 197   1 H      0.060  0.940  0.000  0.000     2.202     2.321
 198   7 N     -0.158  1.232  3.926  0.000    24.418     7.339
 199   6 C      0.015  1.061  2.924  0.000    20.338     6.422
 200   6 C      0.275  1.045  2.680  0.000    22.348     7.741
 201   8 O     -0.469  1.738  4.731  0.000    23.107     6.445
 202   6 C     -0.079  1.060  3.019  0.000    22.004     6.677
 203   6 C     -0.013  1.058  2.955  0.000    20.776     6.483
 204   6 C     -0.120  1.042  3.078  0.000    22.853     6.816
 205   6 C     -0.117  1.039  3.078  0.000    22.792     6.807
 206   1 H      0.213  0.787  0.000  0.000     1.044     1.600
 207   1 H      0.086  0.914  0.000  0.000     1.922     2.168
 208   1 H      0.053  0.947  0.000  0.000     2.281     2.362
 209   1 H      0.057  0.943  0.000  0.000     2.234     2.337
 210   1 H      0.043  0.957  0.000  0.000     2.408     2.427
 211   1 H      0.053  0.947  0.000  0.000     2.283     2.363
 212   1 H      0.043  0.957  0.000  0.000     2.410     2.428
 213   1 H      0.043  0.957  0.000  0.000     2.403     2.424
 214   1 H      0.055  0.945  0.000  0.000     2.263     2.352
 215   1 H      0.038  0.962  0.000  0.000     2.475     2.460
 216   1 H      0.033  0.967  0.000  0.000     2.540     2.492
 217   7 N     -0.174  1.253  3.921  0.000    24.767     7.391
 218   6 C      0.040  1.051  2.910  0.000    19.918     6.356
 219   6 C      0.200  1.091  2.709  0.000    23.750     7.981
 220   8 O     -0.348  1.752  4.596  0.000    20.667     6.095
 221   6 C     -0.088  1.054  3.034  0.000    22.170     6.702
 222   6 C      0.290  1.035  2.675  0.000    22.075     7.693
 223   8 O     -0.487  1.738  4.748  0.000    23.488     6.498
 224   7 N     -0.297  1.273  4.024  0.000    27.655     7.810
 225   1 H      0.216  0.784  0.000  0.000     1.030     1.590
 226   1 H      0.086  0.914  0.000  0.000     1.921     2.168
 227   1 H      0.077  0.923  0.000  0.000     2.006     2.215
 228   1 H      0.059  0.941  0.000  0.000     2.208     2.324
 229   1 H      0.208  0.792  0.000  0.000     1.068     1.619
 230   1 H      0.221  0.779  0.000  0.000     1.007     1.572
 231   7 N     -0.379  1.309  4.071  0.000    29.806     8.108
 232   6 C      0.034  1.059  2.907  0.000    20.020     6.373
 233   6 C      0.265  1.050  2.686  0.000    22.537     7.774
 234   8 O     -0.485  1.728  4.757  0.000    23.447     6.492
 235   6 C     -0.041  1.049  2.992  0.000    21.296     6.569
 236   6 C     -0.091  1.065  3.026  0.000    22.237     6.714
 237   6 C      0.366  1.029  2.606  0.000    20.799     7.464
 238   8 O     -0.620  1.772  4.848  0.000    26.622     6.918
 239   8 O     -0.647  1.765  4.882  0.000    27.299     7.005
 240   1 H      0.165  0.835  0.000  0.000     1.304     1.789
 241   1 H      0.028  0.972  0.000  0.000     2.611     2.527
 242   1 H      0.040  0.960  0.000  0.000     2.452     2.449
 243   1 H     -0.003  1.003  0.000  0.000     3.107     2.757
 244   1 H      0.018  0.982  0.000  0.000     2.756     2.596
 245   1 H      0.030  0.970  0.000  0.000     2.591     2.517
 246   7 N     -0.151  1.239  3.913  0.000    24.269     7.317
 247   6 C      0.011  1.066  2.923  0.000    20.401     6.431
 248   6 C      0.270  1.043  2.687  0.000    22.448     7.759
 249   8 O     -0.499  1.747  4.752  0.000    23.755     6.535
 250   6 C     -0.020  1.064  2.956  0.000    20.893     6.501
 251   6 C     -0.120  1.041  3.080  0.000    22.863     6.818
 252   6 C     -0.120  1.039  3.081  0.000    22.855     6.817
 253   1 H      0.196  0.804  0.000  0.000     1.125     1.661
 254   1 H      0.082  0.918  0.000  0.000     1.960     2.189
 255   1 H      0.059  0.941  0.000  0.000     2.210     2.325
 256   1 H      0.065  0.935  0.000  0.000     2.142     2.289
 257   1 H      0.046  0.954  0.000  0.000     2.366     2.405
 258   1 H      0.046  0.954  0.000  0.000     2.375     2.410
 259   1 H      0.063  0.937  0.000  0.000     2.164     2.301
 260   1 H      0.043  0.957  0.000  0.000     2.406     2.426
 261   1 H      0.039  0.961  0.000  0.000     2.462     2.454
 262   7 N     -0.181  1.249  3.932  0.000    24.931     7.416
 263   6 C      0.015  1.063  2.923  0.000    20.327     6.418
 264   6 C      0.275  1.040  2.684  0.000    22.346     7.741
 265   8 O     -0.458  1.726  4.732  0.000    22.870     6.412
 266   6 C     -0.011  1.061  2.950  0.000    20.736     6.477
 267   6 C     -0.109  1.036  3.074  0.000    22.646     6.786
 268   6 C     -0.128  1.041  3.086  0.000    23.004     6.839
 269   1 H      0.230  0.770  0.000  0.000     0.967     1.540
 270   1 H      0.076  0.924  0.000  0.000     2.025     2.225
 271   1 H      0.024  0.976  0.000  0.000     2.676     2.558
 272   1 H      0.028  0.972  0.000  0.000     2.611     2.527
 273   1 H      0.045  0.955  0.000  0.000     2.381     2.413
 274   1 H      0.054  0.946  0.000  0.000     2.272     2.357
 275   1 H      0.053  0.947  0.000  0.000     2.289     2.366
 276   1 H      0.053  0.947  0.000  0.000     2.280     2.361
 277   1 H      0.057  0.943  0.000  0.000     2.240     2.341
 278   7 N     -0.176  1.249  3.927  0.000    24.804     7.397
 279   6 C      0.011  1.064  2.925  0.000    20.402     6.432
 280   6 C      0.274  1.040  2.686  0.000    22.372     7.745
 281   8 O     -0.480  1.737  4.743  0.000    23.343     6.478
 282   6 C      0.077  1.039  2.884  0.000    19.502     6.325
 283   8 O     -0.485  1.724  4.762  0.000    22.579     6.415
 284   1 H      0.206  0.794  0.000  0.000     1.074     1.624
 285   1 H      0.094  0.906  0.000  0.000     1.840     2.122
 286   1 H      0.041  0.959  0.000  0.000     2.437     2.441
 287   1 H      0.044  0.956  0.000  0.000     2.403     2.424
 288   1 H      0.354  0.646  0.000  0.000     0.578     1.194
 289   7 N     -0.172  1.248  3.924  0.000    24.714     7.383
 290   6 C      0.014  1.068  2.919  0.000    20.352     6.424
 291   6 C      0.268  1.046  2.687  0.000    22.482     7.765
 292   8 O     -0.469  1.728  4.742  0.000    23.115     6.446
 293   6 C     -0.017  1.065  2.952  0.000    20.847     6.494
 294   6 C     -0.055  1.048  3.007  0.000    21.561     6.611
 295   6 C     -0.119  1.037  3.082  0.000    22.839     6.814
 296   6 C     -0.105  1.034  3.071  0.000    22.567     6.775
 297   1 H      0.229  0.771  0.000  0.000     0.968     1.542
 298   1 H      0.069  0.931  0.000  0.000     2.094     2.263
 299   1 H      0.049  0.951  0.000  0.000     2.335     2.389
 300   1 H      0.044  0.956  0.000  0.000     2.402     2.424
 301   1 H      0.023  0.977  0.000  0.000     2.688     2.564
 302   1 H      0.046  0.954  0.000  0.000     2.369     2.407
 303   1 H      0.047  0.953  0.000  0.000     2.358     2.401
 304   1 H      0.058  0.942  0.000  0.000     2.219     2.330
 305   1 H      0.025  0.975  0.000  0.000     2.657     2.549
 306   1 H      0.042  0.958  0.000  0.000     2.428     2.437
 307   1 H      0.040  0.960  0.000  0.000     2.452     2.449
 308   7 N     -0.163  1.242  3.921  0.000    24.526     7.355
 309   6 C     -0.039  1.057  2.983  0.000    21.347     6.590
 310   6 C      0.277  1.038  2.685  0.000    22.305     7.734
 311   8 O     -0.483  1.752  4.731  0.000    23.417     6.488
 312   1 H      0.219  0.781  0.000  0.000     1.014     1.577
 313   1 H      0.102  0.898  0.000  0.000     1.768     2.079
 314   1 H      0.090  0.910  0.000  0.000     1.883     2.146
 315   7 N     -0.168  1.240  3.928  0.000    24.633     7.371
 316   6 C     -0.042  1.052  2.990  0.000    21.400     6.599
 317   6 C      0.272  1.038  2.690  0.000    22.402     7.750
 318   8 O     -0.494  1.748  4.746  0.000    23.641     6.519
 319   1 H      0.225  0.775  0.000  0.000     0.985     1.555
 320   1 H      0.098  0.902  0.000  0.000     1.800     2.098
 321   1 H      0.101  0.899  0.000  0.000     1.780     2.087
 322   7 N     -0.163  1.234  3.929  0.000    24.516     7.354
 323   6 C      0.010  1.062  2.928  0.000    20.411     6.433
 324   6 C      0.269  1.044  2.687  0.000    22.456     7.760
 325   8 O     -0.481  1.742  4.739  0.000    23.367     6.481
 326   6 C     -0.079  1.057  3.022  0.000    21.995     6.676
 327   6 C     -0.080  1.054  3.026  0.000    22.023     6.681
 328   6 C     -0.100  1.053  3.047  0.000    22.415     6.740
 329   6 C     -0.053  1.060  2.994  0.000    21.625     6.638
 330   7 N     -0.147  1.230  3.917  0.000    24.179     7.303
 331   1 H      0.221  0.779  0.000  0.000     1.006     1.571
 332   1 H      0.083  0.917  0.000  0.000     1.953     2.185
 333   1 H      0.069  0.931  0.000  0.000     2.101     2.267
 334   1 H      0.056  0.944  0.000  0.000     2.241     2.341
 335   1 H      0.062  0.938  0.000  0.000     2.178     2.308
 336   1 H      0.058  0.942  0.000  0.000     2.225     2.333
 337   1 H      0.094  0.906  0.000  0.000     1.836     2.119
 338   1 H      0.083  0.917  0.000  0.000     1.945     2.181
 339   1 H      0.123  0.877  0.000  0.000     1.588     1.971
 340   1 H      0.120  0.880  0.000  0.000     1.615     1.988
 341   1 H      0.301  0.699  0.000  0.000     0.709     1.319
 342   1 H      0.289  0.711  0.000  0.000     0.746     1.353
 343   1 H      0.298  0.702  0.000  0.000     0.720     1.329
 344   7 N     -0.173  1.249  3.925  0.000    24.755     7.389
 345   6 C      0.005  1.064  2.931  0.000    20.498     6.446
 346   6 C      0.275  1.042  2.683  0.000    22.346     7.741
 347   8 O     -0.474  1.738  4.737  0.000    23.227     6.462
 348   6 C      0.119  1.047  2.834  0.000    18.741     6.182
 349   8 O     -0.488  1.732  4.757  0.000    22.643     6.424
 350   6 C     -0.138  1.043  3.095  0.000    23.222     6.872
 351   1 H      0.213  0.787  0.000  0.000     1.041     1.598
 352   1 H      0.094  0.906  0.000  0.000     1.836     2.119
 353   1 H      0.019  0.981  0.000  0.000     2.748     2.592
 354   1 H      0.328  0.672  0.000  0.000     0.641     1.258
 355   1 H      0.056  0.944  0.000  0.000     2.242     2.341
 356   1 H      0.059  0.941  0.000  0.000     2.217     2.328
 357   1 H      0.073  0.927  0.000  0.000     2.052     2.240
 358   7 N     -0.169  1.243  3.927  0.000    24.661     7.376
 359   6 C      0.016  1.062  2.922  0.000    20.305     6.416
 360   6 C      0.270  1.046  2.684  0.000    22.446     7.759
 361   8 O     -0.494  1.744  4.750  0.000    23.653     6.521
 362   6 C     -0.071  1.055  3.016  0.000    21.850     6.653
 363   6 C     -0.003  1.076  2.927  0.000    28.087     8.693
 364   6 C     -0.044  1.083  2.961  0.000    29.104     8.847
 365   6 C     -0.039  1.082  2.957  0.000    28.970     8.827
 366   6 C     -0.064  1.076  2.988  0.000    29.603     8.922
 367   6 C     -0.071  1.077  2.994  0.000    29.768     8.947
 368   6 C      0.140  1.045  2.815  0.000    24.937     8.184
 369   8 O     -0.402  1.694  4.708  0.000    20.885     6.169
 370   1 H      0.220  0.780  0.000  0.000     1.008     1.573
 371   1 H      0.094  0.906  0.000  0.000     1.841     2.122
 372   1 H      0.039  0.961  0.000  0.000     2.462     2.454
 373   1 H      0.065  0.935  0.000  0.000     2.145     2.291
 374   1 H      0.056  0.944  0.000  0.000     2.250     2.346
 375   1 H      0.026  0.974  0.000  0.000     2.646     2.544
 376   1 H      0.076  0.924  0.000  0.000     2.021     2.223
 377   1 H      0.034  0.966  0.000  0.000     2.530     2.487
 378   1 H      0.336  0.664  0.000  0.000     0.622     1.238
 379   7 N     -0.172  1.253  3.920  0.000    24.733     7.386
 380   6 C      0.022  1.059  2.918  0.000    20.205     6.401
 381   6 C      0.271  1.047  2.682  0.000    22.416     7.754
 382   8 O     -0.486  1.738  4.748  0.000    23.466     6.495
 383   6 C     -0.145  1.045  3.100  0.000    23.352     6.890
 384   1 H      0.230  0.770  0.000  0.000     0.966     1.540
 385   1 H      0.070  0.930  0.000  0.000     2.086     2.259
 386   1 H      0.075  0.925  0.000  0.000     2.031     2.228
 387   1 H      0.098  0.902  0.000  0.000     1.804     2.101
 388   1 H      0.088  0.912  0.000  0.000     1.903     2.157
 389   7 N     -0.193  1.259  3.934  0.000    25.184     7.453
 390   6 C      0.038  1.052  2.910  0.000    19.944     6.358
 391   6 C      0.288  1.039  2.673  0.000    22.125     7.703
 392   8 O     -0.504  1.744  4.760  0.000    23.871     6.551
 393   6 C     -0.111  1.037  3.074  0.000    22.676     6.789
 394   1 H      0.238  0.762  0.000  0.000     0.932     1.513
 395   1 H      0.054  0.946  0.000  0.000     2.272     2.357
 396   1 H      0.040  0.960  0.000  0.000     2.443     2.444
 397   1 H      0.052  0.948  0.000  0.000     2.291     2.367
 398   1 H      0.062  0.938  0.000  0.000     2.170     2.304
 399   7 N     -0.175  1.240  3.936  0.000    24.798     7.396
 400   6 C      0.022  1.059  2.919  0.000    20.206     6.401
 401   6 C      0.282  1.036  2.682  0.000    22.230     7.721
 402   8 O     -0.500  1.757  4.743  0.000    23.792     6.540
 403   6 C      0.066  1.040  2.894  0.000    19.670     6.352
 404   8 O     -0.463  1.709  4.754  0.000    22.120     6.349
 405   1 H      0.220  0.780  0.000  0.000     1.007     1.572
 406   1 H      0.045  0.955  0.000  0.000     2.389     2.417
 407   1 H      0.056  0.944  0.000  0.000     2.248     2.345
 408   1 H      0.043  0.957  0.000  0.000     2.416     2.431
 409   1 H      0.373  0.627  0.000  0.000     0.537     1.151
 410   7 N     -0.167  1.244  3.923  0.000    24.610     7.368
 411   6 C      0.011  1.063  2.926  0.000    20.403     6.432
 412   6 C      0.271  1.046  2.684  0.000    22.423     7.754
 413   8 O     -0.482  1.747  4.736  0.000    23.397     6.485
 414   6 C     -0.080  1.057  3.023  0.000    22.030     6.682
 415   6 C     -0.093  1.056  3.037  0.000    22.276     6.720
 416   6 C     -0.095  1.053  3.042  0.000    22.307     6.724
 417   6 C     -0.053  1.060  2.993  0.000    21.629     6.639
 418   7 N     -0.148  1.234  3.915  0.000    24.201     7.307
 419   1 H      0.224  0.776  0.000  0.000     0.990     1.559
 420   1 H      0.094  0.906  0.000  0.000     1.845     2.124
 421   1 H      0.062  0.938  0.000  0.000     2.181     2.310
 422   1 H      0.074  0.926  0.000  0.000     2.045     2.236
 423   1 H      0.073  0.927  0.000  0.000     2.051     2.240
 424   1 H      0.091  0.909  0.000  0.000     1.872     2.140
 425   1 H      0.083  0.917  0.000  0.000     1.944     2.181
 426   1 H      0.064  0.936  0.000  0.000     2.151     2.294
 427   1 H      0.128  0.872  0.000  0.000     1.547     1.945
 428   1 H      0.119  0.881  0.000  0.000     1.621     1.991
 429   1 H      0.306  0.694  0.000  0.000     0.696     1.307
 430   1 H      0.291  0.709  0.000  0.000     0.740     1.347
 431   1 H      0.301  0.699  0.000  0.000     0.711     1.321
 432   7 N     -0.192  1.246  3.945  0.000    25.160     7.450
 433   6 C      0.030  1.054  2.916  0.000    20.071     6.380
 434   6 C      0.273  1.045  2.682  0.000    22.386     7.748
 435   8 O     -0.496  1.735  4.761  0.000    23.705     6.528
 436   6 C     -0.115  1.038  3.076  0.000    22.745     6.799
 437   1 H      0.208  0.792  0.000  0.000     1.066     1.618
 438   1 H      0.087  0.913  0.000  0.000     1.911     2.162
 439   1 H      0.059  0.941  0.000  0.000     2.212     2.326
 440   1 H      0.080  0.920  0.000  0.000     1.980     2.201
 441   1 H      0.041  0.959  0.000  0.000     2.439     2.442
 442   7 N     -0.180  1.252  3.929  0.000    24.909     7.413
 443   6 C      0.047  1.052  2.901  0.000    19.793     6.335
 444   6 C      0.283  1.040  2.676  0.000    22.204     7.717
 445   8 O     -0.491  1.742  4.749  0.000    23.594     6.512
 446   6 C     -0.048  1.048  2.999  0.000    21.423     6.588
 447   6 C     -0.089  1.065  3.025  0.000    22.202     6.709
 448   6 C      0.369  1.026  2.605  0.000    20.737     7.452
 449   8 O     -0.635  1.770  4.865  0.000    26.992     6.966
 450   8 O     -0.652  1.772  4.880  0.000    27.433     7.022
 451   1 H      0.220  0.780  0.000  0.000     1.010     1.574
 452   1 H      0.037  0.963  0.000  0.000     2.488     2.467
 453   1 H      0.053  0.947  0.000  0.000     2.282     2.362
 454   1 H      0.035  0.965  0.000  0.000     2.513     2.479
 455   1 H      0.023  0.977  0.000  0.000     2.690     2.565
 456   1 H      0.017  0.983  0.000  0.000     2.779     2.607
 457   7 N     -0.186  1.249  3.937  0.000    25.025     7.430
 458   6 C     -0.023  1.047  2.975  0.000    21.052     6.545
 459   6 C      0.277  1.039  2.684  0.000    22.313     7.735
 460   8 O     -0.510  1.743  4.767  0.000    24.006     6.569
 461   1 H      0.220  0.780  0.000  0.000     1.011     1.575
 462   1 H      0.095  0.905  0.000  0.000     1.835     2.118
 463   1 H      0.089  0.911  0.000  0.000     1.892     2.151
 464   7 N     -0.164  1.244  3.920  0.000    24.556     7.360
 465   6 C      0.040  1.054  2.906  0.000    19.904     6.351
 466   6 C      0.213  1.084  2.703  0.000    23.498     7.939
 467   8 O     -0.365  1.740  4.624  0.000    20.991     6.143
 468   6 C     -0.063  1.048  3.015  0.000    21.703     6.631
 469   6 C      0.053  1.063  2.884  0.000    26.307     8.364
 470   7 N     -0.304  1.492  3.812  0.000    28.734     7.948
 471   6 C     -0.036  1.064  2.972  0.000    28.842     8.808
 472   6 C      0.086  1.062  2.852  0.000    25.829     8.313
 473   7 N     -0.094  1.242  3.852  0.000    23.078     7.135
 474   1 H      0.227  0.773  0.000  0.000     0.977     1.548
 475   1 H      0.089  0.911  0.000  0.000     1.889     2.149
 476   1 H      0.079  0.921  0.000  0.000     1.988     2.205
 477   1 H      0.052  0.948  0.000  0.000     2.295     2.369
 478   1 H      0.048  0.952  0.000  0.000     2.350     2.397
 479   1 H      0.060  0.940  0.000  0.000     2.201     2.320
 480   1 H      0.211  0.789  0.000  0.000     1.050     1.605
 481   7 N     -0.379  1.305  4.074  0.000    29.795     8.107
 482   6 C      0.048  1.056  2.896  0.000    19.782     6.336
 483   6 C      0.201  1.093  2.707  0.000    23.727     7.977
 484   8 O     -0.380  1.756  4.624  0.000    21.290     6.186
 485   6 C     -0.063  1.051  3.012  0.000    21.697     6.630
 486   6 C      0.013  1.083  2.905  0.000    27.731     8.638
 487   6 C     -0.036  1.080  2.956  0.000    28.904     8.817
 488   6 C     -0.045  1.081  2.964  0.000    29.122     8.850
 489   6 C     -0.032  1.078  2.954  0.000    28.803     8.801
 490   6 C     -0.037  1.080  2.957  0.000    28.913     8.818
 491   6 C     -0.036  1.078  2.958  0.000    28.905     8.816
 492   1 H      0.165  0.835  0.000  0.000     1.304     1.789
 493   1 H      0.061  0.939  0.000  0.000     2.182     2.310
 494   1 H      0.057  0.943  0.000  0.000     2.230     2.335
 495   1 H      0.040  0.960  0.000  0.000     2.445     2.445
 496   1 H      0.027  0.973  0.000  0.000     2.627     2.535
 497   1 H      0.046  0.954  0.000  0.000     2.371     2.408
 498   1 H      0.020  0.980  0.000  0.000     2.735     2.586
 499   1 H      0.058  0.942  0.000  0.000     2.226     2.333
 500   1 H      0.036  0.964  0.000  0.000     2.496     2.471
 501   1 H      0.184  0.816  0.000  0.000     1.189     1.708
 502   1 H      0.077  0.923  0.000  0.000     2.013     2.218
 503   1 H      0.182  0.818  0.000  0.000     1.204     1.719
 504   1 H      0.091  0.909  0.000  0.000     1.867     2.137
 505   1 H      0.183  0.817  0.000  0.000     1.195     1.712
 506   1 H      0.075  0.925  0.000  0.000     2.029     2.227
 507   1 H      0.166  0.834  0.000  0.000     1.296     1.783
 508   1 H      0.072  0.928  0.000  0.000     2.062     2.245

 Mol. C6AA /au·bohr⁶  :    2400901.657694
 Mol. C8AA /au·bohr⁸  :   53442460.894744
 Mol. α(0) /au        :       2316.863055

 
molecular dipole:
                 x           y           z       tot (Debye)
 q only:      310.849      83.818     211.700
   full:      312.708      86.903     208.920     981.103
molecular quadrupole (traceless):
                xx          xy          yy          xz          yz          zz
 q only:    71352.854   37933.625  -64706.072   99514.014   26452.558   -6646.782
  q+dip:    72754.757   39778.229  -63966.079   98684.420   26922.026   -8788.678
   full:    72751.376   39776.940  -63964.353   98683.740   26925.031   -8787.023
speedup 15.96
cpu  time for grad    1 m 10.2 s
wall time for grad    0 m  4.4 s

SCC energy    :    -811.4849902
rep           :       9.3755614
ES            :       2.7497556
AES           :      -0.1635271
AXC           :       0.2201477
disp          :      -0.6977316
XB            :       0.0000000
fix           :       0.0000000
Gborn         :       0.0000000
Gsasa         :       0.0000000
Ghb           :       0.0000000
Gshift        :       0.0000000
Gsolv         :      -0.7441255     -466.95
Etot ala COSMO:    -811.4849902
grad norm     :       0.4468678
total E       :    -802.0317804
atomizationE  :     144.0049987    90364.50
(atE without considering molecular charge,
 total energy contains solvation terms)
H-L gap (eV)  :          1.4034

------------------------------------------------------------------------
 * finished run on 2019/02/13 at 00:17:28.057     
------------------------------------------------------------------------
 total:
 * wall-time:     0 d,  0 h,  0 min,  4.921 sec
 *  cpu-time:     0 d,  0 h,  1 min, 18.142 sec
 * ratio c/w:    15.880 speedup
 SCF:
 * wall-time:     0 d,  0 h,  0 min,  4.664 sec
 *  cpu-time:     0 d,  0 h,  1 min, 14.245 sec
 * ratio c/w:    15.919 speedup

