      -----------------------------------------------------------      
     |                   =====================                   |     
     |                           x T B                           |     
     |                   =====================                   |     
     |                         S. Grimme                         |     
     |          Mulliken Center for Theoretical Chemistry        |     
     |                    University of Bonn                     |     
     |                 Version 6.0.1 (SAW181210)                 |     
      -----------------------------------------------------------      

   This program is distributed in the hope that it will be useful,
   but WITHOUT ANY WARRANTY; without even the implied warranty of
   MERCHANTABILITY or FITNESS FOR A PARTICULAR PURPOSE.
   
   FOR NON-COMMERCIAL, ACADEMIA USE ONLY.
   
   Cite this work as:
   S. Grimme, C. Bannwarth, P. Shushkov, J. Comput. Theory Chem., 2017,
   13, 1989-2009.
   C. Bannwarth, S. Ehlert and S. Grimme., ChemRxiv, 2018, preprint.
   http://doi.org/10.26434/chemrxiv.7246238.v1
   
   for sTDA-xTB:
   S. Grimme and C. Bannwarth, J. Chem. Phys., 2016, 145, 054103.
   
   in the mass-spec context:
   V. Asgeirsson, C. Bauer and S. Grimme, Chem. Sci., 2017, 8, 4879.
   
   if GBSA is used:
   P. Shushkov, F. März and S. Grimme, unpublished.
   
   for ANC optimizer:
   S. Grimme, unpublished.
   Rational Function algorithm used in ANCopt:
   F. Eckert, P. Pulay, H.-J. Werner, J. Comput. Chem., 1997, 18, 1473.
   
   with help from (in alphabetical order)
   C. Bannwarth, F. Bohle, G. Brandenburg, E. Caldeweyher, M. Checinski,
   S. Dohm, S. Ehlert, S. Ehrlich, F. März, H. Neugebauer, J. Pisarek,
   P. Pracht, P. Shushkov, and S. Spicher.
   
 * started run on 2019/03/07 at 11:37:44.768     
========================================================================
 # omp threads = 1
========================================================================
number of atoms            : 264
number of electrons        : 722
charge                     : 1
spin                       : .0
first test random number   : .0999
           ------------------------------------------------- 
          |                 G F N 2 - x T B                 |
          | Geometry, Frequencies, Noncovalent interactions |
          |            JCTC 2018 parametrisation            |
           ------------------------------------------------- 
 
      method parameters     
 k(s)        :  1.8500
 k(p)        :  2.2300
 k(d)        :  2.2300
 k(f)        :  2.0000
 kEN (H0ij)  : -2.0000
 D4 a1       :  0.5200
 D4 a2       :  5.0000
 D4 s6       :  1.0000
 D4 s8       :  2.7000
 D4 s9       :  5.0000
 alphaj      :  2.0000

 Solvent             : h2o
 Using internal parameter file: .param_gbsa2_h2o
 Gsolv ref. state (COSMO-RS): gsolv [1 M gas/solution]
 temperature (mdtemp)       :    298.150000000000     
 dielectric constant        :    80.2000000000000     
 rho                        :    1.00000000000000     
 mass                       :    18.0000000000000     
 surface tension            :    15.5689454083859     
 probe radius               :   0.975313790000000     
 vdW radii scaling          :    1.00000000000000     
 Gshift (Eh)                :   1.857443126794793E-003
 c1                         :    1.55243817000000     
 soset                      :   0.130326360000000     
 HB correction              :  T

            Z     q(EN)     CN     RAES       Cart. coordinates
     1  N   5.0   -0.24    3.31    1.99   186.00006   112.04563   349.91488
     2  C   4.0    0.03    4.43    4.43   187.45326   110.43181   348.31429
     3  C   4.0    0.15    3.49    3.11   186.48383   110.63023   345.61576
     4  O   6.0   -0.31    1.30    1.80   188.01261   110.65479   343.82052
     5  C   4.0   -0.05    4.47    4.50   187.28885   107.72383   349.30450
     6  C   4.0   -0.03    4.35    4.30   188.99527   107.31565   351.63076
     7  C   4.0   -0.08    4.22    4.03   188.49638   104.82499   352.96679
     8  C   4.0   -0.08    4.28    4.15   191.66923   107.60478   350.88620
     9  H   1.0    0.10    1.09    1.44   185.08165   111.25762   350.99959
    10  H   1.0    0.05    1.14    1.45   189.21448   110.94203   348.31996
    11  H   1.0    0.05    1.09    1.44   185.55219   107.33832   349.74670
    12  H   1.0    0.05    1.09    1.44   187.77640   106.55787   347.97792
    13  H   1.0    0.05    1.14    1.45   188.58520   108.60444   352.86853
    14  H   1.0    0.05    1.06    1.44   189.61699   104.66814   354.40865
    15  H   1.0    0.05    1.06    1.44   186.75595   104.77586   353.53938
    16  H   1.0    0.05    1.06    1.44   188.79685   103.43793   351.80650
    17  H   1.0    0.05    1.06    1.44   192.74260   107.34777   352.34885
    18  H   1.0    0.05    1.06    1.44   192.08308   106.36511   349.60119
    19  H   1.0    0.05    1.07    1.44   191.93946   109.29041   350.21913
    20  N   5.0   -0.17    3.54    2.10   183.98750   110.71904   345.23970
    21  C   4.0    0.04    4.52    4.56   183.01618   111.07431   342.66590
    22  C   4.0    0.17    3.57    3.15   184.00640   113.69536   341.91379
    23  O   6.0   -0.31    1.35    1.80   184.94181   114.05630   339.85020
    24  C   4.0    0.05    4.29    4.17   180.10222   110.89668   342.40133
    25  O   6.0   -0.26    2.11    1.84   179.46538   110.39779   339.78217
    26  C   4.0   -0.08    4.22    4.04   178.78697   113.27395   343.33864
    27  H   1.0    0.09    1.12    1.45   182.85933   110.58298   346.40188
    28  H   1.0    0.07    1.12    1.45   183.58877   109.72127   341.56986
    29  H   1.0    0.05    1.11    1.45   179.50885   109.51907   343.45391
    30  H   1.0    0.15    1.07    1.44   177.88935   110.29763   339.63100
    31  H   1.0    0.06    1.05    1.44   176.97472   113.08876   343.14211
    32  H   1.0    0.05    1.06    1.44   179.18570   113.53662   345.10931
    33  H   1.0    0.06    1.06    1.44   179.36145   114.71581   342.36354
    34  N   5.0   -0.17    3.59    2.15   183.93081   115.48304   343.68824
    35  C   4.0    0.03    4.48    4.51   184.89646   118.03228   343.28762
    36  C   4.0    0.17    3.52    3.12   187.56664   117.78095   342.27850
    37  O   6.0   -0.30    1.30    1.80   188.20348   118.89022   340.36610
    38  C   4.0   -0.05    4.36    4.31   184.89457   119.53839   345.77827
    39  C   4.0   -0.04    4.28    4.15   182.34911   120.67601   346.63621
    40  C   4.0    0.17    3.29    3.05   181.71794   123.13454   345.24915
    41  O   6.0   -0.28    1.21    1.80   180.01340   123.20446   343.69202
    42  N   5.0   -0.23    3.24    1.97   183.15224   125.09797   345.77639
    43  H   1.0    0.09    1.14    1.45   183.31098   115.24305   345.17167
    44  H   1.0    0.06    1.12    1.45   183.83443   118.93935   342.10087
    45  H   1.0    0.05    1.09    1.44   185.50495   118.43668   347.11053
    46  H   1.0    0.06    1.10    1.44   186.10399   120.90656   345.61765
    47  H   1.0    0.06    1.09    1.44   181.01118   119.45714   346.34708
    48  H   1.0    0.05    1.09    1.44   182.40391   120.99348   348.44090
    49  H   1.0    0.12    1.09    1.44   184.33143   124.96758   346.88565
    50  H   1.0    0.13    1.09    1.44   182.90846   126.51148   345.01105
    51  N   5.0   -0.15    3.55    2.11   189.06897   116.17090   343.50493
    52  C   4.0    0.04    4.49    4.53   191.67112   115.63422   342.71314
    53  C   4.0    0.16    3.49    3.11   191.75049   114.49661   340.04863
    54  O   6.0   -0.31    1.32    1.80   193.48337   115.01250   338.58598
    55  C   4.0   -0.04    4.39    4.37   192.94858   113.84843   344.60664
    56  C   4.0    0.16    3.29    3.05   193.70825   115.18447   347.03872
    57  O   6.0   -0.28    1.22    1.80   193.03551   117.32930   347.53194
    58  N   5.0   -0.24    3.23    1.96   195.11042   113.79930   348.62042
    59  H   1.0    0.11    1.14    1.45   188.60599   115.35265   344.82963
    60  H   1.0    0.06    1.14    1.45   192.58764   117.22159   342.67534
    61  H   1.0    0.06    1.10    1.44   191.80718   112.46893   345.00349
    62  H   1.0    0.05    1.09    1.44   194.43579   113.10766   343.83186
    63  H   1.0    0.13    1.08    1.44   195.57152   114.41724   350.05095
    64  H   1.0    0.11    1.09    1.44   195.55073   112.28941   348.20657
    65  N   5.0   -0.15    3.60    2.16   189.94391   112.82231   339.50249
    66  C   4.0    0.04    4.51    4.55   189.74171   111.70926   336.98916
    67  C   4.0    0.17    3.56    3.14   189.45448   113.92024   335.17124
    68  O   6.0   -0.31    1.34    1.80   190.72059   114.03173   333.21349
    69  C   4.0   -0.03    4.42    4.42   187.40601   110.01607   336.87011
    70  C   4.0    0.17    3.30    3.05   188.04285   107.24195   336.49783
    71  O   6.0   -0.26    1.21    1.80   187.60254   106.19504   334.47015
    72  N   5.0   -0.23    3.23    1.96   189.19936   106.05898   338.37055
    73  H   1.0    0.13    1.17    1.46   188.82331   112.31019   340.56263
    74  H   1.0    0.06    1.12    1.45   191.20247   110.68503   336.57153
    75  H   1.0    0.07    1.11    1.44   186.44414   110.20882   338.41779
    76  H   1.0    0.07    1.10    1.44   186.32887   110.57542   335.49628
    77  H   1.0    0.13    1.09    1.44   189.66612   104.51318   338.18914
    78  H   1.0    0.12    1.09    1.44   189.48471   106.83566   339.76895
    79  N   5.0   -0.16    3.62    2.18   187.82553   115.70414   335.81942
    80  C   4.0    0.04    4.48    4.51   187.41357   117.99071   334.36055
    81  C   4.0    0.16    3.53    3.13   189.93069   119.37021   334.32276
    82  O   6.0   -0.32    1.35    1.80   190.55619   120.49271   332.40090
    83  C   4.0   -0.05    4.46    4.48   185.36511   119.66501   335.62478
    84  C   4.0   -0.03    4.27    4.14   182.95004   120.28862   334.22827
    85  C   4.0   -0.08    4.22    4.04   183.63979   121.75504   331.80753
    86  C   4.0   -0.08    4.20    3.99   181.50629   117.85654   333.44781
    87  H   1.0    0.13    1.18    1.46   186.90523   115.61532   337.15546
    88  H   1.0    0.05    1.12    1.45   186.82776   117.60143   332.66736
    89  H   1.0    0.06    1.11    1.44   184.88890   118.84675   337.19514
    90  H   1.0    0.06    1.11    1.45   186.16257   121.25427   336.06886
    91  H   1.0    0.05    1.12    1.45   181.87667   121.27883   335.33565
    92  H   1.0    0.05    1.05    1.44   182.10911   122.17078   330.88723
    93  H   1.0    0.05    1.05    1.44   184.52040   123.29895   332.25729
    94  H   1.0    0.05    1.06    1.44   184.72449   120.71947   330.75306
    95  H   1.0    0.05    1.05    1.44   179.96994   118.31574   332.55775
    96  H   1.0    0.05    1.05    1.44   182.56642   116.84176   332.34988
    97  H   1.0    0.06    1.05    1.44   181.07921   116.89089   334.94637
    98  N   5.0   -0.15    3.60    2.16   191.40656   119.23604   336.38067
    99  C   4.0    0.05    4.51    4.55   193.91045   120.43412   336.45437
   100  C   4.0    0.16    3.48    3.11   195.62254   119.12832   334.55141
   101  O   6.0   -0.30    1.27    1.80   197.51038   120.13933   333.77851
   102  C   4.0   -0.03    4.37    4.32   195.11231   120.39633   339.10943
   103  C   4.0    0.17    3.28    3.05   193.82919   122.24070   340.92924
   104  O   6.0   -0.28    1.21    1.80   192.84086   124.20413   340.13933
   105  N   5.0   -0.23    3.23    1.96   193.82352   121.62654   343.36887
   106  H   1.0    0.13    1.17    1.46   190.99082   118.46125   337.74694
   107  H   1.0    0.07    1.13    1.45   193.70069   122.20291   336.01784
   108  H   1.0    0.06    1.10    1.44   195.01216   118.69936   339.79540
   109  H   1.0    0.06    1.09    1.44   196.89244   120.81585   338.97526
   110  H   1.0    0.13    1.09    1.44   193.11676   122.60920   344.45169
   111  H   1.0    0.12    1.09    1.44   194.52650   120.24704   343.86020
   112  N   5.0   -0.15    3.68    2.24   195.01027   116.74916   334.01095
   113  C   4.0    0.03    4.49    4.52   196.36898   115.22604   332.17603
   114  C   4.0    0.16    3.54    3.13   195.50160   116.24838   329.60789
   115  O   6.0   -0.31    1.31    1.80   196.93023   116.34665   327.78052
   116  C   4.0   -0.04    4.46    4.48   195.70569   112.41413   332.42169
   117  C   4.0   -0.05    4.31    4.22   197.48392   110.56787   331.18203
   118  C   4.0   -0.05    4.31    4.22   198.95224   109.10333   333.14546
   119  C   4.0   -0.04    4.31    4.22   200.05584   110.79841   335.20526
   120  N   5.0   -0.16    4.12    3.21   202.23469   112.32720   334.28685
   121  H   1.0    0.13    1.19    1.46   193.77061   115.96870   334.71582
   122  H   1.0    0.05    1.12    1.45   198.18312   115.33564   332.41224
   123  H   1.0    0.06    1.12    1.45   195.60553   112.00406   334.20559
   124  H   1.0    0.07    1.11    1.45   194.03328   112.15712   331.71871
   125  H   1.0    0.06    1.09    1.44   196.53528   109.40757   330.12567
   126  H   1.0    0.05    1.10    1.44   198.64421   111.46737   330.08410
   127  H   1.0    0.05    1.09    1.44   197.85242   107.85422   333.91458
   128  H   1.0    0.05    1.09    1.44   200.31095   108.18681   332.32532
   129  H   1.0    0.05    1.10    1.44   198.74815   111.92091   335.83076
   130  H   1.0    0.05    1.08    1.44   200.59441   109.76284   336.61877
   131  H   1.0    0.08    1.09    1.44   202.64287   113.47615   335.44525
   132  H   1.0    0.08    1.09    1.44   203.55183   111.31809   334.00906
   133  H   1.0    0.07    1.09    1.44   201.81328   113.10199   332.85444
   134  N   5.0   -0.16    3.66    2.22   193.11298   116.97971   329.47939
   135  C   4.0    0.05    4.47    4.50   192.10009   118.00205   327.16258
   136  C   4.0    0.17    3.50    3.12   193.44369   120.60609   326.94338
   137  O   6.0   -0.31    1.28    1.80   194.13155   121.38088   324.89302
   138  C   4.0    0.03    4.24    4.08   189.22393   118.20803   327.19471
   139  O   6.0   -0.26    2.08    1.84   188.24883   118.56519   324.70783
   140  H   1.0    0.12    1.17    1.46   192.05663   116.89656   330.71149
   141  H   1.0    0.07    1.13    1.45   192.41190   116.92679   325.71127
   142  H   1.0    0.05    1.07    1.44   188.50583   116.68869   327.92603
   143  H   1.0    0.06    1.08    1.44   188.71748   119.60831   328.26240
   144  H   1.0    0.15    1.08    1.44   186.66524   118.67101   324.77019
   145  N   5.0   -0.16    3.66    2.22   193.86132   121.86465   329.09388
   146  C   4.0    0.04    4.47    4.50   195.17657   124.28350   329.23561
   147  C   4.0    0.17    3.51    3.12   197.87320   123.75059   328.30965
   148  O   6.0   -0.30    1.22    1.80   199.22058   125.41544   327.34211
   149  C   4.0   -0.04    4.41    4.39   195.29184   125.18867   331.94359
   150  C   4.0   -0.03    4.31    4.21   196.67512   127.74547   332.42736
   151  C   4.0    0.17    3.32    3.06   197.21369   128.07240   335.18447
   152  O   6.0   -0.25    1.21    1.80   199.34530   127.68311   336.05941
   153  N   5.0   -0.23    3.26    1.97   195.27294   128.56184   336.63767
   154  H   1.0    0.13    1.19    1.46   193.37188   121.31474   330.54330
   155  H   1.0    0.06    1.12    1.45   194.32619   125.56662   328.23973
   156  H   1.0    0.05    1.09    1.44   193.57597   125.33985   332.56909
   157  H   1.0    0.07    1.11    1.45   196.11576   123.89421   332.94515
   158  H   1.0    0.07    1.09    1.44   198.24170   127.79461   331.47872
   159  H   1.0    0.05    1.09    1.44   195.64144   129.13442   331.82643
   160  H   1.0    0.11    1.10    1.44   193.81029   128.82451   335.98005
   161  H   1.0    0.14    1.09    1.44   195.46002   128.62042   338.25150
   162  N   5.0   -0.15    3.64    2.20   198.67445   121.40922   328.74051
   163  C   4.0    0.05    4.46    4.48   201.17833   120.55129   328.01485
   164  C   4.0    0.17    3.50    3.11   201.23692   120.17145   325.15192
   165  O   6.0   -0.29    1.30    1.80   203.14932   120.66467   323.91415
   166  C   4.0    0.04    4.27    4.15   201.83407   118.04362   329.31120
   167  O   6.0   -0.25    2.07    1.83   204.47969   117.58253   329.44348
   168  H   1.0    0.12    1.18    1.46   197.77116   120.27161   329.46805
   169  H   1.0    0.07    1.12    1.45   202.40477   121.81173   328.52886
   170  H   1.0    0.06    1.08    1.44   201.13865   118.04551   331.00818
   171  H   1.0    0.06    1.09    1.44   201.02905   116.66979   328.40224
   172  H   1.0    0.15    1.08    1.44   204.74047   116.19358   330.16914
   173  N   5.0   -0.15    3.60    2.15   199.05239   119.43257   324.12391
   174  C   4.0    0.04    4.43    4.44   198.80673   119.09053   321.37057
   175  C   4.0    0.17    3.58    3.16   199.52860   121.64166   320.23485
   176  O   6.0   -0.30    1.32    1.80   200.88354   121.77961   318.34890
   177  C   4.0   -0.07    4.26    4.12   196.10442   118.48960   320.67893
   178  H   1.0    0.13    1.16    1.46   197.70124   119.12076   324.97050
   179  H   1.0    0.06    1.11    1.45   199.85742   117.71670   320.76208
   180  H   1.0    0.06    1.06    1.44   195.97214   118.27039   318.86480
   181  H   1.0    0.06    1.06    1.44   195.58664   116.94569   321.51986
   182  H   1.0    0.07    1.07    1.44   195.01594   119.86721   321.20806
   183  N   5.0   -0.16    3.58    2.14   198.42311   123.65233   321.25152
   184  C   4.0    0.04    4.51    4.55   198.99948   126.18834   320.34445
   185  C   4.0    0.17    3.57    3.15   201.84730   126.48314   320.27831
   186  O   6.0   -0.27    1.25    1.80   202.81484   127.57162   318.49063
   187  C   4.0   -0.05    4.45    4.47   197.85431   128.14043   322.15481
   188  C   4.0   -0.03    4.27    4.14   198.44201   130.97313   321.93749
   189  C   4.0   -0.07    4.17    3.93   200.97235   131.73280   323.28298
   190  C   4.0   -0.07    4.23    4.07   198.47036   131.73091   319.18416
   191  H   1.0    0.11    1.14    1.45   197.34030   123.58997   322.46095
   192  H   1.0    0.06    1.12    1.45   198.29839   126.44723   318.67016
   193  H   1.0    0.05    1.10    1.44   196.03261   127.96846   322.03387
   194  H   1.0    0.07    1.11    1.45   198.33052   127.63020   323.84989
   195  H   1.0    0.04    1.13    1.45   197.11542   131.88586   322.81244
   196  H   1.0    0.06    1.05    1.44   201.25203   133.53370   323.08834
   197  H   1.0    0.06    1.05    1.44   200.86464   131.32084   325.06499
   198  H   1.0    0.06    1.05    1.44   202.36697   130.81439   322.52709
   199  H   1.0    0.06    1.06    1.44   198.84074   133.52048   319.04621
   200  H   1.0    0.07    1.07    1.44   199.75537   130.77093   318.29788
   201  H   1.0    0.05    1.06    1.44   196.83197   131.38887   318.43772
   202  N   5.0   -0.15    3.53    2.10   203.17578   125.43623   322.13024
   203  C   4.0    0.03    4.36    4.31   205.90454   125.60441   322.26064
   204  C   4.0    0.18    3.44    3.09   206.99113   124.30617   319.96084
   205  O   6.0   -0.24    1.26    1.80   208.37441   125.45324   318.51520
   206  H   1.0    0.12    1.15    1.45   202.50681   124.60286   323.35479
   207  H   1.0    0.07    1.09    1.44   206.43555   127.35808   322.31544
   208  H   1.0    0.06    1.09    1.44   206.52059   124.81073   323.79320
   209  N   5.0   -0.15    3.53    2.10   206.14264   121.96669   319.47707
   210  C   4.0    0.05    4.45    4.46   207.08184   120.59097   317.29633
   211  C   4.0    0.11    3.32    3.06   206.44122   122.13866   314.95307
   212  O   6.0   -0.23    1.11    1.80   208.04938   122.38054   313.25042
   213  C   4.0    0.06    4.33    4.26   205.93855   117.88866   317.24341
   214  O   6.0   -0.25    2.14    1.85   207.70923   116.17846   316.19462
   215  C   4.0   -0.07    4.25    4.10   203.49136   117.83953   315.76376
   216  H   1.0    0.13    1.15    1.45   205.04660   121.17301   320.37658
   217  H   1.0    0.08    1.13    1.45   208.89976   120.36609   317.36625
   218  H   1.0    0.05    1.11    1.45   205.56061   117.37844   318.96306
   219  H   1.0    0.15    1.08    1.44   207.08562   114.71959   316.17194
   220  H   1.0    0.06    1.06    1.44   202.81484   116.13689   315.75620
   221  H   1.0    0.08    1.09    1.44   202.28193   118.97337   316.54421
   222  H   1.0    0.07    1.06    1.44   203.80694   118.37621   314.04033
   223  N   5.0   -0.22    3.23    1.96   188.57575   135.75980   321.28743
   224  C   4.0    0.04    4.35    4.30   189.87588   134.33873   323.25463
   225  C   4.0    0.09    3.22    3.04   190.70547   135.97712   325.44293
   226  O   6.0   -0.26    1.12    1.80   190.41257   135.22690   327.63313
   227  C   4.0   -0.05    4.42    4.41   192.13978   132.87797   322.20961
   228  C   4.0   -0.04    4.37    4.32   191.40467   130.50447   320.88869
   229  C   4.0    0.16    3.34    3.06   190.07997   128.59774   322.51575
   230  O   6.0   -0.28    1.28    1.80   188.71559   129.26292   324.26563
   231  N   5.0   -0.23    3.25    1.97   190.49004   126.21669   322.03576
   232  H   1.0    0.11    1.08    1.44   189.19180   135.55949   319.79643
   233  H   1.0    0.08    1.16    1.46   188.64189   133.14064   323.88958
   234  H   1.0    0.04    1.10    1.44   193.06385   133.95133   321.04743
   235  H   1.0    0.05    1.10    1.44   193.28117   132.47168   323.58533
   236  H   1.0    0.05    1.10    1.44   190.31430   130.93155   319.47896
   237  H   1.0    0.04    1.11    1.44   192.91078   129.73158   320.18761
   238  H   1.0    0.11    1.10    1.44   191.45381   125.79150   320.79799
   239  H   1.0    0.13    1.09    1.44   189.79652   125.07151   322.95605
   240  N   5.0   -0.22    3.23    1.96   183.39601   135.02092   339.55919
   241  C   4.0    0.03    4.27    4.14   183.48294   132.82884   341.22215
   242  C   4.0    0.09    3.21    3.04   184.66402   133.54504   343.75060
   243  O   6.0   -0.26    1.12    1.80   184.08954   132.37152   345.67245
   244  C   4.0   -0.05    4.41    4.39   185.00984   130.65943   339.98437
   245  C   4.0   -0.03    4.27    4.13   183.75884   129.24025   337.73938
   246  C   4.0   -0.08    4.20    4.00   185.59376   127.21068   336.74916
   247  C   4.0   -0.08    4.21    4.02   181.27196   128.01759   338.51984
   248  H   1.0    0.11    1.08    1.44   184.21993   134.88486   338.16457
   249  H   1.0    0.06    1.12    1.45   181.76707   132.25058   341.50749
   250  H   1.0    0.05    1.09    1.44   186.60477   131.34918   339.40045
   251  H   1.0    0.06    1.09    1.44   185.40290   129.42922   341.28451
   252  H   1.0    0.05    1.12    1.45   183.39223   130.45534   336.41657
   253  H   1.0    0.05    1.05    1.44   184.82087   126.31873   335.34699
   254  H   1.0    0.05    1.05    1.44   187.14334   128.01004   336.18414
   255  H   1.0    0.05    1.05    1.44   185.97549   126.02204   338.09276
   256  H   1.0    0.05    1.06    1.44   180.53875   127.14832   337.08176
   257  H   1.0    0.06    1.06    1.44   181.57810   126.81384   339.86910
   258  H   1.0    0.05    1.06    1.44   180.11167   129.31017   339.10754
   259  H   1.0    0.10    1.08    1.44   187.04261   113.06416   350.79138
   260  H   1.0    0.08    1.04    1.43   204.74202   122.94968   314.79183
   261  H   1.0    0.11    1.08    1.44   186.94672   135.27581   321.21990
   262  H   1.0    0.07    1.04    1.44   191.48975   137.66493   325.11544
   263  H   1.0    0.11    1.08    1.44   181.78268   135.34237   339.12745
   264  H   1.0    0.07    1.04    1.44   185.90433   134.96765   343.84493

  Z AO/shell   Hii/eV     exponent
  1     Wed Apr 25 08:07:45 CEST 2018   EN: 2.200 GM2: 0.406  GM3: 0.0800  RAES: 1.40
     1s    -10.707211    1.230000
  6     Wed Apr 25 08:07:45 CEST 2018   EN: 2.550 GM2: 0.538  GM3: 0.1500  RAES: 3.00
     2s    -13.970922    2.096432
     2p    -10.063292    1.800000
  7     Wed Apr 25 08:07:45 CEST 2018   EN: 3.040 GM2: 0.461  GM3:-0.0640  RAES: 1.90
     2s    -16.686243    2.339881
     2p    -12.523956    2.014332
  8     Wed Apr 25 08:07:45 CEST 2018   EN: 3.440 GM2: 0.452  GM3:-0.0517  RAES: 1.80
     2s    -20.229985    2.439742
     2p    -15.503117    2.137023
 no old-style atom pair restraining (fixing) potential

molecular fragmentation (1/2 indicates fragments):
111111111111111111111111111111111111111111111111111111111111111111111111
111111111111111111111111111111111111111111111111111111111111111111111111
111111111111111111111111111111111111111111111111111111111111111111111111
111111222222222222222222222222222222222222112222
# atoms in fragment 1/2:   224    40
 fragment masses (1/2) :     1573.74      245.32
CMA distance (Bohr)    :  14.944
constraining FC (au)   :  0.0500
           ------------------------------------------------- 
          |        Self-Consistent Charge Iterations        |
           ------------------------------------------------- 

 Ncao       : 645
 Nao        : 645
 Nshell     : 391
 Nel        : 722
 T(el)      :   500.0
 intcut     :    35.0
 scfconv/Eh :  0.100E-06
   qconv/e  :  0.100E-04
 intneglect :  0.100E-08
 broydamp   :      0.400
 iter      E             dE          RMSdq      gap      omega  full diag
   1   -418.1516296 -0.418152E+03  0.473E+00    3.06       0.0  T
   2   -419.2111850 -0.105956E+01  0.219E+00    1.95       1.0  T
   3   -419.2666754 -0.554904E-01  0.124E+00    2.34       1.0  T
   4   -419.3247772 -0.581019E-01  0.249E-01    2.04       1.0  T
   5   -419.3295467 -0.476947E-02  0.109E-01    2.16       1.0  T
   6   -419.3299675 -0.420800E-03  0.459E-02    2.13       1.0  T
   7   -419.3300891 -0.121659E-03  0.172E-02    2.13       1.0  T
   8   -419.3300990 -0.986212E-05  0.853E-03    2.13       1.0  T
   9   -419.3301026 -0.358468E-05  0.280E-03    2.12       2.2  T
  10   -419.3301030 -0.380891E-06  0.115E-03    2.12       5.4  T
  11   -419.3301030 -0.729133E-07  0.471E-04    2.13      13.1  T
  12   -419.3301030 -0.706842E-08  0.196E-04    2.13      31.3  T
  13   -419.3301031 -0.185480E-08  0.813E-05    2.12      75.7  T
  14   -419.3301031 -0.305363E-09  0.364E-05    2.12     168.9  T
speedup  1.00
cpu  time for SCC    2.60 s
wall time for SCC    2.60 s

   *** convergence criteria satisfied after 14 iterations ***

          eigenvalues
 #    :         349        350        351        352        353        354        355        356
 occ. :        2.000      2.000      2.000      2.000      2.000      2.000      2.000      2.000
 eps  :       -11.247    -11.196    -11.117    -11.090    -10.950    -10.909    -10.827    -10.784
 #    :         357        358        359        360        361        362        363        364
 occ. :        2.000      2.000      2.000      2.000      2.000      0.000      0.000      0.000
 eps  :       -10.723    -10.684    -10.632    -10.039     -9.887     -7.762     -7.646     -7.641
 #    :         365        366        367        368        369        370        371        372
 occ. :        0.000      0.000      0.000      0.000      0.000      0.000      0.000      0.000
 eps  :        -7.219     -7.116     -6.921     -6.887     -6.822     -6.745     -6.711     -6.631


   #   Z            q   n(s)   n(p)   n(d)      C6AA      α(0)
   1   7 N     -0.420  1.274  4.146  0.000    30.947     8.262
   2   6 C      0.019  1.030  2.950  0.000    20.259     6.410
   3   6 C      0.248  1.061  2.691  0.000    22.831     7.825
   4   8 O     -0.508  1.749  4.759  0.000    23.963     6.563
   5   6 C     -0.101  1.016  3.085  0.000    22.416     6.737
   6   6 C     -0.026  1.026  3.000  0.000    21.002     6.518
   7   6 C     -0.152  0.977  3.175  0.000    23.469     6.903
   8   6 C     -0.157  0.973  3.183  0.000    23.555     6.914
   9   1 H      0.190  0.810  0.000  0.000     1.159     1.686
  10   1 H      0.070  0.930  0.000  0.000     2.083     2.257
  11   1 H      0.058  0.942  0.000  0.000     2.226     2.333
  12   1 H      0.063  0.937  0.000  0.000     2.164     2.300
  13   1 H      0.050  0.950  0.000  0.000     2.324     2.384
  14   1 H      0.055  0.945  0.000  0.000     2.262     2.352
  15   1 H      0.048  0.952  0.000  0.000     2.345     2.395
  16   1 H      0.054  0.946  0.000  0.000     2.274     2.358
  17   1 H      0.058  0.942  0.000  0.000     2.223     2.331
  18   1 H      0.061  0.939  0.000  0.000     2.186     2.312
  19   1 H      0.053  0.947  0.000  0.000     2.280     2.361
  20   7 N     -0.185  1.211  3.975  0.000    25.013     7.428
  21   6 C     -0.006  1.049  2.957  0.000    20.684     6.475
  22   6 C      0.276  1.041  2.684  0.000    22.338     7.740
  23   8 O     -0.473  1.733  4.739  0.000    23.187     6.456
  24   6 C      0.096  1.029  2.875  0.000    19.092     6.239
  25   8 O     -0.507  1.695  4.812  0.000    23.053     6.482
  26   6 C     -0.174  0.982  3.192  0.000    23.934     6.972
  27   1 H      0.225  0.775  0.000  0.000     0.986     1.556
  28   1 H      0.112  0.888  0.000  0.000     1.677     2.025
  29   1 H      0.071  0.929  0.000  0.000     2.069     2.249
  30   1 H      0.345  0.655  0.000  0.000     0.600     1.216
  31   1 H      0.078  0.922  0.000  0.000     1.995     2.209
  32   1 H      0.075  0.925  0.000  0.000     2.026     2.226
  33   1 H      0.069  0.931  0.000  0.000     2.092     2.261
  34   7 N     -0.193  1.206  3.987  0.000    25.187     7.454
  35   6 C      0.004  1.042  2.954  0.000    20.516     6.449
  36   6 C      0.272  1.038  2.691  0.000    22.409     7.752
  37   8 O     -0.477  1.742  4.735  0.000    23.282     6.469
  38   6 C     -0.104  1.015  3.090  0.000    22.483     6.749
  39   6 C     -0.134  1.018  3.116  0.000    23.067     6.836
  40   6 C      0.284  1.033  2.682  0.000    22.185     7.712
  41   8 O     -0.505  1.756  4.749  0.000    23.894     6.554
  42   7 N     -0.289  1.190  4.098  0.000    27.443     7.780
  43   1 H      0.225  0.775  0.000  0.000     0.985     1.554
  44   1 H      0.101  0.899  0.000  0.000     1.778     2.085
  45   1 H      0.094  0.906  0.000  0.000     1.837     2.120
  46   1 H      0.084  0.916  0.000  0.000     1.937     2.176
  47   1 H      0.092  0.908  0.000  0.000     1.855     2.130
  48   1 H      0.098  0.902  0.000  0.000     1.804     2.100
  49   1 H      0.238  0.762  0.000  0.000     0.931     1.511
  50   1 H      0.219  0.781  0.000  0.000     1.015     1.578
  51   7 N     -0.185  1.203  3.982  0.000    25.017     7.428
  52   6 C      0.007  1.041  2.952  0.000    20.467     6.442
  53   6 C      0.253  1.047  2.700  0.000    22.741     7.809
  54   8 O     -0.480  1.739  4.741  0.000    23.353     6.479
  55   6 C     -0.142  1.022  3.121  0.000    23.221     6.858
  56   6 C      0.278  1.034  2.688  0.000    22.297     7.732
  57   8 O     -0.485  1.749  4.736  0.000    23.459     6.494
  58   7 N     -0.301  1.198  4.103  0.000    27.749     7.824
  59   1 H      0.215  0.785  0.000  0.000     1.030     1.590
  60   1 H      0.099  0.901  0.000  0.000     1.794     2.094
  61   1 H      0.118  0.882  0.000  0.000     1.633     1.998
  62   1 H      0.119  0.881  0.000  0.000     1.622     1.991
  63   1 H      0.242  0.758  0.000  0.000     0.914     1.498
  64   1 H      0.239  0.761  0.000  0.000     0.928     1.509
  65   7 N     -0.178  1.214  3.964  0.000    24.864     7.406
  66   6 C      0.010  1.042  2.948  0.000    20.412     6.432
  67   6 C      0.264  1.042  2.693  0.000    22.542     7.775
  68   8 O     -0.498  1.742  4.756  0.000    23.741     6.533
  69   6 C     -0.133  1.018  3.114  0.000    23.025     6.829
  70   6 C      0.284  1.032  2.684  0.000    22.189     7.713
  71   8 O     -0.502  1.762  4.740  0.000    23.829     6.545
  72   7 N     -0.294  1.194  4.100  0.000    27.585     7.800
  73   1 H      0.236  0.764  0.000  0.000     0.940     1.518
  74   1 H      0.115  0.885  0.000  0.000     1.656     2.012
  75   1 H      0.107  0.893  0.000  0.000     1.725     2.054
  76   1 H      0.096  0.904  0.000  0.000     1.820     2.109
  77   1 H      0.248  0.752  0.000  0.000     0.892     1.480
  78   1 H      0.241  0.759  0.000  0.000     0.919     1.502
  79   7 N     -0.186  1.213  3.973  0.000    25.031     7.431
  80   6 C      0.009  1.041  2.949  0.000    20.423     6.435
  81   6 C      0.269  1.045  2.685  0.000    22.455     7.760
  82   8 O     -0.502  1.740  4.762  0.000    23.818     6.543
  83   6 C     -0.099  1.014  3.085  0.000    22.368     6.731
  84   6 C     -0.032  1.040  2.992  0.000    21.115     6.536
  85   6 C     -0.154  0.980  3.174  0.000    23.517     6.910
  86   6 C     -0.159  0.982  3.177  0.000    23.626     6.927
  87   1 H      0.237  0.763  0.000  0.000     0.937     1.516
  88   1 H      0.096  0.904  0.000  0.000     1.817     2.108
  89   1 H      0.083  0.917  0.000  0.000     1.952     2.185
  90   1 H      0.074  0.926  0.000  0.000     2.040     2.233
  91   1 H      0.065  0.935  0.000  0.000     2.145     2.290
  92   1 H      0.059  0.941  0.000  0.000     2.214     2.327
  93   1 H      0.051  0.949  0.000  0.000     2.307     2.375
  94   1 H      0.051  0.949  0.000  0.000     2.307     2.375
  95   1 H      0.059  0.941  0.000  0.000     2.210     2.325
  96   1 H      0.055  0.945  0.000  0.000     2.261     2.351
  97   1 H      0.057  0.943  0.000  0.000     2.230     2.335
  98   7 N     -0.192  1.211  3.981  0.000    25.175     7.452
  99   6 C      0.012  1.040  2.948  0.000    20.369     6.426
 100   6 C      0.265  1.038  2.697  0.000    22.531     7.773
 101   8 O     -0.479  1.735  4.743  0.000    23.316     6.474
 102   6 C     -0.133  1.020  3.113  0.000    23.044     6.832
 103   6 C      0.276  1.040  2.684  0.000    22.325     7.736
 104   8 O     -0.494  1.757  4.736  0.000    23.644     6.519
 105   7 N     -0.291  1.194  4.098  0.000    27.516     7.791
 106   1 H      0.225  0.775  0.000  0.000     0.987     1.556
 107   1 H      0.100  0.900  0.000  0.000     1.784     2.088
 108   1 H      0.107  0.893  0.000  0.000     1.719     2.050
 109   1 H      0.115  0.885  0.000  0.000     1.655     2.012
 110   1 H      0.242  0.758  0.000  0.000     0.914     1.497
 111   1 H      0.232  0.768  0.000  0.000     0.958     1.533
 112   7 N     -0.191  1.207  3.984  0.000    25.143     7.447
 113   6 C     -0.010  1.046  2.964  0.000    20.757     6.487
 114   6 C      0.258  1.045  2.697  0.000    22.660     7.796
 115   8 O     -0.491  1.745  4.747  0.000    23.594     6.512
 116   6 C     -0.123  1.014  3.109  0.000    22.842     6.802
 117   6 C     -0.111  1.005  3.106  0.000    22.601     6.766
 118   6 C     -0.127  1.013  3.114  0.000    22.928     6.815
 119   6 C     -0.088  1.021  3.067  0.000    22.251     6.730
 120   7 N     -0.130  1.138  3.992  0.000    23.820     7.249
 121   1 H      0.228  0.772  0.000  0.000     0.975     1.547
 122   1 H      0.105  0.895  0.000  0.000     1.739     2.062
 123   1 H      0.102  0.898  0.000  0.000     1.764     2.077
 124   1 H      0.093  0.907  0.000  0.000     1.849     2.127
 125   1 H      0.086  0.914  0.000  0.000     1.920     2.167
 126   1 H      0.078  0.922  0.000  0.000     2.002     2.213
 127   1 H      0.109  0.891  0.000  0.000     1.702     2.040
 128   1 H      0.108  0.892  0.000  0.000     1.717     2.049
 129   1 H      0.127  0.873  0.000  0.000     1.555     1.950
 130   1 H      0.147  0.853  0.000  0.000     1.415     1.860
 131   1 H      0.292  0.708  0.000  0.000     0.738     1.345
 132   1 H      0.298  0.702  0.000  0.000     0.718     1.327
 133   1 H      0.261  0.739  0.000  0.000     0.842     1.437
 134   7 N     -0.183  1.205  3.979  0.000    24.972     7.422
 135   6 C      0.001  1.042  2.956  0.000    20.555     6.455
 136   6 C      0.267  1.047  2.686  0.000    22.492     7.766
 137   8 O     -0.472  1.734  4.738  0.000    23.167     6.453
 138   6 C      0.056  0.993  2.951  0.000    19.823     6.373
 139   8 O     -0.501  1.684  4.817  0.000    22.918     6.463
 140   1 H      0.223  0.777  0.000  0.000     0.998     1.565
 141   1 H      0.120  0.880  0.000  0.000     1.616     1.988
 142   1 H      0.070  0.930  0.000  0.000     2.089     2.260
 143   1 H      0.065  0.935  0.000  0.000     2.142     2.289
 144   1 H      0.352  0.648  0.000  0.000     0.582     1.198
 145   7 N     -0.204  1.212  3.992  0.000    25.435     7.490
 146   6 C      0.013  1.039  2.948  0.000    20.360     6.424
 147   6 C      0.268  1.046  2.687  0.000    22.480     7.765
 148   8 O     -0.497  1.757  4.740  0.000    23.722     6.530
 149   6 C     -0.095  1.009  3.086  0.000    22.298     6.720
 150   6 C     -0.124  1.012  3.111  0.000    22.857     6.804
 151   6 C      0.287  1.031  2.683  0.000    22.144     7.705
 152   8 O     -0.519  1.759  4.760  0.000    24.203     6.596
 153   7 N     -0.283  1.191  4.092  0.000    27.306     7.761
 154   1 H      0.229  0.771  0.000  0.000     0.968     1.541
 155   1 H      0.098  0.902  0.000  0.000     1.807     2.102
 156   1 H      0.081  0.919  0.000  0.000     1.970     2.195
 157   1 H      0.084  0.916  0.000  0.000     1.936     2.176
 158   1 H      0.085  0.915  0.000  0.000     1.924     2.169
 159   1 H      0.083  0.917  0.000  0.000     1.948     2.182
 160   1 H      0.233  0.767  0.000  0.000     0.953     1.529
 161   1 H      0.239  0.761  0.000  0.000     0.929     1.509
 162   7 N     -0.184  1.203  3.981  0.000    24.977     7.423
 163   6 C      0.004  1.041  2.955  0.000    20.515     6.449
 164   6 C      0.266  1.044  2.690  0.000    22.518     7.771
 165   8 O     -0.494  1.751  4.743  0.000    23.653     6.521
 166   6 C      0.046  0.997  2.957  0.000    19.985     6.398
 167   8 O     -0.505  1.696  4.809  0.000    22.998     6.474
 168   1 H      0.215  0.785  0.000  0.000     1.035     1.593
 169   1 H      0.109  0.891  0.000  0.000     1.704     2.041
 170   1 H      0.078  0.922  0.000  0.000     2.001     2.212
 171   1 H      0.082  0.918  0.000  0.000     1.960     2.189
 172   1 H      0.364  0.636  0.000  0.000     0.556     1.171
 173   7 N     -0.188  1.214  3.974  0.000    25.072     7.437
 174   6 C      0.010  1.042  2.948  0.000    20.407     6.432
 175   6 C      0.274  1.042  2.684  0.000    22.370     7.746
 176   8 O     -0.495  1.754  4.741  0.000    23.672     6.523
 177   6 C     -0.175  0.983  3.192  0.000    23.939     6.971
 178   1 H      0.229  0.771  0.000  0.000     0.968     1.541
 179   1 H      0.100  0.900  0.000  0.000     1.782     2.087
 180   1 H      0.087  0.913  0.000  0.000     1.910     2.161
 181   1 H      0.093  0.907  0.000  0.000     1.849     2.126
 182   1 H      0.093  0.907  0.000  0.000     1.848     2.126
 183   7 N     -0.193  1.207  3.986  0.000    25.188     7.454
 184   6 C      0.011  1.040  2.949  0.000    20.393     6.429
 185   6 C      0.291  1.032  2.677  0.000    22.065     7.693
 186   8 O     -0.500  1.752  4.748  0.000    23.784     6.539
 187   6 C     -0.111  1.013  3.098  0.000    22.609     6.767
 188   6 C     -0.032  1.040  2.992  0.000    21.105     6.534
 189   6 C     -0.155  0.982  3.173  0.000    23.550     6.918
 190   6 C     -0.157  0.976  3.181  0.000    23.573     6.918
 191   1 H      0.219  0.781  0.000  0.000     1.016     1.579
 192   1 H      0.094  0.906  0.000  0.000     1.836     2.119
 193   1 H      0.068  0.932  0.000  0.000     2.106     2.269
 194   1 H      0.081  0.919  0.000  0.000     1.968     2.193
 195   1 H      0.064  0.936  0.000  0.000     2.152     2.294
 196   1 H      0.059  0.941  0.000  0.000     2.208     2.323
 197   1 H      0.055  0.945  0.000  0.000     2.252     2.346
 198   1 H      0.042  0.958  0.000  0.000     2.419     2.432
 199   1 H      0.058  0.942  0.000  0.000     2.221     2.330
 200   1 H      0.059  0.941  0.000  0.000     2.214     2.327
 201   1 H      0.057  0.943  0.000  0.000     2.235     2.338
 202   7 N     -0.181  1.196  3.985  0.000    24.911     7.413
 203   6 C     -0.041  1.005  3.036  0.000    21.350     6.587
 204   6 C      0.286  1.035  2.679  0.000    22.158     7.709
 205   8 O     -0.491  1.753  4.738  0.000    23.593     6.512
 206   1 H      0.215  0.785  0.000  0.000     1.030     1.590
 207   1 H      0.096  0.904  0.000  0.000     1.821     2.110
 208   1 H      0.106  0.894  0.000  0.000     1.732     2.058
 209   7 N     -0.185  1.209  3.976  0.000    25.005     7.427
 210   6 C      0.014  1.042  2.945  0.000    20.347     6.422
 211   6 C      0.214  1.087  2.700  0.000    23.477     7.935
 212   8 O     -0.381  1.765  4.616  0.000    21.314     6.190
 213   6 C      0.110  1.025  2.865  0.000    18.865     6.200
 214   8 O     -0.506  1.688  4.818  0.000    23.026     6.478
 215   6 C     -0.184  0.983  3.201  0.000    24.140     7.002
 216   1 H      0.231  0.769  0.000  0.000     0.961     1.536
 217   1 H      0.110  0.890  0.000  0.000     1.699     2.038
 218   1 H      0.066  0.934  0.000  0.000     2.135     2.285
 219   1 H      0.356  0.644  0.000  0.000     0.574     1.190
 220   1 H      0.078  0.922  0.000  0.000     1.998     2.210
 221   1 H      0.097  0.903  0.000  0.000     1.810     2.104
 222   1 H      0.057  0.943  0.000  0.000     2.231     2.336
 223   7 N     -0.424  1.284  4.141  0.000    31.053     8.276
 224   6 C      0.020  1.032  2.948  0.000    20.250     6.408
 225   6 C      0.195  1.092  2.713  0.000    23.841     7.997
 226   8 O     -0.391  1.765  4.626  0.000    21.499     6.216
 227   6 C     -0.079  1.002  3.077  0.000    21.987     6.673
 228   6 C     -0.122  1.004  3.117  0.000    22.807     6.796
 229   6 C      0.284  1.029  2.687  0.000    22.188     7.713
 230   8 O     -0.514  1.753  4.761  0.000    24.095     6.581
 231   7 N     -0.287  1.190  4.098  0.000    27.416     7.776
 232   1 H      0.192  0.808  0.000  0.000     1.147     1.677
 233   1 H      0.099  0.901  0.000  0.000     1.795     2.095
 234   1 H      0.079  0.921  0.000  0.000     1.985     2.203
 235   1 H      0.061  0.939  0.000  0.000     2.185     2.311
 236   1 H      0.094  0.906  0.000  0.000     1.836     2.119
 237   1 H      0.078  0.922  0.000  0.000     1.994     2.208
 238   1 H      0.230  0.770  0.000  0.000     0.966     1.540
 239   1 H      0.232  0.768  0.000  0.000     0.956     1.532
 240   7 N     -0.423  1.282  4.141  0.000    31.030     8.273
 241   6 C      0.026  1.036  2.937  0.000    20.144     6.393
 242   6 C      0.196  1.095  2.709  0.000    23.828     7.994
 243   8 O     -0.391  1.758  4.633  0.000    21.493     6.216
 244   6 C     -0.096  1.018  3.078  0.000    22.319     6.724
 245   6 C     -0.027  1.038  2.989  0.000    21.024     6.522
 246   6 C     -0.151  0.980  3.171  0.000    23.458     6.902
 247   6 C     -0.150  0.977  3.173  0.000    23.424     6.897
 248   1 H      0.189  0.811  0.000  0.000     1.162     1.689
 249   1 H      0.076  0.924  0.000  0.000     2.020     2.222
 250   1 H      0.063  0.937  0.000  0.000     2.161     2.299
 251   1 H      0.061  0.939  0.000  0.000     2.181     2.309
 252   1 H      0.049  0.951  0.000  0.000     2.335     2.389
 253   1 H      0.057  0.943  0.000  0.000     2.229     2.335
 254   1 H      0.050  0.950  0.000  0.000     2.314     2.378
 255   1 H      0.057  0.943  0.000  0.000     2.229     2.335
 256   1 H      0.056  0.944  0.000  0.000     2.241     2.341
 257   1 H      0.057  0.943  0.000  0.000     2.230     2.335
 258   1 H      0.047  0.953  0.000  0.000     2.357     2.401
 259   1 H      0.182  0.818  0.000  0.000     1.202     1.717
 260   1 H      0.079  0.921  0.000  0.000     1.989     2.205
 261   1 H      0.180  0.820  0.000  0.000     1.214     1.726
 262   1 H      0.073  0.927  0.000  0.000     2.052     2.240
 263   1 H      0.178  0.822  0.000  0.000     1.224     1.733
 264   1 H      0.074  0.926  0.000  0.000     2.045     2.236

 Mol. C6AA /au·bohr⁶  :     614957.131608
 Mol. C8AA /au·bohr⁸  :   13582760.916282
 Mol. α(0) /au        :       1164.319608

 
molecular dipole:
                 x           y           z       tot (Debye)
 q only:      188.880     100.305     352.999
   full:      186.150      98.796     356.218    1052.022
molecular quadrupole (traceless):
                xx          xy          yy          xz          yz          zz
 q only:   -31380.747   28142.008  -70177.071  100301.042   53567.828  101557.818
  q+dip:   -33336.114   27219.435  -71085.771   99891.949   53373.828  104421.884
   full:   -33333.646   27218.550  -71086.551   99891.849   53373.962  104420.198
speedup  1.00
cpu  time for grad    3.36 s
wall time for grad    3.36 s

SCC energy    :    -419.3393364
rep           :       8.7706527
ES            :       1.3120160
AES           :      -0.0161999
AXC           :       0.0414274
disp          :      -0.3454454
XB            :       0.0000000
fix           :       0.0000000
Gborn         :       0.0000000
Gsasa         :       0.0000000
Ghb           :       0.0000000
Gshift        :       0.0000000
Gsolv         :      -0.2943945     -184.74
Etot ala COSMO:    -419.3393364
grad norm     :       2.1426726
total E       :    -410.5413758
atomizationE  :      70.8827581    44479.60
(atE without considering molecular charge,
 total energy contains solvation terms)
H-L gap (eV)  :          2.1250

------------------------------------------------------------------------
 * finished run on 2019/03/07 at 11:37:48.539     
------------------------------------------------------------------------
 total:
 * wall-time:     0 d,  0 h,  0 min,  3.769 sec
 *  cpu-time:     0 d,  0 h,  0 min,  3.643 sec
 * ratio c/w:     0.967 speedup
 SCF:
 * wall-time:     0 d,  0 h,  0 min,  3.600 sec
 *  cpu-time:     0 d,  0 h,  0 min,  3.591 sec
 * ratio c/w:     0.997 speedup

