      -----------------------------------------------------------      
     |                   =====================                   |     
     |                           x T B                           |     
     |                   =====================                   |     
     |                         S. Grimme                         |     
     |          Mulliken Center for Theoretical Chemistry        |     
     |                    University of Bonn                     |     
     |                Version 6.1 RC1 (SAW190329)                |     
      -----------------------------------------------------------      

   This program is distributed in the hope that it will be useful,
   but WITHOUT ANY WARRANTY; without even the implied warranty of
   MERCHANTABILITY or FITNESS FOR A PARTICULAR PURPOSE.
   
   FOR NON-COMMERCIAL, ACADEMIA USE ONLY.
   
   Cite this work as:
   S. Grimme, C. Bannwarth, P. Shushkov, J. Comput. Theory Chem., 2017,
   13, 1989-2009. DOI: 10.1021/acs.jctc.7b00118
   C. Bannwarth, S. Ehlert and S. Grimme., J. Comput. Theory Chem., 2019,
   just accepted. DOI: 10.1021/acs.jctc.8b01176
   
   for sTDA-xTB:
   S. Grimme and C. Bannwarth, J. Chem. Phys., 2016, 145, 054103.
   DOI: 10.1063/1.4959605
   
   in the mass-spec context:
   V. Asgeirsson, C. Bauer and S. Grimme, Chem. Sci., 2017, 8, 4879.
   DOI: 10.1039/c7sc00601b
   
   for metadynamics refer to:
   S. Grimme, ChemRxiv, Preprint. DOI: 10.26434/chemrxiv.7660532.v1
   
   with help from (in alphabetical order)
   C. Bannwarth, F. Bohle, G. Brandenburg, E. Caldeweyher, M. Checinski,
   S. Dohm, S. Ehlert, S. Ehrlich, F. März, H. Neugebauer, J. Pisarek,
   P. Pracht, P. Shushkov, and S. Spicher.
   
 * started run on 2019/05/31 at 05:34:51.918     

           -------------------------------------------------
          |                Calculation Setup                |
           -------------------------------------------------

          program call               : /home/lum/install/xtb/xtb-190329/bin/xtb xtb_tmp.xyz --chrg -2 --grad --gfn 2 --etemp 500 --acc 0.1 --gbsa h2o --parallel 2
          hostname                   : cpu02
          coordinate file            : xtb_tmp.xyz
          omp threads                :                     2
          number of atoms            :                   493
          number of electrons        :                  1332
          charge                     :                    -2
          spin                       :                   0.0
          first test random number   :      0.88396125572580


molecular fragmentation (1/2 indicates fragments):
111111111111111111111111111111111111111111111111111111111111111111111111
111111111111111111111111111111111111111111111111111111111111111111111111
111111111111111111111111111111111111111111111111111111111111111111111111
111111111111111111111111111111222222222222222222222222222222222222222222
222222222222222222222222222222222222222222222222222222222222222222222222
222222222222222222222222222222222222222222222222222222222222222222222222
2222222222222222222222222222222222222222222112222222222222222
# atoms in fragment 1/2:   248   245
 fragment masses (1/2) :     1797.92     1537.96
CMA distance (Bohr)    :  13.787
constraining FC (au)   :  0.0500

########################################################################
# WARNING! Please study the warnings concerning your input carefully
#  - XTBPATH is not set, using XTBHOME instead
#  - Process number higher than OMP_NUM_THREADS, I hope you know what you are doing.
########################################################################

           ------------------------------------------------- 
          |                 G F N 2 - x T B                 |
          | Geometry, Frequencies, Noncovalent interactions |
          |            JCTC 2018 parametrisation            |
           ------------------------------------------------- 
 
             k(s)              :                1.8500
             k(p)              :                2.2300
             k(d)              :                2.2300
             k(f)              :                2.0000
             kEN (H0ij)        :               -2.0000
             D4 a1             :                0.5200
             D4 a2             :                5.0000
             D4 s6             :                1.0000
             D4 s8             :                2.7000
             D4 s9             :                5.0000
             alphaj            :                2.0000

  Z AO/shell   Hii/eV     exponent
  1     Wed Apr 25 08:07:45 CEST 2018   EN: 2.200 GM2: 0.406  GM3: 0.0800  RAES: 1.40
     1s    -10.707211    1.230000
  6     Wed Apr 25 08:07:45 CEST 2018   EN: 2.550 GM2: 0.538  GM3: 0.1500  RAES: 3.00
     2s    -13.970922    2.096432
     2p    -10.063292    1.800000
  7     Wed Apr 25 08:07:45 CEST 2018   EN: 3.040 GM2: 0.461  GM3:-0.0640  RAES: 1.90
     2s    -16.686243    2.339881
     2p    -12.523956    2.014332
  8     Wed Apr 25 08:07:45 CEST 2018   EN: 3.440 GM2: 0.452  GM3:-0.0517  RAES: 1.80
     2s    -20.229985    2.439742
     2p    -15.503117    2.137023

 Solvent             : h2o
 Using internal parameter file: .param_gbsa2_h2o
 Gsolv ref. state (COSMO-RS): gsolv [1 M gas/solution]
 temperature (mdtemp)       :    298.150000000000     
 dielectric constant        :    80.2000000000000     
 rho                        :    1.00000000000000     
 mass                       :    18.0000000000000     
 surface tension            :    15.5689454083859     
 probe radius               :   0.975313790000000     
 vdW radii scaling          :    1.00000000000000     
 Gshift (Eh)                :   1.857443126794793E-003
 c1                         :    1.55243817000000     
 soset                      :   0.130326360000000     
 HB correction              :  T
 Number of grid points      :          230

            Z     q(EN)     CN     RAES       Cart. coordinates
     1  N   5.0   -0.72    3.00    1.93   262.10297   129.86503   229.26176
     2  C   4.0    0.07    3.98    3.59   262.38570   132.36098   228.18755
     3  C   4.0    0.27    3.01    3.02   265.15759   132.98699   227.67952
     4  O   6.0   -0.47    1.00    1.80   265.81225   133.97440   225.68249
     5  C   4.0   -0.13    3.99    3.60   261.29733   134.36538   229.95812
     6  C   4.0   -0.12    3.98    3.59   258.41439   134.30297   230.06624
     7  C   4.0    0.27    3.00    3.02   257.44280   135.92415   232.22527
     8  O   6.0   -0.42    1.00    1.80   258.47413   135.98959   234.29454
     9  N   5.0   -0.66    3.00    1.93   255.38921   137.30435   231.68687
    10  H   1.0    0.26    1.00    1.43   260.92885   129.66213   230.76431
    11  H   1.0    0.13    0.99    1.43   261.41146   132.42526   226.34908
    12  H   1.0    0.13    0.99    1.43   262.05097   134.04927   231.85218
    13  H   1.0    0.12    0.99    1.43   261.91610   136.22556   229.31616
    14  H   1.0    0.11    0.99    1.43   257.59976   134.91078   228.27787
    15  H   1.0    0.11    0.99    1.43   257.77306   132.37618   230.44044
    16  H   1.0    0.25    1.00    1.43   254.41444   137.01013   230.07991
    17  H   1.0    0.27    1.00    1.43   254.56358   138.30868   233.08034
    18  N   5.0   -0.49    3.01    1.93   266.75433   132.54436   229.57106
    19  C   4.0    0.08    4.00    3.61   269.39511   133.23064   229.37490
    20  C   4.0    0.30    3.01    3.02   270.70122   131.67566   227.31743
    21  O   6.0   -0.45    1.00    1.80   272.20809   132.63925   225.84364
    22  C   4.0    0.03    3.98    3.58   270.81769   132.89230   231.90858
    23  O   6.0   -0.47    1.99    1.82   271.01478   130.34342   232.62432
    24  C   4.0   -0.22    3.98    3.59   269.64552   134.51889   233.98890
    25  H   1.0    0.23    1.00    1.43   266.09440   131.76773   231.19271
    26  H   1.0    0.12    0.99    1.43   269.53344   135.22044   228.80471
    27  H   1.0    0.12    0.99    1.43   272.77434   133.49461   231.57689
    28  H   1.0    0.25    0.99    1.43   269.34107   129.60669   232.73104
    29  H   1.0    0.10    0.99    1.43   270.82720   134.42941   235.66476
    30  H   1.0    0.10    0.99    1.43   269.49816   136.46941   233.37573
    31  H   1.0    0.11    0.99    1.43   267.77735   133.82569   234.48707
    32  N   5.0   -0.47    3.01    1.93   270.11483   129.23111   227.31909
    33  C   4.0    0.08    4.00    3.62   271.17814   127.50357   225.48885
    34  C   4.0    0.28    3.01    3.02   270.43859   128.35354   222.83255
    35  O   6.0   -0.48    1.00    1.80   271.98487   128.43276   221.11130
    36  C   4.0    0.03    3.98    3.58   270.28118   124.77407   226.02158
    37  O   6.0   -0.48    1.99    1.83   270.94605   124.01127   228.47591
    38  C   4.0   -0.21    3.98    3.59   271.50484   122.93140   224.17623
    39  H   1.0    0.24    1.00    1.43   268.79732   128.56476   228.53466
    40  H   1.0    0.13    0.99    1.43   273.24773   127.57702   225.61687
    41  H   1.0    0.10    0.99    1.43   268.21107   124.75097   225.79824
    42  H   1.0    0.25    0.99    1.43   269.90510   124.90468   229.68845
    43  H   1.0    0.10    0.99    1.43   270.77875   121.04539   224.52710
    44  H   1.0    0.10    0.99    1.43   271.10695   123.47705   222.24075
    45  H   1.0    0.11    0.99    1.43   273.53395   122.91567   224.48441
    46  N   5.0   -0.48    3.01    1.93   268.01553   128.96840   222.56796
    47  C   4.0    0.07    3.99    3.61   266.96967   129.95743   220.24878
    48  C   4.0    0.30    3.02    3.02   268.33719   132.37716   219.47173
    49  O   6.0   -0.43    1.00    1.80   268.97309   132.72202   217.27371
    50  C   4.0   -0.14    3.99    3.60   264.15383   130.51410   220.57103
    51  C   4.0   -0.13    3.98    3.58   262.53155   128.15934   220.92539
    52  C   4.0    0.30    2.99    3.02   259.87794   128.91344   221.92591
    53  O   6.0   -0.40    1.00    1.80   258.94807   130.93026   221.16480
    54  O   6.0   -0.41    1.00    1.80   258.85324   127.41971   223.46221
    55  H   1.0    0.24    1.00    1.43   266.82696   128.85073   224.06230
    56  H   1.0    0.11    0.99    1.43   267.26715   128.58307   218.71979
    57  H   1.0    0.15    0.99    1.43   263.93019   131.72777   222.22516
    58  H   1.0    0.13    0.99    1.43   263.46714   131.56923   218.93985
    59  H   1.0    0.10    0.99    1.43   262.28392   127.14143   219.14773
    60  H   1.0    0.11    0.99    1.43   263.36247   126.88113   222.30549
    61  N   5.0   -0.46    3.00    1.93   268.77196   134.05564   221.30081
    62  C   4.0    0.02    4.00    3.62   270.06031   136.40456   220.73483
    63  C   4.0    0.29    3.01    3.02   272.64696   135.86147   219.56270
    64  O   6.0   -0.45    1.00    1.80   273.35620   136.86583   217.59664
    65  H   1.0    0.31    1.00    1.43   267.91557   133.88894   223.00996
    66  H   1.0    0.13    0.99    1.43   268.96644   137.53874   219.39485
    67  H   1.0    0.11    0.99    1.43   270.30855   137.45285   222.48822
    68  N   5.0   -0.47    3.01    1.93   274.02705   134.20040   220.84984
    69  C   4.0    0.07    3.99    3.61   276.50963   133.40378   219.99844
    70  C   4.0    0.29    3.01    3.02   276.33933   132.29518   217.33349
    71  O   6.0   -0.48    1.00    1.80   277.81635   132.93262   215.65733
    72  C   4.0   -0.21    3.99    3.60   277.56610   131.48914   221.86207
    73  H   1.0    0.30    1.00    1.43   273.39980   133.50889   222.52763
    74  H   1.0    0.12    0.99    1.43   277.75413   135.06113   219.87486
    75  H   1.0    0.09    0.99    1.43   279.45430   130.91331   221.30481
    76  H   1.0    0.11    0.99    1.43   277.66068   132.35556   223.72038
    77  H   1.0    0.13    0.99    1.43   276.33275   129.84773   221.94212
    78  N   5.0   -0.48    3.01    1.93   274.51535   130.60239   216.97680
    79  C   4.0    0.07    4.00    3.62   274.11440   129.46938   214.52352
    80  C   4.0    0.30    3.01    3.02   273.57649   131.48427   212.53764
    81  O   6.0   -0.49    1.00    1.80   274.36633   131.21780   210.36779
    82  C   4.0   -0.14    3.99    3.60   271.93471   127.57459   214.55431
    83  C   4.0   -0.10    3.98    3.58   272.51482   125.12314   215.98917
    84  C   4.0   -0.23    3.98    3.59   270.09776   123.55438   216.19408
    85  C   4.0   -0.24    3.98    3.59   274.56957   123.57539   214.68606
    86  H   1.0    0.30    1.00    1.43   273.37717   130.05323   218.42023
    87  H   1.0    0.11    0.99    1.43   275.86343   128.53361   213.91658
    88  H   1.0    0.14    0.99    1.43   270.30632   128.51392   215.40188
    89  H   1.0    0.11    0.99    1.43   271.46121   127.11203   212.59976
    90  H   1.0    0.13    0.99    1.43   273.14401   125.61083   217.89664
    91  H   1.0    0.09    0.99    1.43   270.45065   121.81461   217.22721
    92  H   1.0    0.10    0.99    1.43   268.62814   124.59560   217.18645
    93  H   1.0    0.11    0.99    1.43   269.39200   123.05655   214.32782
    94  H   1.0    0.09    0.99    1.43   274.80547   121.78249   215.65719
    95  H   1.0    0.09    0.99    1.43   274.04233   123.19467   212.73652
    96  H   1.0    0.09    0.99    1.43   276.37558   124.55016   214.70273
    97  N   5.0   -0.45    3.01    1.93   272.22216   133.46650   213.26414
    98  C   4.0    0.09    4.00    3.62   271.67386   135.52632   211.55035
    99  C   4.0    0.29    3.01    3.02   274.13289   136.82354   210.74989
   100  O   6.0   -0.48    1.00    1.80   274.48116   137.43256   208.52772
   101  C   4.0   -0.10    3.99    3.60   269.88993   137.42231   212.79112
   102  C   4.0    0.29    3.00    3.02   267.24686   136.33551   213.12973
   103  O   6.0   -0.44    1.00    1.80   266.58536   134.31475   212.22886
   104  N   5.0   -0.65    3.00    1.93   265.66227   137.82499   214.41152
   105  H   1.0    0.32    1.00    1.43   271.34641   133.46404   214.97103
   106  H   1.0    0.14    0.99    1.43   270.80699   134.76494   209.82333
   107  H   1.0    0.14    0.99    1.43   270.67324   137.96687   214.62069
   108  H   1.0    0.11    0.99    1.43   269.76309   139.10982   211.61088
   109  H   1.0    0.28    1.00    1.43   263.86825   137.25018   214.69959
   110  H   1.0    0.25    1.00    1.43   266.21801   139.49296   215.13364
   111  N   5.0   -0.47    3.01    1.93   275.82865   137.19722   212.55484
   112  C   4.0    0.09    4.00    3.62   278.28591   138.27086   211.98686
   113  C   4.0    0.29    3.01    3.02   279.70873   136.57402   210.14127
   114  O   6.0   -0.46    1.00    1.80   280.87080   137.41684   208.30952
   115  C   4.0   -0.14    3.99    3.60   279.85410   138.57145   214.39732
   116  C   4.0   -0.12    3.98    3.58   279.13482   140.96621   215.83175
   117  C   4.0    0.31    2.99    3.02   279.93121   143.30101   214.20921
   118  O   6.0   -0.39    1.00    1.80   282.21208   143.89237   214.27848
   119  O   6.0   -0.38    1.00    1.80   278.24096   144.33670   212.93271
   120  H   1.0    0.30    1.00    1.43   275.37945   136.85395   214.38951
   121  H   1.0    0.16    0.99    1.43   278.04897   140.13061   211.09295
   122  H   1.0    0.13    0.99    1.43   279.59401   136.88735   215.56215
   123  H   1.0    0.12    0.99    1.43   281.84895   138.72287   213.88306
   124  H   1.0    0.13    0.99    1.43   277.10577   141.03580   216.18472
   125  H   1.0    0.11    0.99    1.43   280.16264   141.04407   217.61608
   126  N   5.0   -0.48    3.01    1.93   279.68431   134.12343   210.70218
   127  C   4.0    0.07    4.00    3.62   280.91640   132.29362   209.07262
   128  C   4.0    0.29    3.01    3.02   279.78105   132.48956   206.41235
   129  O   6.0   -0.47    1.00    1.80   281.11291   132.63830   204.52881
   130  C   4.0   -0.09    3.98    3.59   280.69815   129.63041   210.20870
   131  C   4.0   -0.16    3.98    3.59   282.41173   129.49711   212.54463
   132  C   4.0   -0.24    3.98    3.59   281.37371   127.63204   208.24122
   133  C   4.0   -0.24    3.98    3.58   282.08474   127.10520   214.10889
   134  H   1.0    0.30    1.00    1.43   278.80198   133.50954   212.29491
   135  H   1.0    0.11    0.99    1.43   282.92458   132.79426   208.88595
   136  H   1.0    0.13    0.99    1.43   278.72896   129.36279   210.78016
   137  H   1.0    0.10    0.99    1.43   284.37845   129.64651   211.93854
   138  H   1.0    0.12    0.99    1.43   282.00187   131.11779   213.75357
   139  H   1.0    0.09    0.99    1.43   281.20609   125.75508   209.04951
   140  H   1.0    0.11    0.99    1.43   280.10564   127.75613   206.63114
   141  H   1.0    0.10    0.99    1.43   283.29441   127.90075   207.56880
   142  H   1.0    0.11    0.99    1.43   283.40430   127.13684   215.68161
   143  H   1.0    0.10    0.99    1.43   280.17736   127.00001   214.86490
   144  H   1.0    0.10    0.99    1.43   282.45589   125.41604   213.00519
   145  N   5.0   -0.48    3.01    1.93   277.26592   132.49155   206.36918
   146  C   4.0    0.08    3.99    3.61   275.81541   132.66707   204.05561
   147  C   4.0    0.33    3.01    3.02   276.78783   134.90385   202.49570
   148  O   6.0   -0.45    1.00    1.80   277.44525   134.62674   200.30232
   149  C   4.0   -0.10    3.99    3.60   273.00228   132.88264   204.70158
   150  C   4.0    0.26    3.00    3.02   271.31951   132.50759   202.39350
   151  O   6.0   -0.39    1.00    1.80   271.68434   133.58819   200.40124
   152  N   5.0   -0.65    3.00    1.93   269.28901   131.00936   202.78736
   153  H   1.0    0.31    1.00    1.43   276.27493   132.24474   207.99709
   154  H   1.0    0.11    0.99    1.43   276.14407   130.96586   202.90689
   155  H   1.0    0.12    0.99    1.43   272.55955   131.49420   206.15704
   156  H   1.0    0.15    0.99    1.43   272.65303   134.77432   205.45234
   157  H   1.0    0.30    1.00    1.43   268.25599   130.50406   201.26290
   158  H   1.0    0.28    1.00    1.43   269.19970   129.77425   204.23570
   159  N   5.0   -0.46    3.01    1.93   276.95622   137.08463   203.74855
   160  C   4.0    0.09    4.00    3.61   277.84569   139.35913   202.50669
   161  C   4.0    0.30    3.02    3.02   280.41606   138.86968   201.28106
   162  O   6.0   -0.44    1.00    1.80   280.86062   139.49841   199.09714
   163  C   4.0   -0.09    3.99    3.60   278.07703   141.59181   204.34378
   164  C   4.0    0.29    3.00    3.02   275.65993   143.15539   204.41197
   165  O   6.0   -0.38    1.00    1.80   275.49573   145.19891   203.35193
   166  N   5.0   -0.63    3.00    1.93   273.74309   142.12032   205.69169
   167  H   1.0    0.30    1.00    1.43   276.35969   137.20034   205.56255
   168  H   1.0    0.17    0.99    1.43   276.51793   139.84202   200.98115
   169  H   1.0    0.14    0.99    1.43   278.55074   140.91101   206.23044
   170  H   1.0    0.13    0.99    1.43   279.58425   142.84263   203.70061
   171  H   1.0    0.29    1.00    1.43   272.08252   143.04692   205.74111
   172  H   1.0    0.31    1.00    1.43   273.94073   140.48737   206.65473
   173  N   5.0   -0.46    3.01    1.93   282.14695   137.76598   202.75105
   174  C   4.0    0.08    4.00    3.62   284.63638   137.24419   201.72342
   175  C   4.0    0.29    3.01    3.02   284.34449   135.73329   199.25646
   176  O   6.0   -0.42    1.00    1.80   285.55978   136.29016   197.36137
   177  C   4.0   -0.11    3.99    3.60   286.26662   135.75668   203.60063
   178  C   4.0    0.27    3.00    3.02   287.52286   137.47465   205.53601
   179  O   6.0   -0.41    1.00    1.80   289.38379   138.73860   205.01021
   180  N   5.0   -0.65    3.00    1.93   286.49875   137.43806   207.85040
   181  H   1.0    0.30    1.00    1.43   281.81601   137.47873   204.61348
   182  H   1.0    0.14    0.99    1.43   285.57894   139.02768   201.22853
   183  H   1.0    0.13    0.99    1.43   285.10300   134.32980   204.51993
   184  H   1.0    0.11    0.99    1.43   287.79304   134.83156   202.56620
   185  H   1.0    0.28    1.00    1.43   287.25386   138.55031   209.20301
   186  H   1.0    0.29    1.00    1.43   284.72178   136.80731   208.14875
   187  N   5.0   -0.48    3.01    1.93   282.78760   133.76777   199.35931
   188  C   4.0    0.08    4.00    3.61   282.45991   132.11078   197.20391
   189  C   4.0    0.29    3.01    3.02   281.21350   133.43556   194.94789
   190  O   6.0   -0.40    1.00    1.80   281.77056   132.84549   192.77104
   191  C   4.0   -0.14    3.99    3.60   280.95658   129.77151   197.99122
   192  C   4.0   -0.10    3.98    3.58   282.36149   128.11873   199.91984
   193  C   4.0   -0.24    3.98    3.59   280.57307   126.12538   200.99782
   194  C   4.0   -0.24    3.98    3.59   284.64469   126.82613   198.72540
   195  H   1.0    0.30    1.00    1.43   281.80748   133.37484   200.96349
   196  H   1.0    0.13    0.99    1.43   284.33765   131.55304   196.52530
   197  H   1.0    0.13    0.99    1.43   279.17371   130.42064   198.79811
   198  H   1.0    0.10    0.99    1.43   280.54570   128.66108   196.30417
   199  H   1.0    0.13    0.99    1.43   282.99342   129.31757   201.47948
   200  H   1.0    0.09    0.99    1.43   281.50099   125.07037   202.49516
   201  H   1.0    0.09    0.99    1.43   278.88973   127.00835   201.77555
   202  H   1.0    0.09    0.99    1.43   279.99191   124.80131   199.53754
   203  H   1.0    0.09    0.99    1.43   285.54868   125.58981   200.09151
   204  H   1.0    0.10    0.99    1.43   284.04973   125.70187   197.11309
   205  H   1.0    0.10    0.99    1.43   286.03813   128.19281   198.09152
   206  N   5.0   -0.47    3.01    1.93   279.50647   135.20426   195.48076
   207  C   4.0    0.07    4.00    3.61   278.34619   136.71363   193.51436
   208  C   4.0    0.29    3.01    3.02   280.37482   138.23578   192.10075
   209  O   6.0   -0.39    1.00    1.80   280.39196   138.42205   189.79143
   210  C   4.0   -0.14    3.99    3.60   276.38124   138.50520   194.63974
   211  C   4.0   -0.11    3.98    3.59   274.06069   137.10116   195.65427
   212  C   4.0    0.29    3.00    3.02   272.37205   138.93191   197.07347
   213  O   6.0   -0.38    1.00    1.80   273.02839   139.95974   199.03633
   214  N   5.0   -0.65    3.00    1.93   270.11556   139.37895   196.01296
   215  H   1.0    0.31    1.00    1.43   278.99566   135.54203   197.29774
   216  H   1.0    0.13    0.99    1.43   277.46435   135.45796   192.11828
   217  H   1.0    0.15    0.99    1.43   277.26411   139.57048   196.16964
   218  H   1.0    0.12    0.99    1.43   275.80588   139.84879   193.18361
   219  H   1.0    0.10    0.99    1.43   273.02483   136.21161   194.11697
   220  H   1.0    0.16    0.99    1.43   274.64233   135.65236   197.00087
   221  H   1.0    0.25    1.00    1.43   269.57947   138.53595   194.39894
   222  H   1.0    0.28    1.00    1.43   268.92204   140.60290   196.85139
   223  N   5.0   -0.47    3.01    1.93   282.09820   139.31230   193.58540
   224  C   4.0    0.07    3.99    3.60   284.20885   140.70595   192.52953
   225  C   4.0    0.10    3.00    3.02   285.76099   138.92166   190.86011
   226  O   6.0   -0.40    1.00    1.80   286.57144   139.53812   188.77700
   227  C   4.0   -0.15    3.99    3.60   285.82478   141.75544   194.68260
   228  C   4.0   -0.16    3.98    3.59   287.73915   143.71677   193.77935
   229  C   4.0   -0.04    3.99    3.60   286.46943   146.28642   193.43203
   230  N   5.0   -0.48    3.02    1.93   288.30039   148.15987   192.64317
   231  C   4.0    0.36    3.00    3.02   287.98039   149.95409   190.91319
   232  N   5.0   -0.63    3.01    1.93   285.89259   150.14964   189.55190
   233  N   5.0   -0.66    3.02    1.93   289.83588   151.65422   190.61635
   234  H   1.0    0.30    1.00    1.43   281.93845   139.22214   195.49079
   235  H   1.0    0.13    0.99    1.43   283.50664   142.23207   191.31031
   236  H   1.0    0.12    0.99    1.43   284.56572   142.61142   196.07563
   237  H   1.0    0.14    0.99    1.43   286.77295   140.16645   195.58905
   238  H   1.0    0.11    0.99    1.43   289.25183   143.89662   195.16753
   239  H   1.0    0.13    0.99    1.43   288.56029   143.10537   191.99066
   240  H   1.0    0.11    0.99    1.43   284.97763   146.13981   192.02696
   241  H   1.0    0.11    0.99    1.43   285.62662   146.88052   195.22723
   242  H   1.0    0.23    1.00    1.43   289.92082   148.16617   193.65854
   243  H   1.0    0.24    0.99    1.43   284.61772   148.66810   189.33973
   244  H   1.0    0.25    1.00    1.43   285.81324   151.45575   188.17120
   245  H   1.0    0.25    1.00    1.43   291.36599   151.63163   191.74373
   246  H   1.0    0.25    1.00    1.43   289.64987   153.07383   189.36712
   247  N   5.0   -0.72    3.00    1.93   292.63807   131.84584   210.59942
   248  C   4.0    0.06    3.98    3.59   290.80025   129.88438   211.11943
   249  C   4.0    0.06    3.00    3.02   291.74990   128.25651   213.30683
   250  O   6.0   -0.44    1.00    1.80   290.39040   127.71384   215.11027
   251  C   4.0   -0.09    3.98    3.59   290.27293   128.27055   208.76236
   252  C   4.0   -0.16    3.98    3.59   288.80830   129.85124   206.82285
   253  C   4.0   -0.22    3.98    3.59   288.85498   125.87022   209.51231
   254  C   4.0   -0.24    3.98    3.58   288.42141   128.49664   204.31068
   255  H   1.0    0.25    1.00    1.43   293.26320   132.06975   208.80177
   256  H   1.0    0.11    0.99    1.43   289.03340   130.76485   211.77906
   257  H   1.0    0.11    0.99    1.43   292.10144   127.72675   207.95924
   258  H   1.0    0.10    0.99    1.43   286.97674   130.36730   207.62199
   259  H   1.0    0.11    0.99    1.43   289.85560   131.59408   206.48273
   260  H   1.0    0.09    0.99    1.43   288.37637   124.76605   207.85166
   261  H   1.0    0.12    0.99    1.43   290.03386   124.69576   210.72406
   262  H   1.0    0.11    0.99    1.43   287.13639   126.33074   210.54027
   263  H   1.0    0.10    0.99    1.43   287.64644   129.80083   202.92812
   264  H   1.0    0.10    0.99    1.43   290.21433   127.77555   203.61195
   265  H   1.0    0.09    0.99    1.43   287.12583   126.91749   204.50494
   266  N   5.0   -0.70    3.00    1.93   291.87146   131.27714   219.86796
   267  C   4.0    0.08    3.98    3.59   289.31219   131.21697   220.84489
   268  C   4.0    0.08    3.00    3.02   288.71129   128.58165   221.86305
   269  O   6.0   -0.49    1.00    1.80   287.84343   128.26315   223.99914
   270  C   4.0   -0.09    3.98    3.59   287.40833   131.99173   218.79259
   271  C   4.0   -0.23    3.98    3.59   284.70280   131.53704   219.68911
   272  C   4.0   -0.23    3.98    3.59   287.76341   134.76951   218.10429
   273  H   1.0    0.27    1.00    1.43   292.11898   131.70035   218.01913
   274  H   1.0    0.11    0.99    1.43   289.17631   132.53197   222.44785
   275  H   1.0    0.14    0.99    1.43   287.78464   130.82490   217.12526
   276  H   1.0    0.10    0.99    1.43   283.38337   132.17687   218.25089
   277  H   1.0    0.11    0.99    1.43   284.36998   129.53820   220.02970
   278  H   1.0    0.12    0.99    1.43   284.33784   132.57287   221.42569
   279  H   1.0    0.10    0.99    1.43   286.41694   135.31894   216.65270
   280  H   1.0    0.10    0.99    1.43   287.45050   135.96688   219.74224
   281  H   1.0    0.10    0.99    1.43   289.64756   135.13835   217.37475
   282  N   5.0   -0.68    3.00    1.93   287.40184   129.27347   229.60453
   283  C   4.0    0.08    3.98    3.59   284.85070   129.97218   230.33260
   284  C   4.0    0.06    3.00    3.02   283.93741   128.19842   232.42490
   285  O   6.0   -0.39    1.00    1.80   284.13224   125.90494   232.23061
   286  C   4.0    0.05    3.98    3.58   283.05139   129.80468   228.03959
   287  O   6.0   -0.51    1.99    1.82   283.97046   131.25451   226.01358
   288  C   4.0   -0.21    3.98    3.59   280.44381   130.80659   228.75152
   289  H   1.0    0.31    1.00    1.43   287.69542   128.53423   227.86664
   290  H   1.0    0.10    0.99    1.43   284.89723   131.92478   231.02594
   291  H   1.0    0.13    0.99    1.43   282.91097   127.80257   227.49356
   292  H   1.0    0.30    0.99    1.43   285.38646   130.36848   225.23872
   293  H   1.0    0.11    0.99    1.43   279.15988   130.53242   227.17601
   294  H   1.0    0.10    0.99    1.43   279.70192   129.82625   230.39249
   295  H   1.0    0.11    0.99    1.43   280.56456   132.81876   229.14349
   296  N   5.0   -0.72    3.00    1.93   281.01535   119.45502   226.96499
   297  C   4.0    0.06    3.98    3.58   281.59897   118.69839   224.40644
   298  C   4.0    0.06    3.00    3.02   283.86605   116.92250   224.21001
   299  O   6.0   -0.43    1.00    1.80   284.73049   116.34571   222.13546
   300  C   4.0   -0.12    3.99    3.60   282.10127   121.00017   222.72670
   301  C   4.0   -0.11    3.98    3.58   279.78437   122.65722   222.23237
   302  C   4.0   -0.23    3.99    3.60   280.62748   125.08732   220.92606
   303  C   4.0   -0.24    3.98    3.59   277.82427   121.29562   220.61842
   304  H   1.0    0.27    1.00    1.43   282.20203   120.69459   227.80064
   305  H   1.0    0.11    0.99    1.43   279.97634   117.61876   223.69907
   306  H   1.0    0.12    0.99    1.43   283.58511   122.11342   223.63874
   307  H   1.0    0.13    0.99    1.43   282.83458   120.30391   220.92902
   308  H   1.0    0.11    0.99    1.43   278.91470   123.14491   224.04567
   309  H   1.0    0.10    0.99    1.43   279.00693   126.26304   220.47565
   310  H   1.0    0.11    0.99    1.43   281.89424   126.16257   222.13816
   311  H   1.0    0.10    0.99    1.43   281.60292   124.63481   219.17507
   312  H   1.0    0.09    0.99    1.43   276.20479   122.51556   220.29627
   313  H   1.0    0.09    0.99    1.43   278.63291   120.78560   218.80129
   314  H   1.0    0.09    0.99    1.43   277.16878   119.57753   221.53257
   315  N   5.0   -0.69    3.00    1.93   283.20860   114.91011   216.61841
   316  C   4.0    0.07    3.98    3.59   283.22783   116.33615   214.27838
   317  C   4.0    0.06    3.00    3.02   285.70058   117.82309   214.17262
   318  O   6.0   -0.40    1.00    1.80   286.12251   119.55752   215.64528
   319  C   4.0   -0.08    3.98    3.59   280.97490   118.16475   214.10334
   320  C   4.0   -0.17    3.98    3.58   278.45595   116.75733   214.37145
   321  C   4.0   -0.24    3.98    3.59   281.13975   119.65678   211.63771
   322  C   4.0   -0.25    3.98    3.58   278.03512   114.66060   212.43706
   323  H   1.0    0.31    1.00    1.43   283.30946   115.89701   218.25751
   324  H   1.0    0.10    0.99    1.43   283.15293   114.99639   212.71490
   325  H   1.0    0.11    0.99    1.43   281.13983   119.49755   215.68020
   326  H   1.0    0.09    0.99    1.43   278.34789   115.95650   216.27184
   327  H   1.0    0.09    0.99    1.43   276.93803   118.14105   214.19107
   328  H   1.0    0.08    0.99    1.43   279.48907   120.86265   211.43716
   329  H   1.0    0.10    0.99    1.43   282.82011   120.84050   211.62893
   330  H   1.0    0.09    0.99    1.43   281.24614   118.39263   210.02395
   331  H   1.0    0.09    0.99    1.43   276.12594   113.93164   212.61799
   332  H   1.0    0.09    0.99    1.43   278.26793   115.35099   210.51820
   333  H   1.0    0.09    0.99    1.43   279.33475   113.09770   212.72440
   334  N   5.0   -0.73    3.00    1.93   275.78132   120.11558   196.60687
   335  C   4.0    0.06    3.98    3.59   273.75074   121.66694   197.58236
   336  C   4.0    0.07    3.00    3.02   271.39843   120.07420   198.09983
   337  O   6.0   -0.46    1.00    1.80   270.19429   120.33431   200.06773
   338  C   4.0   -0.14    3.99    3.59   273.17815   123.89352   195.83416
   339  C   4.0   -0.11    3.98    3.58   274.74463   126.23270   196.53734
   340  C   4.0   -0.23    3.98    3.59   274.71866   128.15935   194.38993
   341  C   4.0   -0.21    3.98    3.59   273.71787   127.43917   198.94826
   342  H   1.0    0.24    1.00    1.43   276.38137   120.37893   194.80616
   343  H   1.0    0.11    0.99    1.43   274.33646   122.36086   199.44711
   344  H   1.0    0.10    0.99    1.43   273.57347   123.30116   193.89810
   345  H   1.0    0.12    0.99    1.43   271.16857   124.34671   195.97472
   346  H   1.0    0.10    0.99    1.43   276.69587   125.63195   196.85044
   347  H   1.0    0.11    0.99    1.43   275.86818   129.78569   194.89859
   348  H   1.0    0.10    0.99    1.43   275.48893   127.31023   192.68439
   349  H   1.0    0.11    0.99    1.43   272.78788   128.79531   194.08026
   350  H   1.0    0.12    0.99    1.43   274.60986   129.26183   199.26382
   351  H   1.0    0.13    0.99    1.43   271.69029   127.73551   198.77877
   352  H   1.0    0.10    0.99    1.43   274.03277   126.24133   200.58707
   353  N   5.0   -0.70    3.00    1.93   272.09226   117.46400   204.45993
   354  C   4.0    0.08    3.99    3.60   271.62326   119.41239   206.32745
   355  C   4.0    0.28    3.01    3.02   268.78851   119.71710   206.77670
   356  O   6.0   -0.49    1.00    1.80   267.86395   119.71615   208.91144
   357  C   4.0   -0.08    3.98    3.59   272.77598   121.94370   205.47818
   358  C   4.0   -0.22    3.98    3.59   271.81765   124.10667   207.13770
   359  C   4.0   -0.24    3.98    3.59   275.65633   121.78045   205.54832
   360  H   1.0    0.26    1.00    1.43   273.27495   117.84913   203.00275
   361  H   1.0    0.09    0.99    1.43   272.45027   118.82200   208.14110
   362  H   1.0    0.14    0.99    1.43   272.14058   122.27174   203.53771
   363  H   1.0    0.10    0.99    1.43   272.95384   125.78612   206.81546
   364  H   1.0    0.14    0.99    1.43   269.85416   124.53444   206.70124
   365  H   1.0    0.10    0.99    1.43   271.93770   123.58184   209.12058
   366  H   1.0    0.09    0.99    1.43   276.48019   123.55408   204.92369
   367  H   1.0    0.09    0.99    1.43   276.29319   121.39151   207.46205
   368  H   1.0    0.09    0.99    1.43   276.32831   120.28386   204.31442
   369  N   5.0   -0.48    3.01    1.93   267.45256   120.18919   204.69969
   370  C   4.0    0.07    3.99    3.61   264.86520   121.02689   204.82895
   371  C   4.0    0.07    3.00    3.02   263.05781   118.97772   205.72146
   372  O   6.0   -0.43    1.00    1.80   261.25241   119.51628   207.08193
   373  C   4.0   -0.10    3.98    3.58   264.07283   122.09510   202.28155
   374  C   4.0    0.31    2.99    3.02   265.34630   124.75045   201.82051
   375  O   6.0   -0.41    1.00    1.80   265.86034   125.29879   199.60055
   376  O   6.0   -0.42    1.00    1.80   265.67369   126.10911   203.70844
   377  H   1.0    0.30    1.00    1.43   268.28519   120.12376   202.97826
   378  H   1.0    0.15    0.99    1.43   264.75080   122.56630   206.22679
   379  H   1.0    0.12    0.99    1.43   264.60421   120.81012   200.76012
   380  H   1.0    0.11    0.99    1.43   262.02499   122.35276   202.23415
   381  N   5.0   -0.68    3.00    1.93   264.07009   114.96584   209.69291
   382  C   4.0    0.07    3.98    3.59   264.41372   114.78978   212.39847
   383  C   4.0    0.29    3.01    3.02   263.28483   117.12868   213.66616
   384  O   6.0   -0.46    1.00    1.80   261.97130   116.97959   215.57816
   385  C   4.0   -0.14    3.99    3.60   267.22398   114.50740   212.99077
   386  C   4.0   -0.10    3.98    3.58   268.37280   112.13991   211.77391
   387  C   4.0   -0.24    3.98    3.59   271.24972   112.34195   211.86692
   388  C   4.0   -0.22    3.98    3.59   267.43356   109.72974   213.04868
   389  H   1.0    0.28    1.00    1.43   265.44906   115.85088   208.70889
   390  H   1.0    0.14    0.99    1.43   263.32225   113.16514   213.08440
   391  H   1.0    0.12    0.99    1.43   268.18857   116.18022   212.26068
   392  H   1.0    0.10    0.99    1.43   267.45838   114.44014   215.03729
   393  H   1.0    0.11    0.99    1.43   267.81088   112.09935   209.78663
   394  H   1.0    0.09    0.99    1.43   272.11873   110.62700   211.14697
   395  H   1.0    0.09    0.99    1.43   271.85653   113.91043   210.68756
   396  H   1.0    0.09    0.99    1.43   271.87904   112.67631   213.79169
   397  H   1.0    0.10    0.99    1.43   268.28161   108.08373   212.16019
   398  H   1.0    0.10    0.99    1.43   267.89461   109.74865   215.04838
   399  H   1.0    0.12    0.99    1.43   265.38997   109.55473   212.89140
   400  N   5.0   -0.48    3.01    1.93   263.77018   119.33573   212.54331
   401  C   4.0    0.07    4.00    3.61   262.58097   121.64211   213.42004
   402  C   4.0    0.30    3.01    3.02   259.77288   121.13514   213.90924
   403  O   6.0   -0.46    1.00    1.80   258.71057   121.84116   215.84755
   404  C   4.0   -0.14    3.98    3.59   262.85735   123.76168   211.46614
   405  C   4.0   -0.16    3.98    3.59   261.56229   126.18995   212.37296
   406  C   4.0   -0.04    3.98    3.59   260.99411   128.06399   210.24625
   407  N   5.0   -0.47    3.02    1.93   263.13722   129.68073   209.69851
   408  C   4.0    0.38    3.00    3.02   263.69552   130.72976   207.48471
   409  N   5.0   -0.62    3.01    1.93   262.40554   130.19441   205.38040
   410  N   5.0   -0.64    3.02    1.93   265.50932   132.46476   207.41935
   411  H   1.0    0.29    1.00    1.43   264.98089   119.42841   211.05512
   412  H   1.0    0.11    0.99    1.43   263.40836   122.22192   215.23649
   413  H   1.0    0.12    0.99    1.43   264.86306   124.07985   211.11574
   414  H   1.0    0.14    0.99    1.43   261.98600   123.10918   209.71516
   415  H   1.0    0.12    0.99    1.43   259.77424   125.67930   213.25996
   416  H   1.0    0.11    0.99    1.43   262.71234   127.09896   213.82198
   417  H   1.0    0.11    0.99    1.43   260.46970   127.00222   208.56034
   418  H   1.0    0.11    0.99    1.43   259.38814   129.24318   210.80567
   419  H   1.0    0.26    1.00    1.43   264.06821   130.37561   211.22155
   420  H   1.0    0.27    1.00    1.43   261.42408   128.56295   205.29779
   421  H   1.0    0.28    1.00    1.43   263.19581   130.70082   203.72108
   422  H   1.0    0.32    1.00    1.43   266.24183   133.12884   209.06946
   423  H   1.0    0.28    1.00    1.43   266.01910   133.26841   205.77222
   424  N   5.0   -0.47    3.01    1.93   258.54540   120.04555   211.99083
   425  C   4.0    0.08    3.99    3.61   255.86557   119.53763   212.13302
   426  C   4.0    0.30    3.01    3.02   255.14036   118.07648   214.51257
   427  O   6.0   -0.41    1.00    1.80   253.20445   118.61664   215.66646
   428  C   4.0   -0.02    3.98    3.59   255.00985   118.08418   209.75263
   429  O   6.0   -0.45    1.99    1.82   256.54830   116.00683   209.18236
   430  H   1.0    0.31    1.00    1.43   259.45221   119.48731   210.38991
   431  H   1.0    0.11    0.99    1.43   254.81953   121.33002   212.22626
   432  H   1.0    0.11    0.99    1.43   253.02664   117.53756   209.99274
   433  H   1.0    0.12    0.99    1.43   255.19048   119.33838   208.12189
   434  H   1.0    0.28    0.99    1.43   256.27828   114.62283   210.33710
   435  N   5.0   -0.46    3.01    1.93   256.62906   116.15037   215.16336
   436  C   4.0    0.09    4.00    3.62   256.10198   114.68248   217.41214
   437  C   4.0    0.29    3.01    3.02   255.90664   116.41188   219.70256
   438  O   6.0   -0.38    1.00    1.80   254.19114   116.22359   221.25227
   439  C   4.0   -0.10    3.98    3.59   258.18072   112.75424   217.87440
   440  C   4.0    0.31    2.99    3.02   258.35751   110.75165   215.67842
   441  O   6.0   -0.40    1.00    1.80   256.36500   110.25840   214.54100
   442  O   6.0   -0.42    1.00    1.80   260.49171   109.84395   215.31394
   443  H   1.0    0.29    1.00    1.43   258.27952   115.79968   214.27737
   444  H   1.0    0.15    0.99    1.43   254.29838   113.68504   217.16608
   445  H   1.0    0.13    0.99    1.43   260.01943   113.66504   218.06293
   446  H   1.0    0.11    0.99    1.43   257.79606   111.70058   219.60998
   447  N   5.0   -0.48    3.01    1.93   257.78025   118.07990   219.90851
   448  C   4.0    0.08    3.99    3.61   258.03451   119.74647   222.06482
   449  C   4.0    0.30    3.01    3.02   255.74447   121.50518   222.22573
   450  O   6.0   -0.36    1.00    1.80   254.61793   121.87110   224.21946
   451  C   4.0   -0.13    3.99    3.60   260.48801   121.24501   221.86253
   452  C   4.0   -0.10    3.98    3.58   262.86506   119.58871   221.99625
   453  C   4.0   -0.23    3.98    3.59   265.18177   121.17986   221.34737
   454  C   4.0   -0.23    3.98    3.59   263.18823   118.37841   224.59226
   455  H   1.0    0.29    1.00    1.43   259.12940   118.14446   218.55886
   456  H   1.0    0.13    0.99    1.43   258.00868   118.60175   223.79645
   457  H   1.0    0.13    0.99    1.43   260.45353   122.24652   220.05899
   458  H   1.0    0.12    0.99    1.43   260.52352   122.66315   223.36066
   459  H   1.0    0.13    0.99    1.43   262.70291   118.07305   220.59138
   460  H   1.0    0.09    0.99    1.43   266.87527   120.02252   221.41211
   461  H   1.0    0.10    0.99    1.43   264.99910   121.97463   219.46256
   462  H   1.0    0.10    0.99    1.43   265.38091   122.72532   222.68721
   463  H   1.0    0.10    0.99    1.43   264.79556   117.09911   224.59221
   464  H   1.0    0.10    0.99    1.43   263.46852   119.82212   226.02768
   465  H   1.0    0.10    0.99    1.43   261.53924   117.26565   225.10411
   466  N   5.0   -0.46    3.01    1.93   255.02437   122.51936   220.04041
   467  C   4.0    0.08    3.99    3.60   252.83598   124.16928   219.91530
   468  C   4.0    0.11    3.00    3.02   250.51716   122.73859   220.89876
   469  O   6.0   -0.38    1.00    1.80   249.09358   123.59866   222.50932
   470  C   4.0   -0.21    3.98    3.59   252.41776   125.04057   217.20881
   471  H   1.0    0.30    1.00    1.43   256.09605   122.26926   218.47453
   472  H   1.0    0.16    0.99    1.43   253.14532   125.79136   221.17498
   473  H   1.0    0.11    0.99    1.43   250.73675   126.21337   217.11298
   474  H   1.0    0.12    0.99    1.43   254.04146   126.13698   216.59461
   475  H   1.0    0.13    0.99    1.43   252.19175   123.40425   215.98634
   476  H   1.0    0.31    1.00    1.43   261.49631   128.80352   228.07951
   477  H   1.0    0.16    1.00    1.43   286.15253   137.17166   191.45615
   478  H   1.0    0.29    1.00    1.43   291.98698   133.35975   211.01980
   479  H   1.0    0.13    1.00    1.43   293.52228   127.60104   213.29674
   480  H   1.0    0.29    1.00    1.43   292.77396   132.44584   220.71189
   481  H   1.0    0.15    1.00    1.43   289.02163   127.05955   220.78696
   482  H   1.0    0.29    1.00    1.43   288.40436   130.64618   229.66072
   483  H   1.0    0.11    1.00    1.43   283.16103   128.90934   233.99426
   484  H   1.0    0.29    1.00    1.43   279.48517   120.19642   227.00272
   485  H   1.0    0.14    1.00    1.43   284.65589   116.22168   225.77719
   486  H   1.0    0.28    1.00    1.43   281.76848   114.01149   216.72380
   487  H   1.0    0.11    1.00    1.43   287.01135   117.38634   212.88335
   488  H   1.0    0.28    1.00    1.43   277.17584   120.34494   197.55305
   489  H   1.0    0.13    1.00    1.43   270.82133   118.80056   196.82867
   490  H   1.0    0.28    1.00    1.43   272.77422   116.10302   205.21836
   491  H   1.0    0.14    1.00    1.43   263.33465   117.18196   205.20214
   492  H   1.0    0.29    1.00    1.43   263.96161   113.40272   209.03149
   493  H   1.0    0.16    1.00    1.43   250.10955   121.02158   220.22290

           ------------------------------------------------- 
          |        Self-Consistent Charge Iterations        |
           ------------------------------------------------- 

          ...................................................
          :                      SETUP                      :
          :.................................................:
          :  # basis functions                1192          :
          :  # atomic orbitals                1192          :
          :  # shells                          726          :
          :  # electrons                      1332          :
          :  max. iterations                   250          :
          :  Hamiltonian                  GFN2-xTB          :
          :  restarted?                      false          :
          :  GBSA solvation                   true          :
          :  PC potential                    false          :
          :  electronic temp.          500.0000000     K    :
          :  accuracy                    0.1000000          :
          :  -> integral cutoff          0.3500000E+02      :
          :  -> integral neglect         0.1000000E-08      :
          :  -> SCF convergence          0.1000000E-06 Eh   :
          :  -> wf. convergence          0.1000000E-04 e    :
          :  Broyden damping             0.4000000          :
          ...................................................

 iter      E             dE          RMSdq      gap      omega  full diag
   1   -764.8658059 -0.764866E+03  0.421E+00    1.51       0.0  T
   2   -766.9190146 -0.205321E+01  0.215E+00    1.65       1.0  T
   3   -767.0003593 -0.813448E-01  0.116E+00    2.11       1.0  T
   4   -767.0284212 -0.280618E-01  0.265E-01    1.39       1.0  T
   5   -767.0461566 -0.177354E-01  0.117E-01    1.56       1.0  T
   6   -767.0468960 -0.739439E-03  0.486E-02    1.61       1.0  T
   7   -767.0469915 -0.954277E-04  0.193E-02    1.66       1.0  T
   8   -767.0470259 -0.344374E-04  0.770E-03    1.66       1.0  T
   9   -767.0470310 -0.509163E-05  0.335E-03    1.66       1.3  T
  10   -767.0470317 -0.678915E-06  0.148E-03    1.66       3.0  T
  11   -767.0470319 -0.274606E-06  0.605E-04    1.66       7.4  T
  12   -767.0470320 -0.347773E-07  0.294E-04    1.66      15.3  T
  13   -767.0470320 -0.856153E-08  0.134E-04    1.66      33.7  T
  14   -767.0470320 -0.193029E-08  0.528E-05    1.66      85.3  T
  15   -767.0470320 -0.309569E-09  0.230E-05    1.66     195.8  T

   *** convergence criteria satisfied after 15 iterations ***

         #    Occupation            Energy/Eh            Energy/eV
      -------------------------------------------------------------
         1        2.0000           -0.7417214             -20.1833
       ...           ...                  ...                  ...
       660        2.0000           -0.3675220             -10.0008
       661        2.0000           -0.3672603              -9.9937
       662        2.0000           -0.3642792              -9.9125
       663        2.0000           -0.3634505              -9.8900
       664        2.0000           -0.3617057              -9.8425
       665        2.0000           -0.3594215              -9.7804
       666        2.0000           -0.3556572              -9.6779 (HOMO)
       667                         -0.2947379              -8.0202 (LUMO)
       668                         -0.2909366              -7.9168
       669                         -0.2888908              -7.8611
       670                         -0.2861442              -7.7864
       671                         -0.2823999              -7.6845
       ...                                ...                  ...
      1192                          0.6529269              17.7670
      -------------------------------------------------------------
                  HL-Gap            0.0609193 Eh            1.6577 eV
             Fermi-level           -0.3251922 Eh           -8.8489 eV

 SCC (total)                   0 d,  0 h,  0 min, 10.080 sec
 SCC setup                      ...        0 min,  0.158 sec (  1.567%)
 Dispersion                     ...        0 min,  0.161 sec (  1.596%)
 integral evaluation            ...        0 min,  0.323 sec (  3.204%)
 zeroth order Hamiltonian       ...        0 min,  0.008 sec (  0.081%)
 iterations                     ...        0 min,  7.985 sec ( 79.213%)
 molecular gradient             ...        0 min,  1.396 sec ( 13.850%)
 printout                       ...        0 min,  0.049 sec (  0.488%)

         :::::::::::::::::::::::::::::::::::::::::::::::::::::
         ::                     SUMMARY                     ::
         :::::::::::::::::::::::::::::::::::::::::::::::::::::
         :: total energy             -757.988455166723 Eh   ::
         :: total w/o Gsasa/hb       -757.904385781411 Eh   ::
         :: gradient norm               0.668308974124 Eh/α ::
         :: HOMO-LUMO gap               1.657699547293 eV   ::
         ::.................................................::
         :: SCC energy               -767.064255438841 Eh   ::
         :: -> isotropic ES             2.587296319250 Eh   ::
         :: -> anisotropic ES          -0.071967864539 Eh   ::
         :: -> anisotropic XC           0.227169479397 Eh   ::
         :: -> dispersion              -0.652197990952 Eh   ::
         :: -> Gsolv                   -0.634167932373 Eh   ::
         ::    -> Gborn                -0.550098547061 Eh   ::
         ::    -> Gsasa                -0.019080895524 Eh   ::
         ::    -> Ghb                  -0.066845932915 Eh   ::
         ::    -> Gshift                0.001857443127 Eh   ::
         :: repulsion energy            9.009917385777 Eh   ::
         :: add. restraining            0.000000000000 Eh   ::
         :::::::::::::::::::::::::::::::::::::::::::::::::::::

           -------------------------------------------------
          |                Property Printout                |
           -------------------------------------------------

    * Orbital Energies and Occupations

         #    Occupation            Energy/Eh            Energy/eV
      -------------------------------------------------------------
         1        2.0000           -0.7417214             -20.1833
       ...           ...                  ...                  ...
       654        2.0000           -0.3759238             -10.2294
       655        2.0000           -0.3712792             -10.1030
       656        2.0000           -0.3711326             -10.0990
       657        2.0000           -0.3700534             -10.0697
       658        2.0000           -0.3697940             -10.0626
       659        2.0000           -0.3683151             -10.0224
       660        2.0000           -0.3675220             -10.0008
       661        2.0000           -0.3672603              -9.9937
       662        2.0000           -0.3642792              -9.9125
       663        2.0000           -0.3634505              -9.8900
       664        2.0000           -0.3617057              -9.8425
       665        2.0000           -0.3594215              -9.7804
       666        2.0000           -0.3556572              -9.6779 (HOMO)
       667                         -0.2947379              -8.0202 (LUMO)
       668                         -0.2909366              -7.9168
       669                         -0.2888908              -7.8611
       670                         -0.2861442              -7.7864
       671                         -0.2823999              -7.6845
       672                         -0.2803868              -7.6297
       673                         -0.2798562              -7.6153
       674                         -0.2797852              -7.6133
       675                         -0.2788582              -7.5881
       676                         -0.2601330              -7.0786
       677                         -0.2547228              -6.9314
       ...                                ...                  ...
      1192                          0.6529269              17.7670
      -------------------------------------------------------------
                  HL-Gap            0.0609193 Eh            1.6577 eV
             Fermi-level           -0.3251922 Eh           -8.8489 eV

   #   Z        covCN         q      C6AA      α(0)
   1   7 N      2.635    -0.388    30.039     8.140
   2   6 C      3.787     0.039    19.932     6.359
   3   6 C      2.761     0.263    22.559     7.778
   4   8 O      0.859    -0.495    23.666     6.522
   5   6 C      3.810    -0.062    21.683     6.628
   6   6 C      3.807    -0.091    22.237     6.713
   7   6 C      2.745     0.290    22.086     7.695
   8   8 O      0.859    -0.497    23.710     6.528
   9   7 N      2.639    -0.292    27.521     7.791
  10   1 H      0.860     0.173     1.252     1.753
  11   1 H      0.923     0.022     2.703     2.571
  12   1 H      0.924     0.072     2.059     2.244
  13   1 H      0.924     0.051     2.307     2.375
  14   1 H      0.925     0.053     2.282     2.362
  15   1 H      0.924     0.061     2.183     2.311
  16   1 H      0.860     0.225     0.985     1.555
  17   1 H      0.860     0.240     0.924     1.505
  18   7 N      2.689    -0.169    24.664     7.376
  19   6 C      3.799    -0.003    20.644     6.469
  20   6 C      2.758     0.274    22.361     7.744
  21   8 O      0.858    -0.472    23.173     6.454
  22   6 C      3.726     0.105    18.943     6.214
  23   8 O      1.655    -0.462    22.100     6.346
  24   6 C      3.752    -0.145    23.365     6.893
  25   1 H      0.860     0.221     1.007     1.572
  26   1 H      0.924     0.092     1.864     2.135
  27   1 H      0.924     0.072     2.060     2.245
  28   1 H      0.804     0.324     0.652     1.269
  29   1 H      0.925     0.082     1.963     2.191
  30   1 H      0.925     0.065     2.143     2.289
  31   1 H      0.925     0.060     2.197     2.318
  32   7 N      2.692    -0.172    24.726     7.385
  33   6 C      3.800    -0.001    20.605     6.463
  34   6 C      2.756     0.270    22.438     7.757
  35   8 O      0.858    -0.459    22.902     6.416
  36   6 C      3.726     0.117    18.771     6.186
  37   8 O      1.656    -0.454    21.928     6.321
  38   6 C      3.754    -0.130    23.054     6.847
  39   1 H      0.860     0.203     1.090     1.636
  40   1 H      0.923     0.103     1.762     2.076
  41   1 H      0.923     0.014     2.832     2.632
  42   1 H      0.804     0.332     0.631     1.248
  43   1 H      0.925     0.074     2.037     2.232
  44   1 H      0.925     0.054     2.275     2.359
  45   1 H      0.925     0.078     1.995     2.209
  46   7 N      2.692    -0.172    24.714     7.383
  47   6 C      3.796     0.024    20.183     6.397
  48   6 C      2.762     0.271    22.430     7.756
  49   8 O      0.859    -0.477    23.270     6.468
  50   6 C      3.809    -0.055    21.559     6.609
  51   6 C      3.799    -0.091    22.235     6.714
  52   6 C      2.686     0.369    20.751     7.455
  53   8 O      0.856    -0.633    26.933     6.958
  54   8 O      0.856    -0.660    27.647     7.050
  55   1 H      0.860     0.189     1.163     1.689
  56   1 H      0.923     0.072     2.061     2.245
  57   1 H      0.924     0.048     2.351     2.398
  58   1 H      0.924     0.059     2.212     2.326
  59   1 H      0.924     0.026     2.646     2.544
  60   1 H      0.925     0.020     2.727     2.582
  61   7 N      2.687    -0.178    24.861     7.405
  62   6 C      3.751    -0.032    21.208     6.568
  63   6 C      2.754     0.276    22.333     7.739
  64   8 O      0.858    -0.496    23.696     6.527
  65   1 H      0.860     0.231     0.961     1.536
  66   1 H      0.924     0.085     1.933     2.174
  67   1 H      0.925     0.098     1.808     2.103
  68   7 N      2.693    -0.182    24.942     7.417
  69   6 C      3.796     0.025    20.163     6.394
  70   6 C      2.760     0.274    22.371     7.746
  71   8 O      0.859    -0.500    23.782     6.538
  72   6 C      3.758    -0.134    23.136     6.858
  73   1 H      0.860     0.236     0.940     1.519
  74   1 H      0.923     0.068     2.103     2.268
  75   1 H      0.925     0.078     2.000     2.212
  76   1 H      0.925     0.077     2.008     2.216
  77   1 H      0.925     0.071     2.071     2.250
  78   7 N      2.690    -0.182    24.946     7.418
  79   6 C      3.800     0.024    20.173     6.395
  80   6 C      2.761     0.270    22.445     7.759
  81   8 O      0.859    -0.497    23.715     6.529
  82   6 C      3.811    -0.077    21.969     6.672
  83   6 C      3.849    -0.016    20.831     6.492
  84   6 C      3.757    -0.111    22.674     6.789
  85   6 C      3.756    -0.116    22.778     6.805
  86   1 H      0.860     0.234     0.948     1.525
  87   1 H      0.924     0.080     1.978     2.200
  88   1 H      0.924     0.054     2.269     2.356
  89   1 H      0.924     0.062     2.179     2.308
  90   1 H      0.924     0.050     2.323     2.384
  91   1 H      0.925     0.046     2.372     2.409
  92   1 H      0.925     0.022     2.708     2.573
  93   1 H      0.925     0.042     2.428     2.437
  94   1 H      0.925     0.052     2.292     2.368
  95   1 H      0.925     0.041     2.435     2.440
  96   1 H      0.925     0.044     2.396     2.421
  97   7 N      2.691    -0.178    24.847     7.403
  98   6 C      3.800     0.027    20.124     6.387
  99   6 C      2.760     0.270    22.446     7.759
 100   8 O      0.859    -0.504    23.878     6.552
 101   6 C      3.811    -0.120    22.779     6.794
 102   6 C      2.744     0.290    22.083     7.694
 103   8 O      0.859    -0.473    23.186     6.456
 104   7 N      2.640    -0.277    27.169     7.741
 105   1 H      0.860     0.237     0.935     1.515
 106   1 H      0.923     0.091     1.873     2.140
 107   1 H      0.924     0.096     1.818     2.108
 108   1 H      0.924     0.093     1.846     2.125
 109   1 H      0.860     0.242     0.916     1.500
 110   1 H      0.860     0.228     0.974     1.546
 111   7 N      2.690    -0.170    24.676     7.378
 112   6 C      3.801     0.037    19.960     6.361
 113   6 C      2.761     0.272    22.402     7.751
 114   8 O      0.859    -0.510    24.008     6.569
 115   6 C      3.809    -0.055    21.549     6.608
 116   6 C      3.799    -0.097    22.358     6.733
 117   6 C      2.685     0.371    20.707     7.447
 118   8 O      0.856    -0.646    27.275     7.002
 119   8 O      0.856    -0.649    27.362     7.013
 120   1 H      0.860     0.232     0.958     1.533
 121   1 H      0.923     0.060     2.200     2.320
 122   1 H      0.924     0.064     2.153     2.295
 123   1 H      0.924     0.039     2.468     2.457
 124   1 H      0.924     0.025     2.661     2.551
 125   1 H      0.924     0.031     2.578     2.511
 126   7 N      2.692    -0.187    25.061     7.435
 127   6 C      3.805     0.022    20.195     6.397
 128   6 C      2.754     0.278    22.301     7.733
 129   8 O      0.858    -0.483    23.419     6.488
 130   6 C      3.853    -0.027    21.024     6.521
 131   6 C      3.805    -0.062    21.685     6.629
 132   6 C      3.755    -0.119    22.831     6.813
 133   6 C      3.751    -0.105    22.570     6.775
 134   1 H      0.860     0.232     0.955     1.531
 135   1 H      0.923     0.062     2.177     2.307
 136   1 H      0.924     0.051     2.307     2.375
 137   1 H      0.924     0.041     2.434     2.440
 138   1 H      0.924     0.038     2.474     2.460
 139   1 H      0.925     0.067     2.123     2.279
 140   1 H      0.925     0.039     2.464     2.455
 141   1 H      0.925     0.058     2.223     2.331
 142   1 H      0.925     0.047     2.356     2.400
 143   1 H      0.925     0.033     2.542     2.493
 144   1 H      0.925     0.048     2.342     2.393
 145   7 N      2.693    -0.204    25.434     7.490
 146   6 C      3.796     0.041    19.890     6.351
 147   6 C      2.758     0.288    22.115     7.701
 148   8 O      0.859    -0.476    23.267     6.467
 149   6 C      3.808    -0.118    22.756     6.791
 150   6 C      2.743     0.290    22.087     7.695
 151   8 O      0.859    -0.469    23.109     6.445
 152   7 N      2.637    -0.273    27.052     7.725
 153   1 H      0.860     0.242     0.917     1.500
 154   1 H      0.923     0.061     2.190     2.314
 155   1 H      0.925     0.086     1.914     2.163
 156   1 H      0.924     0.089     1.887     2.148
 157   1 H      0.860     0.217     1.025     1.586
 158   1 H      0.860     0.217     1.023     1.584
 159   7 N      2.690    -0.188    25.069     7.436
 160   6 C      3.798     0.028    20.103     6.384
 161   6 C      2.763     0.279    22.275     7.729
 162   8 O      0.859    -0.484    23.432     6.490
 163   6 C      3.809    -0.100    22.402     6.737
 164   6 C      2.743     0.295    21.994     7.679
 165   8 O      0.859    -0.492    23.598     6.513
 166   7 N      2.638    -0.289    27.456     7.782
 167   1 H      0.860     0.221     1.005     1.571
 168   1 H      0.923     0.098     1.800     2.098
 169   1 H      0.924     0.065     2.144     2.290
 170   1 H      0.924     0.070     2.087     2.259
 171   1 H      0.860     0.236     0.941     1.519
 172   1 H      0.860     0.223     0.997     1.564
 173   7 N      2.690    -0.184    24.985     7.424
 174   6 C      3.801     0.032    20.028     6.372
 175   6 C      2.759     0.277    22.312     7.735
 176   8 O      0.859    -0.491    23.577     6.510
 177   6 C      3.809    -0.109    22.571     6.763
 178   6 C      2.743     0.293    22.035     7.686
 179   8 O      0.859    -0.484    23.429     6.490
 180   7 N      2.638    -0.282    27.294     7.759
 181   1 H      0.860     0.216     1.027     1.588
 182   1 H      0.923     0.074     2.045     2.236
 183   1 H      0.925     0.085     1.925     2.170
 184   1 H      0.924     0.088     1.895     2.153
 185   1 H      0.860     0.220     1.008     1.572
 186   1 H      0.860     0.209     1.063     1.615
 187   7 N      2.689    -0.179    24.875     7.407
 188   6 C      3.798     0.025    20.156     6.392
 189   6 C      2.756     0.276    22.326     7.738
 190   8 O      0.859    -0.511    24.030     6.572
 191   6 C      3.810    -0.071    21.854     6.654
 192   6 C      3.850    -0.016    20.818     6.490
 193   6 C      3.757    -0.110    22.655     6.786
 194   6 C      3.757    -0.120    22.861     6.817
 195   1 H      0.860     0.225     0.989     1.558
 196   1 H      0.924     0.074     2.047     2.237
 197   1 H      0.924     0.048     2.351     2.398
 198   1 H      0.924     0.057     2.235     2.338
 199   1 H      0.924     0.043     2.408     2.427
 200   1 H      0.925     0.053     2.288     2.366
 201   1 H      0.925     0.025     2.664     2.553
 202   1 H      0.925     0.042     2.419     2.432
 203   1 H      0.925     0.056     2.248     2.345
 204   1 H      0.925     0.047     2.356     2.400
 205   1 H      0.925     0.035     2.514     2.479
 206   7 N      2.690    -0.187    25.050     7.433
 207   6 C      3.799     0.024    20.173     6.395
 208   6 C      2.758     0.277    22.307     7.734
 209   8 O      0.858    -0.494    23.642     6.519
 210   6 C      3.809    -0.066    21.764     6.641
 211   6 C      3.806    -0.100    22.409     6.739
 212   6 C      2.746     0.296    21.978     7.676
 213   8 O      0.859    -0.508    23.963     6.563
 214   7 N      2.639    -0.291    27.512     7.790
 215   1 H      0.860     0.226     0.982     1.552
 216   1 H      0.924     0.071     2.074     2.252
 217   1 H      0.924     0.063     2.160     2.298
 218   1 H      0.924     0.063     2.168     2.303
 219   1 H      0.925     0.062     2.176     2.307
 220   1 H      0.924     0.082     1.960     2.189
 221   1 H      0.860     0.234     0.950     1.527
 222   1 H      0.860     0.234     0.947     1.524
 223   7 N      2.693    -0.175    24.792     7.395
 224   6 C      3.794     0.029    20.091     6.383
 225   6 C      2.767     0.215    23.446     7.930
 226   8 O      0.856    -0.358    20.852     6.122
 227   6 C      3.809    -0.081    22.031     6.681
 228   6 C      3.804    -0.085    22.125     6.696
 229   6 C      3.739    -0.026    21.111     6.556
 230   7 N      2.702    -0.137    23.964     7.270
 231   6 C      2.735     0.235    23.078     7.865
 232   7 N      2.647    -0.244    26.360     7.625
 233   7 N      2.655    -0.261    26.775     7.685
 234   1 H      0.860     0.219     1.013     1.577
 235   1 H      0.923     0.093     1.847     2.125
 236   1 H      0.924     0.071     2.076     2.253
 237   1 H      0.924     0.074     2.037     2.232
 238   1 H      0.924     0.078     2.001     2.212
 239   1 H      0.924     0.075     2.033     2.230
 240   1 H      0.925     0.082     1.963     2.191
 241   1 H      0.924     0.084     1.941     2.179
 242   1 H      0.860     0.235     0.946     1.524
 243   1 H      0.858     0.242     0.917     1.500
 244   1 H      0.860     0.256     0.860     1.453
 245   1 H      0.860     0.249     0.886     1.474
 246   1 H      0.860     0.257     0.856     1.449
 247   7 N      2.636    -0.387    30.003     8.135
 248   6 C      3.787     0.039    19.936     6.360
 249   6 C      2.766     0.198    23.786     7.987
 250   8 O      0.856    -0.371    21.120     6.162
 251   6 C      3.853    -0.023    20.954     6.511
 252   6 C      3.804    -0.057    21.596     6.616
 253   6 C      3.755    -0.116    22.775     6.805
 254   6 C      3.752    -0.113    22.719     6.797
 255   1 H      0.860     0.168     1.284     1.775
 256   1 H      0.923     0.035     2.519     2.482
 257   1 H      0.924     0.052     2.294     2.369
 258   1 H      0.924     0.028     2.616     2.529
 259   1 H      0.924     0.031     2.578     2.511
 260   1 H      0.925     0.059     2.215     2.328
 261   1 H      0.925     0.034     2.534     2.489
 262   1 H      0.925     0.045     2.378     2.412
 263   1 H      0.925     0.039     2.462     2.454
 264   1 H      0.925     0.048     2.345     2.395
 265   1 H      0.925     0.046     2.370     2.407
 266   7 N      2.636    -0.380    29.832     8.112
 267   6 C      3.786     0.038    19.950     6.362
 268   6 C      2.766     0.207    23.606     7.957
 269   8 O      0.856    -0.387    21.418     6.205
 270   6 C      3.853    -0.018    20.857     6.495
 271   6 C      3.756    -0.118    22.812     6.810
 272   6 C      3.757    -0.112    22.692     6.792
 273   1 H      0.860     0.158     1.348     1.819
 274   1 H      0.923     0.051     2.309     2.376
 275   1 H      0.924     0.057     2.240     2.341
 276   1 H      0.925     0.044     2.394     2.420
 277   1 H      0.925     0.034     2.531     2.488
 278   1 H      0.925     0.056     2.243     2.342
 279   1 H      0.925     0.038     2.478     2.462
 280   1 H      0.925     0.045     2.381     2.413
 281   1 H      0.925     0.043     2.407     2.426
 282   7 N      2.636    -0.390    30.108     8.149
 283   6 C      3.783     0.026    20.155     6.395
 284   6 C      2.767     0.195    23.835     7.995
 285   8 O      0.856    -0.365    20.996     6.143
 286   6 C      3.727     0.125    18.636     6.163
 287   8 O      1.655    -0.474    22.334     6.380
 288   6 C      3.754    -0.130    23.063     6.848
 289   1 H      0.860     0.175     1.242     1.746
 290   1 H      0.924     0.046     2.374     2.410
 291   1 H      0.923     0.017     2.774     2.605
 292   1 H      0.804     0.320     0.663     1.279
 293   1 H      0.925     0.059     2.211     2.325
 294   1 H      0.925     0.047     2.364     2.404
 295   1 H      0.925     0.064     2.157     2.297
 296   7 N      2.634    -0.389    30.072     8.144
 297   6 C      3.782     0.036    19.979     6.367
 298   6 C      2.767     0.196    23.822     7.993
 299   8 O      0.856    -0.382    21.329     6.192
 300   6 C      3.813    -0.065    21.743     6.637
 301   6 C      3.850    -0.008    20.694     6.470
 302   6 C      3.758    -0.112    22.696     6.792
 303   6 C      3.756    -0.117    22.802     6.808
 304   1 H      0.860     0.159     1.343     1.815
 305   1 H      0.924     0.078     2.005     2.214
 306   1 H      0.924     0.034     2.536     2.490
 307   1 H      0.924     0.050     2.319     2.381
 308   1 H      0.924     0.028     2.617     2.530
 309   1 H      0.925     0.043     2.414     2.430
 310   1 H      0.925     0.029     2.596     2.519
 311   1 H      0.925     0.043     2.408     2.427
 312   1 H      0.925     0.046     2.374     2.409
 313   1 H      0.925     0.044     2.400     2.423
 314   1 H      0.925     0.036     2.502     2.474
 315   7 N      2.637    -0.383    29.902     8.121
 316   6 C      3.787     0.035    19.999     6.369
 317   6 C      2.769     0.206    23.627     7.961
 318   8 O      0.856    -0.370    21.092     6.157
 319   6 C      3.853    -0.020    20.896     6.502
 320   6 C      3.802    -0.059    21.632     6.622
 321   6 C      3.755    -0.114    22.740     6.799
 322   6 C      3.751    -0.114    22.750     6.802
 323   1 H      0.860     0.159     1.343     1.815
 324   1 H      0.924     0.054     2.270     2.356
 325   1 H      0.924     0.035     2.512     2.479
 326   1 H      0.924     0.031     2.576     2.510
 327   1 H      0.924     0.039     2.463     2.454
 328   1 H      0.925     0.046     2.369     2.407
 329   1 H      0.925     0.030     2.582     2.513
 330   1 H      0.925     0.047     2.353     2.399
 331   1 H      0.925     0.039     2.466     2.456
 332   1 H      0.925     0.043     2.409     2.427
 333   1 H      0.925     0.038     2.475     2.460
 334   7 N      2.635    -0.390    30.107     8.149
 335   6 C      3.784     0.041    19.911     6.356
 336   6 C      2.765     0.198    23.788     7.987
 337   8 O      0.856    -0.374    21.170     6.169
 338   6 C      3.808    -0.069    21.811     6.648
 339   6 C      3.850    -0.009    20.704     6.472
 340   6 C      3.756    -0.114    22.736     6.798
 341   6 C      3.757    -0.102    22.510     6.765
 342   1 H      0.860     0.172     1.261     1.759
 343   1 H      0.924     0.055     2.262     2.352
 344   1 H      0.924     0.058     2.219     2.330
 345   1 H      0.924     0.038     2.478     2.462
 346   1 H      0.924     0.041     2.440     2.443
 347   1 H      0.925     0.036     2.501     2.473
 348   1 H      0.925     0.045     2.381     2.413
 349   1 H      0.925     0.043     2.405     2.425
 350   1 H      0.925     0.032     2.558     2.501
 351   1 H      0.925     0.033     2.544     2.494
 352   1 H      0.925     0.030     2.580     2.512
 353   7 N      2.635    -0.395    30.235     8.167
 354   6 C      3.792     0.035    20.003     6.369
 355   6 C      2.760     0.269    22.457     7.760
 356   8 O      0.858    -0.512    24.050     6.575
 357   6 C      3.853    -0.021    20.912     6.504
 358   6 C      3.755    -0.111    22.672     6.789
 359   6 C      3.756    -0.113    22.725     6.797
 360   1 H      0.860     0.159     1.343     1.815
 361   1 H      0.923     0.032     2.560     2.502
 362   1 H      0.924     0.043     2.405     2.425
 363   1 H      0.925     0.047     2.364     2.404
 364   1 H      0.925     0.030     2.585     2.514
 365   1 H      0.925     0.039     2.464     2.455
 366   1 H      0.925     0.046     2.371     2.408
 367   1 H      0.925     0.050     2.325     2.385
 368   1 H      0.925     0.045     2.384     2.414
 369   7 N      2.693    -0.182    24.937     7.417
 370   6 C      3.797     0.039    19.929     6.357
 371   6 C      2.765     0.193    23.877     8.002
 372   8 O      0.856    -0.377    21.229     6.177
 373   6 C      3.801    -0.101    22.418     6.741
 374   6 C      2.681     0.371    20.711     7.447
 375   8 O      0.856    -0.618    26.563     6.910
 376   8 O      0.856    -0.603    26.192     6.862
 377   1 H      0.860     0.237     0.936     1.515
 378   1 H      0.923     0.085     1.929     2.172
 379   1 H      0.924     0.041     2.438     2.442
 380   1 H      0.924     0.042     2.421     2.433
 381   7 N      2.638    -0.395    30.226     8.165
 382   6 C      3.787     0.040    19.923     6.357
 383   6 C      2.759     0.270    22.436     7.757
 384   8 O      0.859    -0.529    24.434     6.627
 385   6 C      3.811    -0.070    21.837     6.652
 386   6 C      3.850    -0.007    20.661     6.465
 387   6 C      3.757    -0.114    22.738     6.799
 388   6 C      3.755    -0.109    22.639     6.784
 389   1 H      0.860     0.157     1.352     1.822
 390   1 H      0.924     0.036     2.499     2.472
 391   1 H      0.924     0.052     2.295     2.369
 392   1 H      0.924     0.030     2.584     2.514
 393   1 H      0.924     0.028     2.620     2.531
 394   1 H      0.925     0.052     2.295     2.369
 395   1 H      0.925     0.040     2.443     2.444
 396   1 H      0.925     0.045     2.387     2.416
 397   1 H      0.925     0.046     2.374     2.409
 398   1 H      0.925     0.036     2.505     2.475
 399   1 H      0.925     0.023     2.685     2.562
 400   7 N      2.690    -0.181    24.931     7.416
 401   6 C      3.800     0.028    20.110     6.385
 402   6 C      2.760     0.285    22.171     7.711
 403   8 O      0.858    -0.506    23.916     6.557
 404   6 C      3.805    -0.086    22.137     6.698
 405   6 C      3.802    -0.075    21.939     6.669
 406   6 C      3.737    -0.024    21.092     6.554
 407   7 N      2.701    -0.137    23.961     7.270
 408   6 C      2.735     0.234    23.090     7.867
 409   7 N      2.648    -0.239    26.249     7.609
 410   7 N      2.656    -0.258    26.699     7.674
 411   1 H      0.860     0.237     0.934     1.514
 412   1 H      0.923     0.059     2.210     2.325
 413   1 H      0.924     0.076     2.017     2.221
 414   1 H      0.924     0.073     2.050     2.239
 415   1 H      0.924     0.054     2.266     2.354
 416   1 H      0.924     0.063     2.167     2.302
 417   1 H      0.924     0.087     1.907     2.159
 418   1 H      0.924     0.091     1.872     2.140
 419   1 H      0.860     0.233     0.954     1.530
 420   1 H      0.860     0.227     0.977     1.548
 421   1 H      0.860     0.238     0.930     1.510
 422   1 H      0.860     0.254     0.869     1.460
 423   1 H      0.860     0.238     0.931     1.511
 424   7 N      2.690    -0.181    24.919     7.414
 425   6 C      3.795     0.009    20.436     6.437
 426   6 C      2.759     0.280    22.260     7.726
 427   8 O      0.859    -0.499    23.770     6.537
 428   6 C      3.678     0.064    19.725     6.362
 429   8 O      1.656    -0.443    21.704     6.289
 430   1 H      0.860     0.239     0.929     1.510
 431   1 H      0.923     0.083     1.947     2.182
 432   1 H      0.924     0.049     2.337     2.391
 433   1 H      0.924     0.099     1.796     2.096
 434   1 H      0.805     0.305     0.705     1.319
 435   7 N      2.691    -0.179    24.866     7.406
 436   6 C      3.803     0.047    19.793     6.334
 437   6 C      2.760     0.282    22.234     7.722
 438   8 O      0.858    -0.517    24.154     6.589
 439   6 C      3.803    -0.099    22.390     6.737
 440   6 C      2.681     0.374    20.663     7.439
 441   8 O      0.856    -0.633    26.933     6.958
 442   8 O      0.856    -0.624    26.714     6.930
 443   1 H      0.860     0.198     1.118     1.656
 444   1 H      0.923     0.055     2.261     2.352
 445   1 H      0.924     0.041     2.437     2.441
 446   1 H      0.924     0.024     2.672     2.556
 447   7 N      2.693    -0.183    24.962     7.420
 448   6 C      3.797     0.036    19.977     6.364
 449   6 C      2.759     0.286    22.153     7.708
 450   8 O      0.859    -0.510    24.013     6.570
 451   6 C      3.810    -0.066    21.758     6.640
 452   6 C      3.849    -0.009    20.707     6.472
 453   6 C      3.757    -0.109    22.642     6.784
 454   6 C      3.756    -0.117    22.798     6.808
 455   1 H      0.860     0.214     1.037     1.595
 456   1 H      0.923     0.057     2.239     2.340
 457   1 H      0.924     0.050     2.324     2.384
 458   1 H      0.924     0.053     2.280     2.361
 459   1 H      0.924     0.027     2.623     2.533
 460   1 H      0.925     0.060     2.199     2.319
 461   1 H      0.925     0.032     2.553     2.499
 462   1 H      0.925     0.039     2.466     2.456
 463   1 H      0.925     0.056     2.243     2.342
 464   1 H      0.925     0.051     2.313     2.379
 465   1 H      0.925     0.026     2.638     2.540
 466   7 N      2.693    -0.181    24.910     7.413
 467   6 C      3.794     0.044    19.842     6.343
 468   6 C      2.766     0.216    23.441     7.929
 469   8 O      0.856    -0.363    20.956     6.138
 470   6 C      3.757    -0.129    23.035     6.843
 471   1 H      0.860     0.222     0.999     1.566
 472   1 H      0.923     0.071     2.077     2.254
 473   1 H      0.925     0.084     1.941     2.179
 474   1 H      0.925     0.076     2.025     2.225
 475   1 H      0.925     0.074     2.047     2.238
 476   1 H      0.862     0.161     1.329     1.806
 477   1 H      0.930     0.060     2.198     2.318
 478   1 H      0.862     0.174     1.246     1.748
 479   1 H      0.930     0.075     2.029     2.227
 480   1 H      0.862     0.190     1.157     1.685
 481   1 H      0.930     0.082     1.956     2.187
 482   1 H      0.862     0.184     1.189     1.708
 483   1 H      0.930     0.071     2.079     2.255
 484   1 H      0.862     0.184     1.189     1.708
 485   1 H      0.930     0.075     2.027     2.226
 486   1 H      0.862     0.183     1.195     1.712
 487   1 H      0.930     0.067     2.114     2.274
 488   1 H      0.862     0.183     1.196     1.713
 489   1 H      0.930     0.078     2.002     2.212
 490   1 H      0.862     0.182     1.200     1.716
 491   1 H      0.930     0.070     2.089     2.260
 492   1 H      0.862     0.178     1.224     1.733
 493   1 H      0.930     0.066     2.132     2.283

 Mol. C6AA /au·bohr⁶  :    2164640.881760
 Mol. C8AA /au·bohr⁸  :   47318793.419616
 Mol. α(0) /au        :       2187.349150


Wiberg/Mayer (AO) data.
largest (>0.10) Wiberg bond orders for each atom
          total WBO             WBO to atom ...
     1  N   2.992        C    2 1.014    H  476 0.961    H   10 0.946
     2  C   3.984        N    1 1.014    C    5 0.974    H   11 0.961    C    3 0.942
     3  C   3.945        O    4 1.600    N   18 1.311    C    2 0.942
     4  O   1.964        C    3 1.600    N   18 0.189
     5  C   3.991        C    6 1.000    H   13 0.975    C    2 0.974    H   12 0.968
     6  C   3.995        C    5 1.000    H   14 0.973    C    7 0.968    H   15 0.949
     7  C   3.947        O    8 1.645    N    9 1.307    C    6 0.968
     8  O   1.945        C    7 1.645    N    9 0.198
     9  N   3.388        C    7 1.307    H   16 0.929    H   17 0.921    O    8 0.198
    10  H   0.970        N    1 0.946
    11  H   0.999        C    2 0.961
    12  H   0.995        C    5 0.968
    13  H   0.997        C    5 0.975
    14  H   0.997        C    6 0.973
    15  H   0.996        C    6 0.949
    16  H   0.949        N    9 0.929
    17  H   0.942        N    9 0.921
    18  N   3.473        C    3 1.311    C   19 0.978    H   25 0.911    O    4 0.189
    19  C   3.958        N   18 0.978    H   26 0.948    C   22 0.946    C   20 0.938
    20  C   3.949        O   21 1.627    N   32 1.298    C   19 0.938
    21  O   1.976        C   20 1.627    N   32 0.193
    22  C   3.950        O   23 1.004    C   24 0.996    H   27 0.958    C   19 0.946
    23  O   1.962        C   22 1.004    H   28 0.873
    24  C   3.987        C   22 0.996    H   30 0.982    H   31 0.980    H   29 0.979
    25  H   0.951        N   18 0.911
    26  H   0.991        C   19 0.948
    27  H   0.994        C   22 0.958
    28  H   0.895        O   23 0.873
    29  H   0.993        C   24 0.979
    30  H   0.996        C   24 0.982
    31  H   0.996        C   24 0.980
    32  N   3.470        C   20 1.298    C   33 0.978    H   39 0.916    O   21 0.193
    33  C   3.958        N   32 0.978    C   36 0.947    H   40 0.946    C   34 0.939
    34  C   3.949        O   35 1.614    N   46 1.304    C   33 0.939
    35  O   1.990        C   34 1.614    N   46 0.194
    36  C   3.959        O   37 1.006    C   38 1.004    H   41 0.957    C   33 0.947
    37  O   1.963        C   36 1.006    H   42 0.871
[...]
   153  H   0.941        N  145 0.856
   154  H   0.996        C  146 0.948
   155  H   0.992        C  149 0.962
   156  H   0.992        C  149 0.945
   157  H   0.952        N  152 0.929
   158  H   0.953        N  152 0.928
   159  N   3.474        C  147 1.319    C  160 0.978    H  167 0.886    O  148 0.196
   160  C   3.961        N  159 0.978    C  163 0.970    C  161 0.937    H  168 0.933
   161  C   3.951        O  162 1.608    N  173 1.316    C  160 0.937
   162  O   1.957        C  161 1.608    N  173 0.194
   163  C   3.991        C  160 0.970    H  170 0.970    C  164 0.960    H  169 0.959
   164  C   3.950        O  165 1.647    N  166 1.319    C  163 0.960
   165  O   1.946        C  164 1.647    N  166 0.203
   166  N   3.401        C  164 1.319    H  171 0.923    H  172 0.905    O  165 0.203
   167  H   0.951        N  159 0.886
   168  H   0.990        C  160 0.933
   169  H   0.996        C  163 0.959
   170  H   0.995        C  163 0.970
   171  H   0.944        N  166 0.923
   172  H   0.950        N  166 0.905
   173  N   3.473        C  161 1.316    C  174 0.975    H  181 0.902    O  162 0.194
   174  C   3.961        N  173 0.975    C  177 0.972    H  182 0.952    C  175 0.927
   175  C   3.955        O  176 1.617    N  187 1.328    C  174 0.927
   176  O   1.942        C  175 1.617    N  187 0.200
   177  C   3.987        C  174 0.972    C  178 0.963    H  183 0.960    H  184 0.958
   178  C   3.947        O  179 1.656    N  180 1.299    C  177 0.963
   179  O   1.954        C  178 1.656    N  180 0.198
   180  N   3.388        C  178 1.299    H  185 0.929    H  186 0.914    O  179 0.198
   181  H   0.953        N  173 0.902
   182  H   0.994        C  174 0.952
   183  H   0.993        C  177 0.960
   184  H   0.992        C  177 0.958
   185  H   0.951        N  180 0.929
   186  H   0.956        N  180 0.914
   187  N   3.486        C  175 1.328    C  188 0.978    H  195 0.890    O  176 0.200
   188  C   3.962        C  191 0.980    N  187 0.978    H  196 0.945    C  189 0.934
   189  C   3.949        O  190 1.615    N  206 1.320    C  188 0.934
   190  O   1.927        C  189 1.615    N  206 0.197
   191  C   3.986        C  192 0.991    C  188 0.980    H  198 0.970    H  197 0.968
   192  C   3.993        C  194 1.011    C  193 1.007    C  191 0.991    H  199 0.963
   193  C   3.995        C  192 1.007    H  200 0.984    H  201 0.983    H  202 0.982
   194  C   3.994        C  192 1.011    H  204 0.985    H  203 0.983    H  205 0.982
   195  H   0.949        N  187 0.890
   196  H   0.994        C  188 0.945
   197  H   0.998        C  191 0.968
   198  H   0.996        C  191 0.970
   199  H   0.998        C  192 0.963
   200  H   0.997        C  193 0.984
   201  H   0.999        C  193 0.983
   202  H   0.998        C  193 0.982
   203  H   0.997        C  194 0.983
   204  H   0.998        C  194 0.985
   205  H   0.999        C  194 0.982
   206  N   3.476        C  189 1.320    C  207 0.980    H  215 0.882    O  190 0.197
   207  C   3.965        C  210 0.983    N  206 0.980    H  216 0.952    C  208 0.928
   208  C   3.951        O  209 1.628    N  223 1.317    C  207 0.928
   209  O   1.947        C  208 1.628    N  223 0.200
   210  C   3.989        C  211 0.990    C  207 0.983    H  218 0.973    H  217 0.967
   211  C   3.991        C  210 0.990    H  219 0.974    C  212 0.970    H  220 0.950
   212  C   3.942        O  213 1.634    N  214 1.309    C  211 0.970
   213  O   1.950        C  212 1.634    N  214 0.196
   214  N   3.389        C  212 1.309    H  221 0.926    H  222 0.924    O  213 0.196
   215  H   0.949        N  206 0.882
   216  H   0.994        C  207 0.952
   217  H   0.996        C  210 0.967
   218  H   0.995        C  210 0.973
   219  H   0.996        C  211 0.974
   220  H   0.993        C  211 0.950
   221  H   0.945        N  214 0.926
   222  H   0.945        N  214 0.924
   223  N   3.479        C  208 1.317    C  224 0.972    H  234 0.899    O  209 0.200
   224  C   3.958        C  225 0.973    N  223 0.972    C  227 0.967    H  235 0.944
   225  C   3.901        O  226 1.899    C  224 0.973    H  477 0.957
   226  O   2.039        C  225 1.899
   227  C   3.980        C  228 1.005    H  237 0.967    C  224 0.967    H  236 0.964
   228  C   3.988        C  227 1.005    C  229 1.002    H  239 0.972    H  238 0.970
   229  C   3.961        C  228 1.002    N  230 0.993    H  241 0.958    H  240 0.957
   230  N   3.476        C  231 1.315    C  229 0.993    H  242 0.912    N  233 0.101    N  232 0.101
   231  C   3.977        N  232 1.325    N  230 1.315    N  233 1.303
   232  N   3.393        C  231 1.325    H  244 0.914    H  243 0.909    N  230 0.101
   233  N   3.379        C  231 1.303    H  245 0.919    H  246 0.915    N  230 0.101
   234  H   0.952        N  223 0.899
   235  H   0.991        C  224 0.944
   236  H   0.995        C  227 0.964
   237  H   0.994        C  227 0.967
   238  H   0.994        C  228 0.970
   239  H   0.994        C  228 0.972
   240  H   0.993        C  229 0.957
   241  H   0.993        C  229 0.958
   242  H   0.945        N  230 0.912
   243  H   0.942        N  232 0.909
   244  H   0.934        N  232 0.914
   245  H   0.938        N  233 0.919
   246  H   0.933        N  233 0.915
   247  N   3.001        C  248 1.011    H  478 0.958    H  255 0.949
   248  C   3.984        N  247 1.011    C  249 0.975    H  256 0.958    C  251 0.951
   249  C   3.894        O  250 1.889    C  248 0.975    H  479 0.954
   250  O   2.034        C  249 1.889
   251  C   3.991        C  253 1.009    C  252 0.995    H  257 0.964    C  248 0.951
   252  C   3.997        C  254 1.017    C  251 0.995    H  259 0.972    H  258 0.972
   253  C   3.994        C  251 1.009    H  262 0.982    H  261 0.981    H  260 0.980
   254  C   3.993        C  252 1.017    H  264 0.986    H  263 0.984    H  265 0.982
   255  H   0.972        N  247 0.949
   256  H   0.999        C  248 0.958
   257  H   0.997        C  251 0.964
   258  H   0.999        C  252 0.972
   259  H   0.999        C  252 0.972
   260  H   0.997        C  253 0.980
   261  H   0.999        C  253 0.981
   262  H   0.998        C  253 0.982
   263  H   0.998        C  254 0.984
   264  H   0.998        C  254 0.986
   265  H   0.998        C  254 0.982
   266  N   3.005        C  267 1.011    H  273 0.953    H  480 0.953
   267  C   3.984        N  266 1.011    C  268 0.982    H  274 0.960    C  270 0.947
   268  C   3.876        O  269 1.845    C  267 0.982    H  481 0.954
   269  O   2.046        C  268 1.845
   270  C   3.991        C  272 1.008    C  271 1.007    H  275 0.960    C  267 0.947
   271  C   3.994        C  270 1.007    H  276 0.983    H  278 0.981    H  277 0.979
   272  C   3.995        C  270 1.008    H  280 0.985    H  279 0.983    H  281 0.982
   273  H   0.975        N  266 0.953
   274  H   0.997        C  267 0.960
   275  H   0.997        C  270 0.960
   276  H   0.998        C  271 0.983
   277  H   0.999        C  271 0.979
   278  H   0.997        C  271 0.981
   279  H   0.997        C  272 0.983
   280  H   0.998        C  272 0.985
   281  H   0.998        C  272 0.982
   282  N   2.997        C  283 1.014    H  482 0.955    H  289 0.936
   283  C   3.987        N  282 1.014    C  284 0.976    H  290 0.965    C  286 0.931
   284  C   3.901        O  285 1.899    C  283 0.976    H  483 0.954
   285  O   2.042        C  284 1.899
   286  C   3.959        C  288 1.004    O  287 1.001    H  291 0.961    C  283 0.931
   287  O   1.958        C  286 1.001    H  292 0.840
   288  C   3.992        C  286 1.004    H  295 0.983    H  294 0.982    H  293 0.980
   289  H   0.969        N  282 0.936
   290  H   0.998        C  283 0.965
   291  H   1.000        C  286 0.961
   292  H   0.897        O  287 0.840
   293  H   0.996        C  288 0.980
   294  H   0.998        C  288 0.982
   295  H   0.996        C  288 0.983
   296  N   2.999        C  297 1.026    H  304 0.957    H  484 0.951
   297  C   3.986        N  296 1.026    C  298 0.992    C  300 0.960    H  305 0.921
   298  C   3.895        O  299 1.874    C  297 0.992    H  485 0.953
   299  O   2.036        C  298 1.874
   300  C   3.992        C  301 0.995    H  306 0.974    H  307 0.970    C  297 0.960
   301  C   3.996        C  303 1.010    C  302 1.006    C  300 0.995    H  308 0.965
   302  C   3.995        C  301 1.006    H  310 0.985    H  311 0.984    H  309 0.983
   303  C   3.995        C  301 1.010    H  312 0.982    H  314 0.981    H  313 0.980
   304  H   0.975        N  296 0.957
   305  H   0.994        C  297 0.921
   306  H   0.999        C  300 0.974
   307  H   0.997        C  300 0.970
   308  H   0.999        C  301 0.965
   309  H   0.997        C  302 0.983
   310  H   0.999        C  302 0.985
   311  H   0.998        C  302 0.984
   312  H   0.997        C  303 0.982
   313  H   0.998        C  303 0.980
   314  H   0.999        C  303 0.981
   315  N   2.996        C  316 1.006    H  323 0.948    H  486 0.946
   316  C   3.983        N  315 1.006    C  317 0.976    H  324 0.961    C  319 0.951
   317  C   3.893        O  318 1.904    C  316 0.976    H  487 0.955
   318  O   2.038        C  317 1.904
   319  C   3.994        C  321 1.008    C  320 0.995    H  325 0.961    C  316 0.951
   320  C   3.997        C  322 1.020    C  319 0.995    H  326 0.973    H  327 0.971
   321  C   3.996        C  319 1.008    H  328 0.984    H  330 0.983    H  329 0.982
   322  C   3.995        C  320 1.020    H  333 0.985    H  332 0.984    H  331 0.982
   323  H   0.975        N  315 0.948
   324  H   0.997        C  316 0.961
   325  H   0.999        C  319 0.961
   326  H   0.999        C  320 0.973
   327  H   0.998        C  320 0.971
   328  H   0.998        C  321 0.984
   329  H   0.999        C  321 0.982
   330  H   0.998        C  321 0.983
   331  H   0.998        C  322 0.982
   332  H   0.998        C  322 0.984
   333  H   0.998        C  322 0.985
   334  N   2.998        C  335 1.016    H  488 0.955    H  342 0.950
   335  C   3.985        N  334 1.016    C  336 0.978    C  338 0.959    H  343 0.951
   336  C   3.884        O  337 1.869    C  335 0.978    H  489 0.953
   337  O   2.058        C  336 1.869
   338  C   3.991        C  339 0.992    H  345 0.972    H  344 0.968    C  335 0.959
   339  C   3.995        C  341 1.010    C  340 1.007    C  338 0.992    H  346 0.963
   340  C   3.994        C  339 1.007    H  349 0.987    H  348 0.986    H  347 0.984
   341  C   3.996        C  339 1.010    H  351 0.985    H  352 0.981    H  350 0.979
   342  H   0.970        N  334 0.950
   343  H   0.997        C  335 0.951
   344  H   0.997        C  338 0.968
   345  H   0.998        C  338 0.972
   346  H   0.998        C  339 0.963
   347  H   0.997        C  340 0.984
   348  H   0.998        C  340 0.986
   349  H   0.998        C  340 0.987
   350  H   0.999        C  341 0.979
   351  H   0.999        C  341 0.985
   352  H   0.999        C  341 0.981
   353  N   2.993        C  354 1.013    H  490 0.957    H  360 0.951
   354  C   3.981        N  353 1.013    C  357 0.964    H  361 0.963    C  355 0.940
   355  C   3.939        O  356 1.585    N  369 1.328    C  354 0.940
   356  O   1.942        C  355 1.585    N  369 0.192
   357  C   3.991        C  359 1.009    C  358 1.007    C  354 0.964    H  362 0.959
   358  C   3.996        C  357 1.007    H  364 0.985    H  363 0.985    H  365 0.980
   359  C   3.994        C  357 1.009    H  367 0.984    H  366 0.983    H  368 0.981
   360  H   0.975        N  353 0.951
   361  H   0.998        C  354 0.963
   362  H   0.998        C  357 0.959
   363  H   0.998        C  358 0.985
   364  H   0.999        C  358 0.985
   365  H   0.998        C  358 0.980
   366  H   0.997        C  359 0.983
   367  H   0.997        C  359 0.984
   368  H   0.998        C  359 0.981
   369  N   3.484        C  355 1.328    C  370 0.985    H  377 0.882    O  356 0.192
   370  C   3.970        N  369 0.985    C  371 0.984    C  373 0.962    H  378 0.933
   371  C   3.905        O  372 1.845    C  370 0.984    H  491 0.952
   372  O   2.034        C  371 1.845
   373  C   3.970        H  379 0.974    H  380 0.964    C  370 0.962    C  374 0.879
   374  C   3.942        O  375 1.523    O  376 1.512    C  373 0.879
   375  O   1.828        C  374 1.523    O  376 0.222
   376  O   1.832        C  374 1.512    O  375 0.222
   377  H   0.944        N  369 0.882
   378  H   0.993        C  370 0.933
   379  H   0.998        C  373 0.974
   380  H   0.998        C  373 0.964
   381  N   2.996        C  382 1.012    H  492 0.954    H  389 0.947
   382  C   3.982        N  381 1.012    C  385 0.971    H  390 0.958    C  383 0.945
   383  C   3.937        O  384 1.585    N  400 1.327    C  382 0.945
   384  O   1.932        C  383 1.585    N  400 0.191
   385  C   3.993        C  386 0.993    H  392 0.976    C  382 0.971    H  391 0.970
   386  C   3.994        C  388 1.011    C  387 1.006    C  385 0.993    H  393 0.964
   387  C   3.994        C  386 1.006    H  396 0.985    H  395 0.985    H  394 0.985
   388  C   3.995        C  386 1.011    H  398 0.986    H  397 0.985    H  399 0.983
   389  H   0.975        N  381 0.947
   390  H   0.998        C  382 0.958
   391  H   0.997        C  385 0.970
   392  H   0.999        C  385 0.976
   393  H   0.999        C  386 0.964
   394  H   0.997        C  387 0.985
   395  H   0.998        C  387 0.985
   396  H   0.998        C  387 0.985
   397  H   0.998        C  388 0.985
   398  H   0.999        C  388 0.986
   399  H   0.999        C  388 0.983
   400  N   3.471        C  383 1.327    C  401 0.980    H  411 0.880    O  384 0.191
   401  C   3.965        N  400 0.980    C  404 0.979    H  412 0.950    C  402 0.937
   402  C   3.942        O  403 1.599    N  424 1.312    C  401 0.937
   403  O   1.953        C  402 1.599    N  424 0.190
   404  C   3.983        C  405 1.005    C  401 0.979    H  413 0.970    H  414 0.963
   405  C   3.991        C  404 1.005    C  406 1.005    H  416 0.971    H  415 0.970
   406  C   3.959        C  405 1.005    N  407 0.990    H  418 0.958    H  417 0.957
   407  N   3.472        C  408 1.317    C  406 0.990    H  419 0.910    N  410 0.106
   408  C   3.977        N  410 1.330    N  407 1.317    N  409 1.296
   409  N   3.364        C  408 1.296    H  421 0.919    H  420 0.916
   410  N   3.397        C  408 1.330    H  423 0.920    H  422 0.873    N  407 0.106
   411  H   0.943        N  400 0.880
   412  H   0.996        C  401 0.950
   413  H   0.994        C  404 0.970
   414  H   0.994        C  404 0.963
   415  H   0.997        C  405 0.970
   416  H   0.996        C  405 0.971
   417  H   0.992        C  406 0.957
   418  H   0.991        C  406 0.958
   419  H   0.946        N  407 0.910
   420  H   0.948        N  409 0.916
   421  H   0.943        N  409 0.919
   422  H   0.936        N  410 0.873
   423  H   0.943        N  410 0.920
   424  N   3.469        C  402 1.312    C  425 0.989    H  430 0.889    O  403 0.190
   425  C   3.971        N  424 0.989    C  428 0.959    H  431 0.948    C  426 0.940
   426  C   3.945        O  427 1.621    N  435 1.302    C  425 0.940
   427  O   1.942        C  426 1.621    N  435 0.195
   428  C   3.950        O  429 1.015    H  432 0.968    H  433 0.962    C  425 0.959
   429  O   1.976        C  428 1.015    H  434 0.890
   430  H   0.943        N  424 0.889
   431  H   0.993        C  425 0.948
   432  H   0.997        C  428 0.968
   433  H   0.990        C  428 0.962
   434  H   0.907        O  429 0.890
   435  N   3.476        C  426 1.302    C  436 0.976    H  443 0.915    O  427 0.195
   436  C   3.967        C  439 0.985    N  435 0.976    H  444 0.954    C  437 0.937
   437  C   3.948        O  438 1.616    N  447 1.309    C  436 0.937
   438  O   1.924        C  437 1.616    N  447 0.193
   439  C   3.975        C  436 0.985    H  445 0.971    H  446 0.965    C  440 0.890
   440  C   3.939        O  441 1.512    O  442 1.511    C  439 0.890
   441  O   1.811        C  440 1.512    O  442 0.221
   442  O   1.813        C  440 1.511    O  441 0.221
   443  H   0.961        N  435 0.915
   444  H   0.997        C  436 0.954
   445  H   0.998        C  439 0.971
   446  H   0.999        C  439 0.965
   447  N   3.470        C  437 1.309    C  448 0.974    H  455 0.906    O  438 0.193
   448  C   3.962        C  451 0.982    N  447 0.974    H  456 0.949    C  449 0.933
   449  C   3.946        O  450 1.620    N  466 1.317    C  448 0.933
   450  O   1.937        C  449 1.620    N  466 0.196
   451  C   3.984        C  452 0.991    C  448 0.982    H  458 0.970    H  457 0.967
   452  C   3.993        C  454 1.010    C  453 1.007    C  451 0.991    H  459 0.964
   453  C   3.994        C  452 1.007    H  460 0.983    H  461 0.983    H  462 0.982
   454  C   3.994        C  452 1.010    H  464 0.985    H  463 0.985    H  465 0.982
   455  H   0.954        N  447 0.906
   456  H   0.996        C  448 0.949
   457  H   0.998        C  451 0.967
   458  H   0.997        C  451 0.970
   459  H   0.999        C  452 0.964
   460  H   0.996        C  453 0.983
   461  H   0.999        C  453 0.983
   462  H   0.998        C  453 0.982
   463  H   0.997        C  454 0.985
   464  H   0.997        C  454 0.985
   465  H   0.999        C  454 0.982
   466  N   3.472        C  449 1.317    C  467 0.970    H  471 0.896    O  450 0.196
   467  C   3.963        C  470 0.985    N  466 0.970    C  468 0.970    H  472 0.953
   468  C   3.898        O  469 1.900    C  467 0.970    H  493 0.956
   469  O   2.037        C  468 1.900
   470  C   3.980        C  467 0.985    H  473 0.980    H  475 0.980    H  474 0.978
   471  H   0.950        N  466 0.896
   472  H   0.995        C  467 0.953
   473  H   0.992        C  470 0.980
   474  H   0.994        C  470 0.978
   475  H   0.995        C  470 0.980
   476  H   0.974        N    1 0.961
   477  H   0.996        C  225 0.957
   478  H   0.970        N  247 0.958
   479  H   0.994        C  249 0.954
   480  H   0.964        N  266 0.953
   481  H   0.993        C  268 0.954
   482  H   0.966        N  282 0.955
   483  H   0.995        C  284 0.954
   484  H   0.966        N  296 0.951
   485  H   0.994        C  298 0.953
   486  H   0.966        N  315 0.946
   487  H   0.995        C  317 0.955
   488  H   0.966        N  334 0.955
   489  H   0.994        C  336 0.953
   490  H   0.967        N  353 0.957
   491  H   0.995        C  371 0.952
   492  H   0.968        N  381 0.954
   493  H   0.996        C  468 0.956
 
molecular dipole:
                 x           y           z       tot (Debye)
 q only:     -517.962    -232.565    -442.695
   full:     -520.266    -233.224    -440.134    1830.779
molecular quadrupole (traceless):
                xx          xy          yy          xz          yz          zz
 q only:   -71831.042  -90212.940   89041.399 -172331.139  -77808.111  -17210.357
  q+dip:   -73557.372  -90918.318   88986.753 -172004.132  -77448.127  -15429.381
   full:   -73556.059  -90919.091   88991.290 -171999.916  -77450.053  -15435.231


           -------------------------------------------------
          | TOTAL ENERGY             -757.988455166723 Eh   |
          | GRADIENT NORM               0.668308974124 Eh/α |
          | HOMO-LUMO GAP               1.657699547293 eV   |
           -------------------------------------------------

------------------------------------------------------------------------
 * finished run on 2019/05/31 at 05:35:02.799     
------------------------------------------------------------------------
 total:
 * wall-time:     0 d,  0 h,  0 min, 10.881 sec
 *  cpu-time:     0 d,  0 h,  0 min, 20.766 sec
 * ratio c/w:     1.909 speedup
 SCF:
 * wall-time:     0 d,  0 h,  0 min, 10.081 sec
 *  cpu-time:     0 d,  0 h,  0 min, 19.695 sec
 * ratio c/w:     1.954 speedup

