      -----------------------------------------------------------      
     |                   =====================                   |     
     |                           x T B                           |     
     |                   =====================                   |     
     |                         S. Grimme                         |     
     |          Mulliken Center for Theoretical Chemistry        |     
     |                    University of Bonn                     |     
     |                Version 6.1 RC1 (SAW190329)                |     
      -----------------------------------------------------------      

   This program is distributed in the hope that it will be useful,
   but WITHOUT ANY WARRANTY; without even the implied warranty of
   MERCHANTABILITY or FITNESS FOR A PARTICULAR PURPOSE.
   
   FOR NON-COMMERCIAL, ACADEMIA USE ONLY.
   
   Cite this work as:
   S. Grimme, C. Bannwarth, P. Shushkov, J. Comput. Theory Chem., 2017,
   13, 1989-2009. DOI: 10.1021/acs.jctc.7b00118
   C. Bannwarth, S. Ehlert and S. Grimme., J. Comput. Theory Chem., 2019,
   just accepted. DOI: 10.1021/acs.jctc.8b01176
   
   for sTDA-xTB:
   S. Grimme and C. Bannwarth, J. Chem. Phys., 2016, 145, 054103.
   DOI: 10.1063/1.4959605
   
   in the mass-spec context:
   V. Asgeirsson, C. Bauer and S. Grimme, Chem. Sci., 2017, 8, 4879.
   DOI: 10.1039/c7sc00601b
   
   for metadynamics refer to:
   S. Grimme, ChemRxiv, Preprint. DOI: 10.26434/chemrxiv.7660532.v1
   
   with help from (in alphabetical order)
   C. Bannwarth, F. Bohle, G. Brandenburg, E. Caldeweyher, M. Checinski,
   S. Dohm, S. Ehlert, S. Ehrlich, F. März, H. Neugebauer, J. Pisarek,
   P. Pracht, P. Shushkov, and S. Spicher.
   
 * started run on 2019/05/31 at 05:35:00.982     

           -------------------------------------------------
          |                Calculation Setup                |
           -------------------------------------------------

          program call               : /home/lum/install/xtb/xtb-190329/bin/xtb xtb_tmp.xyz --chrg 0 --grad --gfn 2 --etemp 500 --acc 0.1 --gbsa h2o --parallel 2
          hostname                   : cpu02
          coordinate file            : xtb_tmp.xyz
          omp threads                :                     2
          number of atoms            :                   526
          number of electrons        :                  1404
          charge                     :                     0
          spin                       :                   0.0
          first test random number   :      0.90280739252391


molecular fragmentation (1/2 indicates fragments):
111111111111111111122222222222222222222222222222222222222222222222222222
222222222222222222222222222222222222222222222222222222222222222222222222
222222222222222222222222222222222222222222222222222222222222222222222222
222222222222222222222222222222222222222222222222222222222222222222222222
222222222222222222222222222222222222222222222222222222222222222222222222
222222222222222222222222222222222222222222222222222222222222222222222222
222222222222222222222222222222222222222222222222222222222222222222222222
2222222211222222222222
# atoms in fragment 1/2:    21   505
 fragment masses (1/2) :      115.17     3401.00
CMA distance (Bohr)    :  15.234
constraining FC (au)   :  0.0500

########################################################################
# WARNING! Please study the warnings concerning your input carefully
#  - XTBPATH is not set, using XTBHOME instead
#  - Process number higher than OMP_NUM_THREADS, I hope you know what you are doing.
########################################################################

           ------------------------------------------------- 
          |                 G F N 2 - x T B                 |
          | Geometry, Frequencies, Noncovalent interactions |
          |            JCTC 2018 parametrisation            |
           ------------------------------------------------- 
 
             k(s)              :                1.8500
             k(p)              :                2.2300
             k(d)              :                2.2300
             k(f)              :                2.0000
             kEN (H0ij)        :               -2.0000
             D4 a1             :                0.5200
             D4 a2             :                5.0000
             D4 s6             :                1.0000
             D4 s8             :                2.7000
             D4 s9             :                5.0000
             alphaj            :                2.0000

  Z AO/shell   Hii/eV     exponent
  1     Wed Apr 25 08:07:45 CEST 2018   EN: 2.200 GM2: 0.406  GM3: 0.0800  RAES: 1.40
     1s    -10.707211    1.230000
  6     Wed Apr 25 08:07:45 CEST 2018   EN: 2.550 GM2: 0.538  GM3: 0.1500  RAES: 3.00
     2s    -13.970922    2.096432
     2p    -10.063292    1.800000
  7     Wed Apr 25 08:07:45 CEST 2018   EN: 3.040 GM2: 0.461  GM3:-0.0640  RAES: 1.90
     2s    -16.686243    2.339881
     2p    -12.523956    2.014332
  8     Wed Apr 25 08:07:45 CEST 2018   EN: 3.440 GM2: 0.452  GM3:-0.0517  RAES: 1.80
     2s    -20.229985    2.439742
     2p    -15.503117    2.137023

 Solvent             : h2o
 Using internal parameter file: .param_gbsa2_h2o
 Gsolv ref. state (COSMO-RS): gsolv [1 M gas/solution]
 temperature (mdtemp)       :    298.150000000000     
 dielectric constant        :    80.2000000000000     
 rho                        :    1.00000000000000     
 mass                       :    18.0000000000000     
 surface tension            :    15.5689454083859     
 probe radius               :   0.975313790000000     
 vdW radii scaling          :    1.00000000000000     
 Gshift (Eh)                :   1.857443126794793E-003
 c1                         :    1.55243817000000     
 soset                      :   0.130326360000000     
 HB correction              :  T
 Number of grid points      :          230

            Z     q(EN)     CN     RAES       Cart. coordinates
     1  N   5.0   -0.72    3.00    1.93   274.51535   130.60239   216.97680
     2  C   4.0    0.06    3.98    3.59   274.11440   129.46938   214.52352
     3  C   4.0    0.07    3.00    3.02   273.57649   131.48427   212.53764
     4  O   6.0   -0.50    1.00    1.80   274.36633   131.21780   210.36779
     5  C   4.0   -0.14    3.99    3.60   271.93471   127.57459   214.55431
     6  C   4.0   -0.11    3.98    3.58   272.51482   125.12314   215.98917
     7  C   4.0   -0.23    3.98    3.59   270.09776   123.55438   216.19408
     8  C   4.0   -0.24    3.98    3.59   274.56957   123.57539   214.68606
     9  H   1.0    0.25    1.00    1.43   273.37717   130.05323   218.42023
    10  H   1.0    0.10    0.99    1.43   275.86343   128.53361   213.91658
    11  H   1.0    0.11    0.99    1.43   270.30632   128.51392   215.40188
    12  H   1.0    0.11    0.99    1.43   271.46121   127.11203   212.59976
    13  H   1.0    0.11    0.99    1.43   273.14401   125.61083   217.89664
    14  H   1.0    0.10    0.99    1.43   270.45065   121.81461   217.22721
    15  H   1.0    0.10    0.99    1.43   268.62814   124.59560   217.18645
    16  H   1.0    0.11    0.99    1.43   269.39200   123.05655   214.32782
    17  H   1.0    0.09    0.99    1.43   274.80547   121.78249   215.65719
    18  H   1.0    0.09    0.99    1.43   274.04233   123.19467   212.73652
    19  H   1.0    0.09    0.99    1.43   276.37558   124.55016   214.70273
    20  N   5.0   -0.70    3.00    1.93   279.68431   134.12343   210.70218
    21  C   4.0    0.07    3.99    3.60   280.91640   132.29362   209.07262
    22  C   4.0    0.28    3.01    3.02   279.78105   132.48956   206.41235
    23  O   6.0   -0.48    1.00    1.80   281.11291   132.63830   204.52881
    24  C   4.0   -0.09    3.98    3.59   280.69815   129.63041   210.20870
    25  C   4.0   -0.16    3.98    3.59   282.41173   129.49711   212.54463
    26  C   4.0   -0.23    3.98    3.59   281.37371   127.63204   208.24122
    27  C   4.0   -0.23    3.98    3.58   282.08474   127.10520   214.10889
    28  H   1.0    0.27    1.00    1.43   278.80198   133.50954   212.29491
    29  H   1.0    0.10    0.99    1.43   282.92458   132.79426   208.88595
    30  H   1.0    0.13    0.99    1.43   278.72896   129.36279   210.78016
    31  H   1.0    0.10    0.99    1.43   284.37845   129.64651   211.93854
    32  H   1.0    0.11    0.99    1.43   282.00187   131.11779   213.75357
    33  H   1.0    0.09    0.99    1.43   281.20609   125.75508   209.04951
    34  H   1.0    0.11    0.99    1.43   280.10564   127.75613   206.63114
    35  H   1.0    0.10    0.99    1.43   283.29441   127.90075   207.56880
    36  H   1.0    0.12    0.99    1.43   283.40430   127.13684   215.68161
    37  H   1.0    0.09    0.99    1.43   280.17736   127.00001   214.86490
    38  H   1.0    0.10    0.99    1.43   282.45589   125.41604   213.00519
    39  N   5.0   -0.49    3.01    1.93   277.26592   132.49155   206.36918
    40  C   4.0    0.07    3.99    3.61   275.81541   132.66707   204.05561
    41  C   4.0    0.32    3.01    3.02   276.78783   134.90385   202.49570
    42  O   6.0   -0.44    1.00    1.80   277.44525   134.62674   200.30232
    43  C   4.0   -0.10    3.99    3.60   273.00228   132.88264   204.70158
    44  C   4.0    0.26    3.00    3.02   271.31951   132.50759   202.39350
    45  O   6.0   -0.39    1.00    1.80   271.68434   133.58819   200.40124
    46  N   5.0   -0.65    3.00    1.93   269.28901   131.00936   202.78736
    47  H   1.0    0.31    1.00    1.43   276.27493   132.24474   207.99709
    48  H   1.0    0.11    0.99    1.43   276.14407   130.96586   202.90689
    49  H   1.0    0.12    0.99    1.43   272.55955   131.49420   206.15704
    50  H   1.0    0.12    0.99    1.43   272.65303   134.77432   205.45234
    51  H   1.0    0.30    1.00    1.43   268.25599   130.50406   201.26290
    52  H   1.0    0.28    1.00    1.43   269.19970   129.77425   204.23570
    53  N   5.0   -0.47    3.01    1.93   276.95622   137.08463   203.74855
    54  C   4.0    0.08    4.00    3.61   277.84569   139.35913   202.50669
    55  C   4.0    0.29    3.02    3.02   280.41606   138.86968   201.28106
    56  O   6.0   -0.44    1.00    1.80   280.86062   139.49841   199.09714
    57  C   4.0   -0.10    3.99    3.60   278.07703   141.59181   204.34378
    58  C   4.0    0.28    3.00    3.02   275.65993   143.15539   204.41197
    59  O   6.0   -0.36    1.00    1.80   275.49573   145.19891   203.35193
    60  N   5.0   -0.63    3.00    1.93   273.74309   142.12032   205.69169
    61  H   1.0    0.24    1.00    1.43   276.35969   137.20034   205.56255
    62  H   1.0    0.18    0.99    1.43   276.51793   139.84202   200.98115
    63  H   1.0    0.11    0.99    1.43   278.55074   140.91101   206.23044
    64  H   1.0    0.13    0.99    1.43   279.58425   142.84263   203.70061
    65  H   1.0    0.29    1.00    1.43   272.08252   143.04692   205.74111
    66  H   1.0    0.26    1.00    1.43   273.94073   140.48737   206.65473
    67  N   5.0   -0.46    3.01    1.93   282.14695   137.76598   202.75105
    68  C   4.0    0.08    4.00    3.62   284.63638   137.24419   201.72342
    69  C   4.0    0.30    3.01    3.02   284.34449   135.73329   199.25646
    70  O   6.0   -0.47    1.00    1.80   285.55978   136.29016   197.36137
    71  C   4.0   -0.11    3.99    3.60   286.26662   135.75668   203.60063
    72  C   4.0    0.26    3.00    3.02   287.52286   137.47465   205.53601
    73  O   6.0   -0.40    1.00    1.80   289.38379   138.73860   205.01021
    74  N   5.0   -0.66    3.00    1.93   286.49875   137.43806   207.85040
    75  H   1.0    0.25    1.00    1.43   281.81601   137.47873   204.61348
    76  H   1.0    0.14    0.99    1.43   285.57894   139.02768   201.22853
    77  H   1.0    0.13    0.99    1.43   285.10300   134.32980   204.51993
    78  H   1.0    0.11    0.99    1.43   287.79304   134.83156   202.56620
    79  H   1.0    0.28    1.00    1.43   287.25386   138.55031   209.20301
    80  H   1.0    0.25    1.00    1.43   284.72178   136.80731   208.14875
    81  N   5.0   -0.48    3.01    1.93   282.78760   133.76777   199.35931
    82  C   4.0    0.07    4.00    3.61   282.45991   132.11078   197.20391
    83  C   4.0    0.28    3.01    3.02   281.21350   133.43556   194.94789
    84  O   6.0   -0.48    1.00    1.80   281.77056   132.84549   192.77104
    85  C   4.0   -0.14    3.99    3.60   280.95658   129.77151   197.99122
    86  C   4.0   -0.10    3.98    3.58   282.36149   128.11873   199.91984
    87  C   4.0   -0.24    3.98    3.59   280.57307   126.12538   200.99782
    88  C   4.0   -0.24    3.98    3.59   284.64469   126.82613   198.72540
    89  H   1.0    0.30    1.00    1.43   281.80748   133.37484   200.96349
    90  H   1.0    0.11    0.99    1.43   284.33765   131.55304   196.52530
    91  H   1.0    0.13    0.99    1.43   279.17371   130.42064   198.79811
    92  H   1.0    0.10    0.99    1.43   280.54570   128.66108   196.30417
    93  H   1.0    0.13    0.99    1.43   282.99342   129.31757   201.47948
    94  H   1.0    0.09    0.99    1.43   281.50099   125.07037   202.49516
    95  H   1.0    0.10    0.99    1.43   278.88973   127.00835   201.77555
    96  H   1.0    0.10    0.99    1.43   279.99191   124.80131   199.53754
    97  H   1.0    0.09    0.99    1.43   285.54868   125.58981   200.09151
    98  H   1.0    0.09    0.99    1.43   284.04973   125.70187   197.11309
    99  H   1.0    0.09    0.99    1.43   286.03813   128.19281   198.09152
   100  N   5.0   -0.47    3.01    1.93   279.50647   135.20426   195.48076
   101  C   4.0    0.07    4.00    3.61   278.34619   136.71363   193.51436
   102  C   4.0    0.30    3.01    3.02   280.37482   138.23578   192.10075
   103  O   6.0   -0.44    1.00    1.80   280.39196   138.42205   189.79143
   104  C   4.0   -0.14    3.99    3.60   276.38124   138.50520   194.63974
   105  C   4.0   -0.11    3.98    3.59   274.06069   137.10116   195.65427
   106  C   4.0    0.29    3.00    3.02   272.37205   138.93191   197.07347
   107  O   6.0   -0.37    1.00    1.80   273.02839   139.95974   199.03633
   108  N   5.0   -0.64    3.00    1.93   270.11556   139.37895   196.01296
   109  H   1.0    0.31    1.00    1.43   278.99566   135.54203   197.29774
   110  H   1.0    0.12    0.99    1.43   277.46435   135.45796   192.11828
   111  H   1.0    0.16    0.99    1.43   277.26411   139.57048   196.16964
   112  H   1.0    0.12    0.99    1.43   275.80588   139.84879   193.18361
   113  H   1.0    0.10    0.99    1.43   273.02483   136.21161   194.11697
   114  H   1.0    0.16    0.99    1.43   274.64233   135.65236   197.00087
   115  H   1.0    0.26    1.00    1.43   269.57947   138.53595   194.39894
   116  H   1.0    0.29    1.00    1.43   268.92204   140.60290   196.85139
   117  N   5.0   -0.47    3.01    1.93   282.09820   139.31230   193.58540
   118  C   4.0    0.08    4.00    3.61   284.20885   140.70595   192.52953
   119  C   4.0    0.29    3.02    3.02   285.76099   138.92166   190.86011
   120  O   6.0   -0.41    1.00    1.80   286.57144   139.53812   188.77700
   121  C   4.0   -0.15    3.99    3.60   285.82478   141.75544   194.68260
   122  C   4.0   -0.15    3.98    3.59   287.73915   143.71677   193.77935
   123  C   4.0   -0.03    3.99    3.60   286.46943   146.28642   193.43203
   124  N   5.0   -0.47    3.02    1.93   288.30039   148.15987   192.64317
   125  C   4.0    0.38    3.00    3.02   287.98039   149.95409   190.91319
   126  N   5.0   -0.61    3.01    1.93   285.89259   150.14964   189.55190
   127  N   5.0   -0.64    3.02    1.93   289.83588   151.65422   190.61635
   128  H   1.0    0.30    1.00    1.43   281.93845   139.22214   195.49079
   129  H   1.0    0.15    0.99    1.43   283.50664   142.23207   191.31031
   130  H   1.0    0.13    0.99    1.43   284.56572   142.61142   196.07563
   131  H   1.0    0.14    0.99    1.43   286.77295   140.16645   195.58905
   132  H   1.0    0.11    0.99    1.43   289.25183   143.89662   195.16753
   133  H   1.0    0.14    0.99    1.43   288.56029   143.10537   191.99066
   134  H   1.0    0.15    0.99    1.43   284.97763   146.13981   192.02696
   135  H   1.0    0.12    0.99    1.43   285.62662   146.88052   195.22723
   136  H   1.0    0.24    1.00    1.43   289.92082   148.16617   193.65854
   137  H   1.0    0.33    1.00    1.43   284.61772   148.66810   189.33973
   138  H   1.0    0.28    1.00    1.43   285.81324   151.45575   188.17120
   139  H   1.0    0.27    1.00    1.43   291.36599   151.63163   191.74373
   140  H   1.0    0.27    1.00    1.43   289.64987   153.07383   189.36712
   141  N   5.0   -0.47    3.01    1.93   286.15375   136.63194   191.84317
   142  C   4.0    0.09    4.00    3.62   287.57414   134.76400   190.43409
   143  C   4.0    0.29    3.01    3.02   286.34807   134.38405   187.84300
   144  O   6.0   -0.39    1.00    1.80   287.64653   134.35373   185.91838
   145  C   4.0   -0.10    3.98    3.58   287.86918   132.28366   191.90537
   146  C   4.0   -0.23    3.99    3.59   289.13049   130.29651   190.23959
   147  C   4.0   -0.22    3.98    3.59   289.46226   132.71380   194.27674
   148  H   1.0    0.29    1.00    1.43   285.63964   136.25466   193.65059
   149  H   1.0    0.13    0.99    1.43   289.46241   135.53067   190.02913
   150  H   1.0    0.13    0.99    1.43   285.97623   131.64294   192.42899
   151  H   1.0    0.09    0.99    1.43   289.37199   128.55395   191.29384
   152  H   1.0    0.12    0.99    1.43   288.00485   129.91659   188.57021
   153  H   1.0    0.11    0.99    1.43   290.97976   130.95192   189.62905
   154  H   1.0    0.09    0.99    1.43   289.68161   130.94898   195.30333
   155  H   1.0    0.11    0.99    1.43   291.33557   133.38817   193.76560
   156  H   1.0    0.14    0.99    1.43   288.60622   134.09321   195.53157
   157  N   5.0   -0.48    3.00    1.93   283.84646   134.07493   187.79127
   158  C   4.0    0.07    4.00    3.62   282.57314   133.82355   185.37735
   159  C   4.0    0.30    3.01    3.02   283.62203   135.74217   183.46654
   160  O   6.0   -0.37    1.00    1.80   284.18126   135.11949   181.31007
   161  C   4.0   -0.15    3.99    3.60   279.72798   134.26837   185.61093
   162  C   4.0   -0.15    3.98    3.58   278.33544   132.13996   186.97998
   163  C   4.0   -0.04    3.99    3.60   275.51378   132.79380   187.14564
   164  N   5.0   -0.48    3.01    1.93   274.02277   130.80242   188.29350
   165  C   4.0    0.38    3.01    3.02   273.29381   128.70181   187.09524
   166  N   5.0   -0.63    3.02    1.93   273.70692   128.35866   184.65426
   167  N   5.0   -0.64    3.02    1.93   272.01678   126.93198   188.34666
   168  H   1.0    0.30    1.00    1.43   282.82542   133.96523   189.41130
   169  H   1.0    0.12    0.99    1.43   282.94937   131.94020   184.58190
   170  H   1.0    0.15    0.99    1.43   279.43611   136.04783   186.60551
   171  H   1.0    0.11    0.99    1.43   278.97441   134.46624   183.70143
   172  H   1.0    0.11    0.99    1.43   278.58676   130.37199   185.95077
   173  H   1.0    0.13    0.99    1.43   279.10902   131.88564   188.87398
   174  H   1.0    0.11    0.99    1.43   275.26422   134.49937   188.27352
   175  H   1.0    0.12    0.99    1.43   274.77170   133.19487   185.26266
   176  H   1.0    0.23    1.00    1.43   273.85965   130.82521   190.19439
   177  H   1.0    0.26    1.00    1.43   274.66428   129.62016   183.60857
   178  H   1.0    0.33    1.00    1.43   273.23822   126.63506   183.91182
   179  H   1.0    0.26    1.00    1.43   271.63150   127.06855   190.20236
   180  H   1.0    0.31    1.00    1.43   271.57546   125.32740   187.39788
   181  N   5.0   -0.47    3.01    1.93   283.61420   138.13891   184.26510
   182  C   4.0    0.07    3.99    3.60   284.33345   140.20827   182.62845
   183  C   4.0    0.11    3.00    3.02   287.00039   139.85209   181.58053
   184  O   6.0   -0.37    1.00    1.80   287.53846   140.31107   179.36760
   185  C   4.0   -0.13    3.99    3.61   284.32583   142.72046   184.06777
   186  C   4.0   -0.10    3.98    3.58   281.73541   143.54875   185.03019
   187  C   4.0    0.32    3.00    3.02   282.16454   146.15918   186.29013
   188  O   6.0   -0.38    1.00    1.80   281.88376   148.08767   184.98751
   189  O   6.0   -0.46    1.00    1.80   282.89100   146.11211   188.54970
   190  H   1.0    0.29    1.00    1.43   283.17043   138.56871   186.07404
   191  H   1.0    0.14    0.99    1.43   283.03335   140.30197   181.01366
   192  H   1.0    0.16    0.99    1.43   285.59806   142.56329   185.68506
   193  H   1.0    0.14    0.99    1.43   285.05200   144.18957   182.80806
   194  H   1.0    0.12    0.99    1.43   280.39501   143.74606   183.47834
   195  H   1.0    0.14    0.99    1.43   281.01303   142.23049   186.43886
   196  N   5.0   -0.71    3.00    1.93   292.63807   131.84584   210.59942
   197  C   4.0    0.07    3.98    3.59   290.80025   129.88438   211.11943
   198  C   4.0    0.08    3.00    3.02   291.74990   128.25651   213.30683
   199  O   6.0   -0.41    1.00    1.80   290.39040   127.71384   215.11027
   200  C   4.0   -0.09    3.98    3.59   290.27293   128.27055   208.76236
   201  C   4.0   -0.16    3.98    3.59   288.80830   129.85124   206.82285
   202  C   4.0   -0.22    3.98    3.59   288.85498   125.87022   209.51231
   203  C   4.0   -0.24    3.98    3.58   288.42141   128.49664   204.31068
   204  H   1.0    0.26    1.00    1.43   293.26320   132.06975   208.80177
   205  H   1.0    0.11    0.99    1.43   289.03340   130.76485   211.77906
   206  H   1.0    0.11    0.99    1.43   292.10144   127.72675   207.95924
   207  H   1.0    0.10    0.99    1.43   286.97674   130.36730   207.62199
   208  H   1.0    0.11    0.99    1.43   289.85560   131.59408   206.48273
   209  H   1.0    0.09    0.99    1.43   288.37637   124.76605   207.85166
   210  H   1.0    0.12    0.99    1.43   290.03386   124.69576   210.72406
   211  H   1.0    0.11    0.99    1.43   287.13639   126.33074   210.54027
   212  H   1.0    0.10    0.99    1.43   287.64644   129.80083   202.92812
   213  H   1.0    0.10    0.99    1.43   290.21433   127.77555   203.61195
   214  H   1.0    0.09    0.99    1.43   287.12583   126.91749   204.50494
   215  N   5.0   -0.70    3.00    1.93   283.20860   114.91011   216.61841
   216  C   4.0    0.07    3.98    3.59   283.22783   116.33615   214.27838
   217  C   4.0    0.07    3.00    3.02   285.70058   117.82309   214.17262
   218  O   6.0   -0.40    1.00    1.80   286.12251   119.55752   215.64528
   219  C   4.0   -0.08    3.98    3.59   280.97490   118.16475   214.10334
   220  C   4.0   -0.17    3.98    3.58   278.45595   116.75733   214.37145
   221  C   4.0   -0.24    3.98    3.59   281.13975   119.65678   211.63771
   222  C   4.0   -0.24    3.98    3.58   278.03512   114.66060   212.43706
   223  H   1.0    0.28    1.00    1.43   283.30946   115.89701   218.25751
   224  H   1.0    0.11    0.99    1.43   283.15293   114.99639   212.71490
   225  H   1.0    0.12    0.99    1.43   281.13983   119.49755   215.68020
   226  H   1.0    0.10    0.99    1.43   278.34789   115.95650   216.27184
   227  H   1.0    0.09    0.99    1.43   276.93803   118.14105   214.19107
   228  H   1.0    0.08    0.99    1.43   279.48907   120.86265   211.43716
   229  H   1.0    0.10    0.99    1.43   282.82011   120.84050   211.62893
   230  H   1.0    0.09    0.99    1.43   281.24614   118.39263   210.02395
   231  H   1.0    0.09    0.99    1.43   276.12594   113.93164   212.61799
   232  H   1.0    0.10    0.99    1.43   278.26793   115.35099   210.51820
   233  H   1.0    0.10    0.99    1.43   279.33475   113.09770   212.72440
   234  N   5.0   -0.71    3.00    1.93   290.62693   110.63729   207.67120
   235  C   4.0    0.10    3.98    3.59   288.31341   109.19671   207.49777
   236  C   4.0    0.29    3.01    3.02   286.77116   109.96794   205.17128
   237  O   6.0   -0.39    1.00    1.80   285.55948   108.40169   203.97424
   238  C   4.0    0.03    3.98    3.58   286.66606   109.26405   209.87866
   239  O   6.0   -0.47    1.98    1.82   285.88414   111.75503   210.44961
   240  C   4.0   -0.22    3.98    3.59   288.03254   108.09503   212.13140
   241  H   1.0    0.27    1.00    1.43   290.96980   111.77849   209.16858
   242  H   1.0    0.11    0.99    1.43   288.84419   107.21290   207.17610
   243  H   1.0    0.11    0.99    1.43   284.98777   108.12219   209.40791
   244  H   1.0    0.24    0.99    1.43   284.72229   111.56563   211.88580
   245  H   1.0    0.10    0.99    1.43   286.71877   107.91297   213.69843
   246  H   1.0    0.10    0.99    1.43   288.77197   106.24867   211.63191
   247  H   1.0    0.12    0.99    1.43   289.58518   109.31518   212.69374
   248  N   5.0   -0.47    3.01    1.93   286.82909   112.42111   204.59575
   249  C   4.0    0.07    3.99    3.61   285.51325   113.39147   202.40180
   250  C   4.0    0.07    3.00    3.02   286.64684   112.31458   199.96570
   251  O   6.0   -0.41    1.00    1.80   285.32758   111.68721   198.17724
   252  C   4.0   -0.15    3.99    3.60   285.65496   116.27434   202.34900
   253  C   4.0   -0.10    3.98    3.58   284.19274   117.54601   204.50708
   254  C   4.0   -0.25    3.98    3.59   284.85110   120.35723   204.57674
   255  C   4.0   -0.22    3.98    3.59   281.34519   117.19714   204.23497
   256  H   1.0    0.25    1.00    1.43   287.78770   113.64797   205.70344
   257  H   1.0    0.17    0.99    1.43   283.54404   112.74249   202.46112
   258  H   1.0    0.10    0.99    1.43   287.64921   116.80676   202.47289
   259  H   1.0    0.10    0.99    1.43   284.92179   116.92259   200.53441
   260  H   1.0    0.12    0.99    1.43   284.80815   116.68668   206.28527
   261  H   1.0    0.09    0.99    1.43   283.81640   121.29439   206.08324
   262  H   1.0    0.09    0.99    1.43   286.86477   120.61170   204.91707
   263  H   1.0    0.09    0.99    1.43   284.36721   121.24094   202.78573
   264  H   1.0    0.09    0.99    1.43   280.37037   118.10870   205.79445
   265  H   1.0    0.11    0.99    1.43   280.67870   118.03191   202.48180
   266  H   1.0    0.14    0.99    1.43   280.83433   115.21071   204.22944
   267  N   5.0   -0.72    3.00    1.93   292.29533   115.40287   197.25070
   268  C   4.0    0.06    3.98    3.59   293.28557   117.52994   195.86807
   269  C   4.0    0.06    3.00    3.02   295.87641   118.42434   196.76577
   270  O   6.0   -0.42    1.00    1.80   296.94274   120.19157   195.72211
   271  C   4.0   -0.14    3.99    3.60   291.44615   119.76719   195.93421
   272  C   4.0   -0.11    3.98    3.58   288.87727   119.19838   194.72342
   273  C   4.0   -0.24    3.99    3.60   287.13606   121.45335   195.16980
   274  C   4.0   -0.23    3.98    3.59   289.11487   118.64731   191.90210
   275  H   1.0    0.25    1.00    1.43   291.93346   115.61328   199.11321
   276  H   1.0    0.12    0.99    1.43   293.53557   116.87907   193.91565
   277  H   1.0    0.10    0.99    1.43   291.17254   120.29846   197.91097
   278  H   1.0    0.12    0.99    1.43   292.35247   121.34561   194.96633
   279  H   1.0    0.11    0.99    1.43   288.07159   117.53168   195.65621
   280  H   1.0    0.09    0.99    1.43   285.28288   121.08922   194.36917
   281  H   1.0    0.09    0.99    1.43   286.91239   121.78701   197.18286
   282  H   1.0    0.09    0.99    1.43   287.92981   123.13928   194.30756
   283  H   1.0    0.11    0.99    1.43   287.24795   118.36115   191.09506
   284  H   1.0    0.10    0.99    1.43   290.02841   120.21794   190.94514
   285  H   1.0    0.10    0.99    1.43   290.20434   116.93399   191.59216
   286  N   5.0   -0.72    3.00    1.93   282.59992   115.29885   183.77585
   287  C   4.0    0.06    3.99    3.60   283.43358   114.68335   186.31040
   288  C   4.0    0.27    3.01    3.02   282.65230   116.72457   188.20650
   289  O   6.0   -0.46    1.00    1.80   281.86324   116.16158   190.31531
   290  C   4.0   -0.15    3.98    3.59   286.29117   114.26315   186.25148
   291  C   4.0   -0.17    3.98    3.59   286.90671   111.86406   184.75825
   292  C   4.0   -0.16    3.98    3.59   289.66981   111.76736   183.93059
   293  C   4.0   -0.06    3.98    3.59   290.20658   109.25802   182.62299
   294  N   5.0   -0.73    3.98    2.81   292.76511   109.29670   181.46324
   295  H   1.0    0.25    1.00    1.43   283.93799   115.83816   182.51747
   296  H   1.0    0.11    0.99    1.43   282.46460   112.94983   186.91037
   297  H   1.0    0.10    0.99    1.43   287.15257   115.91133   185.36128
   298  H   1.0    0.10    0.99    1.43   286.99684   114.11031   188.17926
   299  H   1.0    0.10    0.99    1.43   286.45944   110.21799   185.91352
   300  H   1.0    0.10    0.99    1.43   285.72611   111.80121   183.07142
   301  H   1.0    0.10    0.99    1.43   290.01141   113.30238   182.59835
   302  H   1.0    0.10    0.99    1.43   290.89448   112.00850   185.56796
   303  H   1.0    0.11    0.99    1.43   290.08695   107.69887   183.96508
   304  H   1.0    0.10    0.99    1.43   288.82158   108.95927   181.12795
   305  H   1.0    0.24    1.00    1.43   293.15497   107.61720   180.57007
   306  H   1.0    0.23    0.99    1.43   292.84730   110.76308   180.12817
   307  H   1.0    0.24    1.00    1.43   294.11037   109.61623   182.82690
   308  N   5.0   -0.49    3.01    1.93   282.93678   119.10048   187.42942
   309  C   4.0    0.07    4.00    3.62   282.13495   121.20897   188.98329
   310  C   4.0    0.29    3.01    3.02   279.29679   120.99019   189.52166
   311  O   6.0   -0.45    1.00    1.80   278.43919   121.22153   191.66470
   312  C   4.0   -0.09    3.98    3.59   282.84475   123.72447   187.71770
   313  C   4.0   -0.17    3.98    3.59   285.73247   123.94369   187.50888
   314  C   4.0   -0.22    3.98    3.59   281.75140   125.93496   189.21669
   315  C   4.0   -0.23    3.98    3.58   286.57178   125.77910   185.45425
   316  H   1.0    0.23    1.00    1.43   283.56893   119.46740   185.65744
   317  H   1.0    0.11    0.99    1.43   283.07929   121.06678   190.82665
   318  H   1.0    0.12    0.99    1.43   282.01778   123.70322   185.82124
   319  H   1.0    0.09    0.99    1.43   286.48590   124.54888   189.32877
   320  H   1.0    0.11    0.99    1.43   286.53186   122.09910   187.06213
   321  H   1.0    0.10    0.99    1.43   282.37298   127.72090   188.42038
   322  H   1.0    0.12    0.99    1.43   279.69796   125.88277   189.19606
   323  H   1.0    0.10    0.99    1.43   282.37873   125.84535   191.17108
   324  H   1.0    0.10    0.99    1.43   288.61628   125.97219   185.48753
   325  H   1.0    0.11    0.99    1.43   286.02359   125.07371   183.60408
   326  H   1.0    0.11    0.99    1.43   285.74165   127.64216   185.69909
   327  N   5.0   -0.48    3.01    1.93   277.85313   120.50091   187.51327
   328  C   4.0    0.08    4.00    3.62   275.16712   120.06242   187.79310
   329  C   4.0    0.29    3.01    3.02   274.69780   118.07118   189.82412
   330  O   6.0   -0.45    1.00    1.80   273.17673   118.42032   191.54091
   331  C   4.0   -0.10    3.98    3.59   273.98018   119.16676   185.32676
   332  C   4.0    0.32    2.99    3.02   273.51731   121.36968   183.42169
   333  O   6.0   -0.38    1.00    1.80   274.02789   120.97528   181.17353
   334  O   6.0   -0.46    1.00    1.80   272.60794   123.34957   184.33623
   335  H   1.0    0.25    1.00    1.43   278.60048   120.38771   185.75359
   336  H   1.0    0.14    0.99    1.43   274.22581   121.80968   188.41093
   337  H   1.0    0.12    0.99    1.43   275.15793   117.73536   184.43275
   338  H   1.0    0.12    0.99    1.43   272.12794   118.34187   185.72708
   339  N   5.0   -0.47    3.01    1.93   275.99892   115.93606   189.52777
   340  C   4.0    0.07    3.99    3.61   275.62699   113.76595   191.16096
   341  C   4.0    0.31    3.01    3.02   276.04676   114.52504   193.92445
   342  O   6.0   -0.46    1.00    1.80   274.57926   113.88179   195.60387
   343  C   4.0   -0.21    3.98    3.59   277.44313   111.67560   190.37738
   344  H   1.0    0.25    1.00    1.43   277.09339   115.68835   187.97125
   345  H   1.0    0.12    0.99    1.43   273.65872   113.11879   191.00791
   346  H   1.0    0.11    0.99    1.43   277.10187   109.98559   191.48735
   347  H   1.0    0.10    0.99    1.43   277.15174   111.24728   188.38892
   348  H   1.0    0.14    0.99    1.43   279.37732   112.30819   190.65532
   349  N   5.0   -0.46    3.01    1.93   278.13434   115.85788   194.34084
   350  C   4.0    0.08    3.99    3.61   278.85143   116.73401   196.83839
   351  C   4.0    0.29    3.02    3.02   276.70010   118.24831   198.03347
   352  O   6.0   -0.47    1.00    1.80   275.95616   117.85773   200.19455
   353  C   4.0   -0.22    3.99    3.60   281.20296   118.37495   196.59542
   354  H   1.0    0.30    1.00    1.43   279.36677   116.21268   192.90850
   355  H   1.0    0.14    0.99    1.43   279.21004   115.10711   198.07723
   356  H   1.0    0.09    0.99    1.43   281.69100   119.18917   198.41439
   357  H   1.0    0.12    0.99    1.43   282.75988   117.21753   195.92168
   358  H   1.0    0.13    0.99    1.43   280.83557   119.88920   195.25612
   359  N   5.0   -0.48    3.01    1.93   275.78132   120.11558   196.60687
   360  C   4.0    0.07    4.00    3.62   273.75074   121.66694   197.58236
   361  C   4.0    0.30    3.01    3.02   271.39843   120.07420   198.09983
   362  O   6.0   -0.44    1.00    1.80   270.19429   120.33431   200.06773
   363  C   4.0   -0.14    3.99    3.59   273.17815   123.89352   195.83416
   364  C   4.0   -0.11    3.98    3.58   274.74463   126.23270   196.53734
   365  C   4.0   -0.23    3.98    3.59   274.71866   128.15935   194.38993
   366  C   4.0   -0.21    3.98    3.59   273.71787   127.43917   198.94826
   367  H   1.0    0.30    1.00    1.43   276.38137   120.37893   194.80616
   368  H   1.0    0.12    0.99    1.43   274.33646   122.36086   199.44711
   369  H   1.0    0.13    0.99    1.43   273.57347   123.30116   193.89810
   370  H   1.0    0.13    0.99    1.43   271.16857   124.34671   195.97472
   371  H   1.0    0.11    0.99    1.43   276.69587   125.63195   196.85044
   372  H   1.0    0.11    0.99    1.43   275.86818   129.78569   194.89859
   373  H   1.0    0.11    0.99    1.43   275.48893   127.31023   192.68439
   374  H   1.0    0.11    0.99    1.43   272.78788   128.79531   194.08026
   375  H   1.0    0.12    0.99    1.43   274.60986   129.26183   199.26382
   376  H   1.0    0.13    0.99    1.43   271.69029   127.73551   198.77877
   377  H   1.0    0.10    0.99    1.43   274.03277   126.24133   200.58707
   378  N   5.0   -0.47    3.01    1.93   270.78320   118.38045   196.34182
   379  C   4.0    0.08    4.00    3.61   268.64158   116.71479   196.72251
   380  C   4.0    0.31    3.01    3.02   268.79597   115.54909   199.37094
   381  O   6.0   -0.44    1.00    1.80   266.95172   115.48608   200.77903
   382  C   4.0   -0.20    3.98    3.59   268.59848   114.65884   194.71145
   383  H   1.0    0.31    1.00    1.43   271.72967   118.27691   194.67560
   384  H   1.0    0.13    0.99    1.43   266.87830   117.81535   196.66704
   385  H   1.0    0.11    0.99    1.43   267.03388   113.37718   195.06235
   386  H   1.0    0.12    0.99    1.43   268.36656   115.51347   192.85813
   387  H   1.0    0.14    0.99    1.43   270.36421   113.61122   194.76432
   388  N   5.0   -0.47    3.01    1.93   271.03938   114.55822   199.96056
   389  C   4.0    0.06    3.99    3.61   271.52482   113.42121   202.41082
   390  C   4.0    0.29    3.01    3.02   270.78796   115.30912   204.48765
   391  O   6.0   -0.44    1.00    1.80   269.17657   114.84248   206.08842
   392  C   4.0   -0.13    3.99    3.60   274.30516   112.69629   202.69592
   393  C   4.0   -0.11    3.98    3.59   275.18723   110.66975   200.83642
   394  C   4.0    0.28    3.00    3.02   278.05879   110.47647   200.87508
   395  O   6.0   -0.43    1.00    1.80   279.37582   111.49880   202.46723
   396  N   5.0   -0.64    3.00    1.93   279.06175   109.14219   198.96392
   397  H   1.0    0.30    1.00    1.43   272.48051   114.64348   198.69939
   398  H   1.0    0.12    0.99    1.43   270.29707   111.76242   202.64106
   399  H   1.0    0.16    0.99    1.43   275.46404   114.37460   202.40467
   400  H   1.0    0.11    0.99    1.43   274.61543   112.04335   204.62625
   401  H   1.0    0.10    0.99    1.43   274.37627   108.83396   201.30961
   402  H   1.0    0.14    0.99    1.43   274.61067   111.16430   198.92064
   403  H   1.0    0.26    1.00    1.43   277.97468   108.24649   197.69200
   404  H   1.0    0.31    1.00    1.43   280.95760   108.96293   198.86643
   405  N   5.0   -0.48    3.01    1.93   272.09226   117.46400   204.45993
   406  C   4.0    0.08    4.00    3.62   271.62326   119.41239   206.32745
   407  C   4.0    0.30    3.01    3.02   268.78851   119.71710   206.77670
   408  O   6.0   -0.48    1.00    1.80   267.86395   119.71615   208.91144
   409  C   4.0   -0.09    3.98    3.59   272.77598   121.94370   205.47818
   410  C   4.0   -0.22    3.98    3.59   271.81765   124.10667   207.13770
   411  C   4.0   -0.24    3.98    3.59   275.65633   121.78045   205.54832
   412  H   1.0    0.29    1.00    1.43   273.27495   117.84913   203.00275
   413  H   1.0    0.11    0.99    1.43   272.45027   118.82200   208.14110
   414  H   1.0    0.14    0.99    1.43   272.14058   122.27174   203.53771
   415  H   1.0    0.10    0.99    1.43   272.95384   125.78612   206.81546
   416  H   1.0    0.14    0.99    1.43   269.85416   124.53444   206.70124
   417  H   1.0    0.10    0.99    1.43   271.93770   123.58184   209.12058
   418  H   1.0    0.09    0.99    1.43   276.48019   123.55408   204.92369
   419  H   1.0    0.09    0.99    1.43   276.29319   121.39151   207.46205
   420  H   1.0    0.12    0.99    1.43   276.32831   120.28386   204.31442
   421  N   5.0   -0.47    3.01    1.93   267.45256   120.18919   204.69969
   422  C   4.0    0.08    4.00    3.62   264.86520   121.02689   204.82895
   423  C   4.0    0.28    3.01    3.02   263.05781   118.97772   205.72146
   424  O   6.0   -0.44    1.00    1.80   261.25241   119.51628   207.08193
   425  C   4.0   -0.09    3.98    3.58   264.07283   122.09510   202.28155
   426  C   4.0    0.31    2.99    3.02   265.34630   124.75045   201.82051
   427  O   6.0   -0.39    1.00    1.80   265.86034   125.29879   199.60055
   428  O   6.0   -0.42    1.00    1.80   265.67369   126.10911   203.70844
   429  H   1.0    0.31    1.00    1.43   268.28519   120.12376   202.97826
   430  H   1.0    0.14    0.99    1.43   264.75080   122.56630   206.22679
   431  H   1.0    0.14    0.99    1.43   264.60421   120.81012   200.76012
   432  H   1.0    0.12    0.99    1.43   262.02499   122.35276   202.23415
   433  N   5.0   -0.49    3.00    1.93   263.54182   116.62963   204.92398
   434  C   4.0    0.10    4.00    3.62   261.91086   114.57296   205.65849
   435  C   4.0    0.29    3.01    3.02   262.09183   113.96860   208.48561
   436  O   6.0   -0.39    1.00    1.80   260.49203   112.63190   209.49346
   437  C   4.0    0.04    3.98    3.58   262.38031   112.13702   204.11922
   438  O   6.0   -0.47    1.99    1.82   260.21025   110.59697   204.16518
   439  C   4.0   -0.19    3.98    3.58   264.70528   110.71609   205.06357
   440  H   1.0    0.31    1.00    1.43   265.01500   116.27067   203.75172
   441  H   1.0    0.16    0.99    1.43   259.93520   115.15093   205.36399
   442  H   1.0    0.14    0.99    1.43   262.64154   112.66158   202.13089
   443  H   1.0    0.29    0.99    1.43   259.77458   110.27999   205.91401
   444  H   1.0    0.12    0.99    1.43   265.08261   109.12313   203.82557
   445  H   1.0    0.14    0.99    1.43   266.32500   111.97460   205.10144
   446  H   1.0    0.12    0.99    1.43   264.36305   110.00570   206.96456
   447  N   5.0   -0.47    3.01    1.93   264.07009   114.96584   209.69291
   448  C   4.0    0.07    3.99    3.61   264.41372   114.78978   212.39847
   449  C   4.0    0.28    3.01    3.02   263.28483   117.12868   213.66616
   450  O   6.0   -0.41    1.00    1.80   261.97130   116.97959   215.57816
   451  C   4.0   -0.14    3.99    3.60   267.22398   114.50740   212.99077
   452  C   4.0   -0.09    3.98    3.58   268.37280   112.13991   211.77391
   453  C   4.0   -0.23    3.98    3.59   271.24972   112.34195   211.86692
   454  C   4.0   -0.21    3.98    3.59   267.43356   109.72974   213.04868
   455  H   1.0    0.29    1.00    1.43   265.44906   115.85088   208.70889
   456  H   1.0    0.16    0.99    1.43   263.32225   113.16514   213.08440
   457  H   1.0    0.13    0.99    1.43   268.18857   116.18022   212.26068
   458  H   1.0    0.11    0.99    1.43   267.45838   114.44014   215.03729
   459  H   1.0    0.14    0.99    1.43   267.81088   112.09935   209.78663
   460  H   1.0    0.10    0.99    1.43   272.11873   110.62700   211.14697
   461  H   1.0    0.11    0.99    1.43   271.85653   113.91043   210.68756
   462  H   1.0    0.10    0.99    1.43   271.87904   112.67631   213.79169
   463  H   1.0    0.11    0.99    1.43   268.28161   108.08373   212.16019
   464  H   1.0    0.11    0.99    1.43   267.89461   109.74865   215.04838
   465  H   1.0    0.13    0.99    1.43   265.38997   109.55473   212.89140
   466  N   5.0   -0.48    3.01    1.93   263.77018   119.33573   212.54331
   467  C   4.0    0.07    4.00    3.61   262.58097   121.64211   213.42004
   468  C   4.0    0.30    3.01    3.02   259.77288   121.13514   213.90924
   469  O   6.0   -0.39    1.00    1.80   258.71057   121.84116   215.84755
   470  C   4.0   -0.14    3.98    3.59   262.85735   123.76168   211.46614
   471  C   4.0   -0.15    3.98    3.59   261.56229   126.18995   212.37296
   472  C   4.0   -0.03    3.98    3.59   260.99411   128.06399   210.24625
   473  N   5.0   -0.47    3.02    1.93   263.13722   129.68073   209.69851
   474  C   4.0    0.38    3.00    3.02   263.69552   130.72976   207.48471
   475  N   5.0   -0.62    3.01    1.93   262.40554   130.19441   205.38040
   476  N   5.0   -0.64    3.02    1.93   265.50932   132.46476   207.41935
   477  H   1.0    0.29    1.00    1.43   264.98089   119.42841   211.05512
   478  H   1.0    0.12    0.99    1.43   263.40836   122.22192   215.23649
   479  H   1.0    0.12    0.99    1.43   264.86306   124.07985   211.11574
   480  H   1.0    0.14    0.99    1.43   261.98600   123.10918   209.71516
   481  H   1.0    0.13    0.99    1.43   259.77424   125.67930   213.25996
   482  H   1.0    0.11    0.99    1.43   262.71234   127.09896   213.82198
   483  H   1.0    0.12    0.99    1.43   260.46970   127.00222   208.56034
   484  H   1.0    0.12    0.99    1.43   259.38814   129.24318   210.80567
   485  H   1.0    0.23    1.00    1.43   264.06821   130.37561   211.22155
   486  H   1.0    0.27    1.00    1.43   261.42408   128.56295   205.29779
   487  H   1.0    0.28    1.00    1.43   263.19581   130.70082   203.72108
   488  H   1.0    0.26    1.00    1.43   266.24183   133.12884   209.06946
   489  H   1.0    0.29    1.00    1.43   266.01910   133.26841   205.77222
   490  N   5.0   -0.47    3.01    1.93   258.54540   120.04555   211.99083
   491  C   4.0    0.09    3.99    3.61   255.86557   119.53763   212.13302
   492  C   4.0    0.30    3.01    3.02   255.14036   118.07648   214.51257
   493  O   6.0   -0.36    1.00    1.80   253.20445   118.61664   215.66646
   494  C   4.0   -0.01    3.98    3.59   255.00985   118.08418   209.75263
   495  O   6.0   -0.44    1.99    1.82   256.54830   116.00683   209.18236
   496  H   1.0    0.31    1.00    1.43   259.45221   119.48731   210.38991
   497  H   1.0    0.13    0.99    1.43   254.81953   121.33002   212.22626
   498  H   1.0    0.12    0.99    1.43   253.02664   117.53756   209.99274
   499  H   1.0    0.13    0.99    1.43   255.19048   119.33838   208.12189
   500  H   1.0    0.30    0.99    1.43   256.27828   114.62283   210.33710
   501  N   5.0   -0.46    3.01    1.93   256.62906   116.15037   215.16336
   502  C   4.0    0.09    3.99    3.61   256.10198   114.68248   217.41214
   503  C   4.0    0.10    3.00    3.02   255.90664   116.41188   219.70256
   504  O   6.0   -0.36    1.00    1.80   254.19114   116.22359   221.25227
   505  C   4.0   -0.09    3.98    3.59   258.18072   112.75424   217.87440
   506  C   4.0    0.33    2.99    3.02   258.35751   110.75165   215.67842
   507  O   6.0   -0.36    1.00    1.80   256.36500   110.25840   214.54100
   508  O   6.0   -0.39    1.00    1.80   260.49171   109.84395   215.31394
   509  H   1.0    0.30    1.00    1.43   258.27952   115.79968   214.27737
   510  H   1.0    0.17    0.99    1.43   254.29838   113.68504   217.16608
   511  H   1.0    0.14    0.99    1.43   260.01943   113.66504   218.06293
   512  H   1.0    0.12    0.99    1.43   257.79606   111.70058   219.60998
   513  H   1.0    0.29    1.00    1.43   276.09516   130.26309   217.50750
   514  H   1.0    0.14    1.00    1.43   272.58133   133.02322   212.99847
   515  H   1.0    0.29    1.00    1.43   280.83014   135.25040   211.25857
   516  H   1.0    0.17    1.00    1.43   288.38214   139.22485   182.70676
   517  H   1.0    0.30    1.00    1.43   291.98698   133.35975   211.01980
   518  H   1.0    0.14    1.00    1.43   293.52228   127.60104   213.29674
   519  H   1.0    0.28    1.00    1.43   281.76848   114.01149   216.72380
   520  H   1.0    0.12    1.00    1.43   287.01135   117.38634   212.88335
   521  H   1.0    0.29    1.00    1.43   291.95703   109.57739   207.67135
   522  H   1.0    0.14    1.00    1.43   288.51832   112.10739   199.80541
   523  H   1.0    0.29    1.00    1.43   290.81009   114.92666   196.57259
   524  H   1.0    0.14    1.00    1.43   296.72078   117.56439   198.22131
   525  H   1.0    0.29    1.00    1.43   281.84696   113.94157   183.08057
   526  H   1.0    0.16    1.00    1.43   257.20335   117.75741   219.98389

           ------------------------------------------------- 
          |        Self-Consistent Charge Iterations        |
           ------------------------------------------------- 

          ...................................................
          :                      SETUP                      :
          :.................................................:
          :  # basis functions                1264          :
          :  # atomic orbitals                1264          :
          :  # shells                          772          :
          :  # electrons                      1404          :
          :  max. iterations                   250          :
          :  Hamiltonian                  GFN2-xTB          :
          :  restarted?                      false          :
          :  GBSA solvation                   true          :
          :  PC potential                    false          :
          :  electronic temp.          500.0000000     K    :
          :  accuracy                    0.1000000          :
          :  -> integral cutoff          0.3500000E+02      :
          :  -> integral neglect         0.1000000E-08      :
          :  -> SCF convergence          0.1000000E-06 Eh   :
          :  -> wf. convergence          0.1000000E-04 e    :
          :  Broyden damping             0.4000000          :
          ...................................................

 iter      E             dE          RMSdq      gap      omega  full diag
   1   -804.0414902 -0.804041E+03  0.414E+00    1.26       0.0  T
   2   -806.2686385 -0.222715E+01  0.213E+00    1.56       1.0  T
   3   -806.3549855 -0.863470E-01  0.114E+00    2.26       1.0  T
   4   -806.3760976 -0.211120E-01  0.254E-01    1.47       1.0  T
   5   -806.3922694 -0.161718E-01  0.112E-01    1.68       1.0  T
   6   -806.3931389 -0.869482E-03  0.470E-02    1.73       1.0  T
   7   -806.3932106 -0.717390E-04  0.177E-02    1.79       1.0  T
   8   -806.3932419 -0.313202E-04  0.672E-03    1.79       1.0  T
   9   -806.3932458 -0.386532E-05  0.281E-03    1.79       1.6  T
  10   -806.3932462 -0.408617E-06  0.117E-03    1.79       3.7  T
  11   -806.3932463 -0.148313E-06  0.458E-04    1.79       9.5  T
  12   -806.3932464 -0.226802E-07  0.226E-04    1.79      19.3  T
  13   -806.3932464 -0.465354E-08  0.106E-04    1.79      41.0  T
  14   -806.3932464 -0.131297E-08  0.443E-05    1.79      98.3  T
  15   -806.3932464 -0.226464E-09  0.212E-05    1.79     205.4  T

   *** convergence criteria satisfied after 15 iterations ***

         #    Occupation            Energy/Eh            Energy/eV
      -------------------------------------------------------------
         1        2.0000           -0.7353328             -20.0094
       ...           ...                  ...                  ...
       696        2.0000           -0.3692967             -10.0491
       697        2.0000           -0.3690715             -10.0429
       698        2.0000           -0.3685886             -10.0298
       699        2.0000           -0.3677756             -10.0077
       700        2.0000           -0.3665983              -9.9756
       701        2.0000           -0.3632264              -9.8839
       702        2.0000           -0.3631723              -9.8824 (HOMO)
       703                         -0.2974906              -8.0951 (LUMO)
       704                         -0.2846874              -7.7467
       705                         -0.2838397              -7.7237
       706                         -0.2825612              -7.6889
       707                         -0.2811821              -7.6514
       ...                                ...                  ...
      1264                          0.6554714              17.8363
      -------------------------------------------------------------
                  HL-Gap            0.0656817 Eh            1.7873 eV
             Fermi-level           -0.3297023 Eh           -8.9717 eV

 SCC (total)                   0 d,  0 h,  0 min, 12.210 sec
 SCC setup                      ...        0 min,  0.184 sec (  1.504%)
 Dispersion                     ...        0 min,  0.152 sec (  1.248%)
 integral evaluation            ...        0 min,  0.411 sec (  3.362%)
 zeroth order Hamiltonian       ...        0 min,  0.010 sec (  0.081%)
 iterations                     ...        0 min,  9.346 sec ( 76.541%)
 molecular gradient             ...        0 min,  2.048 sec ( 16.774%)
 printout                       ...        0 min,  0.060 sec (  0.489%)

         :::::::::::::::::::::::::::::::::::::::::::::::::::::
         ::                     SUMMARY                     ::
         :::::::::::::::::::::::::::::::::::::::::::::::::::::
         :: total energy             -796.823269290890 Eh   ::
         :: total w/o Gsasa/hb       -796.734401740106 Eh   ::
         :: gradient norm               0.590394542921 Eh/α ::
         :: HOMO-LUMO gap               1.787289233557 eV   ::
         ::.................................................::
         :: SCC energy               -806.412749723632 Eh   ::
         :: -> isotropic ES             2.633056938390 Eh   ::
         :: -> anisotropic ES          -0.106460597208 Eh   ::
         :: -> anisotropic XC           0.252358752681 Eh   ::
         :: -> dispersion              -0.698748118100 Eh   ::
         :: -> Gsolv                   -0.665734031722 Eh   ::
         ::    -> Gborn                -0.576866480939 Eh   ::
         ::    -> Gsasa                -0.021360793529 Eh   ::
         ::    -> Ghb                  -0.069364200381 Eh   ::
         ::    -> Gshift                0.001857443127 Eh   ::
         :: repulsion energy            9.516604973701 Eh   ::
         :: add. restraining            0.000000000000 Eh   ::
         :::::::::::::::::::::::::::::::::::::::::::::::::::::

           -------------------------------------------------
          |                Property Printout                |
           -------------------------------------------------

    * Orbital Energies and Occupations

         #    Occupation            Energy/Eh            Energy/eV
      -------------------------------------------------------------
         1        2.0000           -0.7353328             -20.0094
       ...           ...                  ...                  ...
       690        2.0000           -0.3830785             -10.4241
       691        2.0000           -0.3828749             -10.4186
       692        2.0000           -0.3772381             -10.2652
       693        2.0000           -0.3767826             -10.2528
       694        2.0000           -0.3763028             -10.2397
       695        2.0000           -0.3740013             -10.1771
       696        2.0000           -0.3692967             -10.0491
       697        2.0000           -0.3690715             -10.0429
       698        2.0000           -0.3685886             -10.0298
       699        2.0000           -0.3677756             -10.0077
       700        2.0000           -0.3665983              -9.9756
       701        2.0000           -0.3632264              -9.8839
       702        2.0000           -0.3631723              -9.8824 (HOMO)
       703                         -0.2974906              -8.0951 (LUMO)
       704                         -0.2846874              -7.7467
       705                         -0.2838397              -7.7237
       706                         -0.2825612              -7.6889
       707                         -0.2811821              -7.6514
       708                         -0.2801296              -7.6227
       709                         -0.2768962              -7.5347
       710                         -0.2466153              -6.7107
       711                         -0.2455043              -6.6805
       712                         -0.2393326              -6.5126
       713                         -0.2371711              -6.4538
       ...                                ...                  ...
      1264                          0.6554714              17.8363
      -------------------------------------------------------------
                  HL-Gap            0.0656817 Eh            1.7873 eV
             Fermi-level           -0.3297023 Eh           -8.9717 eV

   #   Z        covCN         q      C6AA      α(0)
   1   7 N      2.635    -0.384    29.941     8.127
   2   6 C      3.783     0.038    19.955     6.363
   3   6 C      2.768     0.186    24.004     8.024
   4   8 O      0.856    -0.363    20.961     6.138
   5   6 C      3.811    -0.077    21.962     6.671
   6   6 C      3.849    -0.009    20.712     6.473
   7   6 C      3.757    -0.114    22.726     6.797
   8   6 C      3.756    -0.111    22.671     6.789
   9   1 H      0.860     0.163     1.318     1.798
  10   1 H      0.924     0.058     2.226     2.333
  11   1 H      0.924     0.059     2.214     2.327
  12   1 H      0.924     0.054     2.268     2.355
  13   1 H      0.924     0.037     2.494     2.470
  14   1 H      0.925     0.030     2.581     2.512
  15   1 H      0.925     0.036     2.501     2.473
  16   1 H      0.925     0.037     2.495     2.470
  17   1 H      0.925     0.034     2.536     2.490
  18   1 H      0.925     0.040     2.449     2.447
  19   1 H      0.925     0.045     2.378     2.412
  20   7 N      2.636    -0.390    30.107     8.149
  21   6 C      3.793     0.019    20.270     6.411
  22   6 C      2.754     0.261    22.597     7.784
  23   8 O      0.858    -0.491    23.577     6.510
  24   6 C      3.853    -0.030    21.074     6.529
  25   6 C      3.805    -0.057    21.588     6.614
  26   6 C      3.755    -0.119    22.839     6.814
  27   6 C      3.751    -0.103    22.537     6.770
  28   1 H      0.860     0.156     1.358     1.826
  29   1 H      0.923     0.036     2.509     2.477
  30   1 H      0.924     0.050     2.319     2.382
  31   1 H      0.924     0.034     2.527     2.486
  32   1 H      0.924     0.034     2.527     2.486
  33   1 H      0.925     0.048     2.344     2.394
  34   1 H      0.925     0.042     2.425     2.435
  35   1 H      0.925     0.052     2.293     2.368
  36   1 H      0.925     0.034     2.527     2.486
  37   1 H      0.925     0.028     2.614     2.528
  38   1 H      0.925     0.040     2.445     2.445
  39   7 N      2.693    -0.191    25.152     7.448
  40   6 C      3.796     0.024    20.172     6.395
  41   6 C      2.758     0.284    22.185     7.713
  42   8 O      0.859    -0.466    23.034     6.435
  43   6 C      3.808    -0.128    22.939     6.818
  44   6 C      2.743     0.288    22.110     7.699
  45   8 O      0.859    -0.468    23.094     6.443
  46   7 N      2.637    -0.271    27.014     7.719
  47   1 H      0.860     0.256     0.861     1.453
  48   1 H      0.923     0.071     2.073     2.252
  49   1 H      0.925     0.100     1.785     2.089
  50   1 H      0.924     0.099     1.792     2.094
  51   1 H      0.860     0.205     1.081     1.628
  52   1 H      0.860     0.217     1.024     1.585
  53   7 N      2.690    -0.177    24.831     7.401
  54   6 C      3.798     0.014    20.348     6.423
  55   6 C      2.763     0.278    22.291     7.732
  56   8 O      0.859    -0.485    23.453     6.493
  57   6 C      3.809    -0.115    22.690     6.781
  58   6 C      2.743     0.295    21.998     7.680
  59   8 O      0.859    -0.498    23.736     6.532
  60   7 N      2.638    -0.279    27.205     7.746
  61   1 H      0.860     0.216     1.027     1.588
  62   1 H      0.923     0.108     1.718     2.050
  63   1 H      0.924     0.089     1.893     2.151
  64   1 H      0.924     0.081     1.965     2.192
  65   1 H      0.860     0.238     0.930     1.511
  66   1 H      0.860     0.230     0.964     1.538
  67   7 N      2.690    -0.173    24.754     7.389
  68   6 C      3.801     0.026    20.131     6.388
  69   6 C      2.759     0.275    22.355     7.743
  70   8 O      0.859    -0.496    23.696     6.527
  71   6 C      3.809    -0.115    22.693     6.781
  72   6 C      2.743     0.291    22.064     7.691
  73   8 O      0.859    -0.488    23.531     6.504
  74   7 N      2.638    -0.280    27.226     7.750
  75   1 H      0.860     0.211     1.053     1.607
  76   1 H      0.923     0.077     2.011     2.217
  77   1 H      0.925     0.099     1.790     2.092
  78   1 H      0.924     0.089     1.884     2.147
  79   1 H      0.860     0.234     0.950     1.526
  80   1 H      0.860     0.213     1.044     1.601
  81   7 N      2.689    -0.173    24.743     7.388
  82   6 C      3.798     0.016    20.307     6.416
  83   6 C      2.756     0.266    22.520     7.771
  84   8 O      0.859    -0.494    23.652     6.520
  85   6 C      3.810    -0.081    22.042     6.683
  86   6 C      3.850    -0.021    20.913     6.505
  87   6 C      3.757    -0.116    22.775     6.804
  88   6 C      3.757    -0.125    22.945     6.830
  89   1 H      0.860     0.238     0.933     1.513
  90   1 H      0.924     0.084     1.939     2.177
  91   1 H      0.924     0.060     2.201     2.320
  92   1 H      0.924     0.066     2.134     2.284
  93   1 H      0.924     0.053     2.281     2.362
  94   1 H      0.925     0.054     2.276     2.359
  95   1 H      0.925     0.031     2.575     2.509
  96   1 H      0.925     0.040     2.450     2.448
  97   1 H      0.925     0.053     2.283     2.363
  98   1 H      0.925     0.050     2.319     2.381
  99   1 H      0.925     0.038     2.472     2.459
 100   7 N      2.690    -0.182    24.949     7.418
 101   6 C      3.799     0.017    20.288     6.413
 102   6 C      2.758     0.273    22.394     7.749
 103   8 O      0.858    -0.500    23.789     6.539
 104   6 C      3.809    -0.067    21.778     6.643
 105   6 C      3.806    -0.106    22.517     6.755
 106   6 C      2.746     0.294    22.013     7.682
 107   8 O      0.859    -0.499    23.760     6.535
 108   7 N      2.639    -0.291    27.512     7.790
 109   1 H      0.860     0.235     0.944     1.522
 110   1 H      0.924     0.080     1.982     2.202
 111   1 H      0.924     0.066     2.127     2.281
 112   1 H      0.924     0.052     2.290     2.366
 113   1 H      0.925     0.064     2.151     2.293
 114   1 H      0.924     0.098     1.803     2.100
 115   1 H      0.860     0.230     0.966     1.539
 116   1 H      0.860     0.230     0.965     1.538
 117   7 N      2.693    -0.185    25.009     7.427
 118   6 C      3.799     0.021    20.226     6.403
 119   6 C      2.762     0.280    22.258     7.726
 120   8 O      0.859    -0.508    23.960     6.563
 121   6 C      3.809    -0.083    22.069     6.687
 122   6 C      3.804    -0.078    21.995     6.677
 123   6 C      3.739    -0.029    21.176     6.566
 124   7 N      2.702    -0.147    24.175     7.302
 125   6 C      2.735     0.238    23.016     7.855
 126   7 N      2.647    -0.269    26.955     7.711
 127   7 N      2.655    -0.275    27.098     7.731
 128   1 H      0.860     0.227     0.980     1.551
 129   1 H      0.923     0.075     2.029     2.228
 130   1 H      0.924     0.067     2.115     2.274
 131   1 H      0.924     0.075     2.034     2.230
 132   1 H      0.924     0.074     2.041     2.234
 133   1 H      0.924     0.055     2.260     2.351
 134   1 H      0.925     0.093     1.846     2.125
 135   1 H      0.924     0.077     2.015     2.220
 136   1 H      0.860     0.233     0.951     1.528
 137   1 H      0.858     0.251     0.880     1.469
 138   1 H      0.860     0.224     0.993     1.561
 139   1 H      0.860     0.250     0.883     1.472
 140   1 H      0.860     0.245     0.902     1.488
 141   7 N      2.691    -0.189    25.092     7.440
 142   6 C      3.804     0.026    20.136     6.388
 143   6 C      2.761     0.286    22.148     7.707
 144   8 O      0.859    -0.512    24.055     6.576
 145   6 C      3.852    -0.024    20.960     6.512
 146   6 C      3.758    -0.118    22.814     6.810
 147   6 C      3.757    -0.126    22.975     6.834
 148   1 H      0.860     0.226     0.985     1.555
 149   1 H      0.923     0.058     2.227     2.334
 150   1 H      0.924     0.061     2.182     2.310
 151   1 H      0.925     0.066     2.130     2.282
 152   1 H      0.925     0.041     2.439     2.442
 153   1 H      0.925     0.042     2.427     2.436
 154   1 H      0.925     0.058     2.217     2.328
 155   1 H      0.925     0.043     2.413     2.429
 156   1 H      0.925     0.055     2.260     2.351
 157   7 N      2.688    -0.188    25.075     7.437
 158   6 C      3.801     0.028    20.104     6.384
 159   6 C      2.758     0.289    22.103     7.699
 160   8 O      0.858    -0.504    23.867     6.550
 161   6 C      3.810    -0.087    22.160     6.701
 162   6 C      3.801    -0.086    22.142     6.700
 163   6 C      3.741    -0.027    21.136     6.559
 164   7 N      2.697    -0.146    24.169     7.302
 165   6 C      2.737     0.233    23.121     7.873
 166   7 N      2.653    -0.254    26.608     7.661
 167   7 N      2.656    -0.259    26.721     7.677
 168   1 H      0.860     0.231     0.961     1.536
 169   1 H      0.923     0.065     2.138     2.287
 170   1 H      0.925     0.079     1.989     2.205
 171   1 H      0.924     0.056     2.244     2.343
 172   1 H      0.924     0.066     2.136     2.285
 173   1 H      0.924     0.076     2.016     2.221
 174   1 H      0.925     0.086     1.918     2.166
 175   1 H      0.924     0.083     1.953     2.186
 176   1 H      0.860     0.221     1.003     1.569
 177   1 H      0.860     0.238     0.930     1.511
 178   1 H      0.859     0.258     0.852     1.446
 179   1 H      0.860     0.231     0.961     1.536
 180   1 H      0.860     0.244     0.907     1.492
 181   7 N      2.690    -0.171    24.706     7.382
 182   6 C      3.792     0.037    19.953     6.361
 183   6 C      2.770     0.213    23.500     7.939
 184   8 O      0.856    -0.379    21.261     6.182
 185   6 C      3.816    -0.049    21.434     6.589
 186   6 C      3.799    -0.092    22.261     6.718
 187   6 C      2.691     0.369    20.749     7.455
 188   8 O      0.856    -0.617    26.538     6.907
 189   8 O      0.857    -0.603    26.190     6.861
 190   1 H      0.860     0.213     1.043     1.600
 191   1 H      0.923     0.072     2.065     2.247
 192   1 H      0.924     0.066     2.132     2.283
 193   1 H      0.924     0.040     2.455     2.450
 194   1 H      0.925     0.026     2.643     2.542
 195   1 H      0.925     0.039     2.466     2.456
 196   7 N      2.636    -0.393    30.175     8.158
 197   6 C      3.787     0.039    19.932     6.359
 198   6 C      2.766     0.203    23.675     7.969
 199   8 O      0.856    -0.388    21.438     6.208
 200   6 C      3.853    -0.023    20.942     6.509
 201   6 C      3.804    -0.060    21.649     6.624
 202   6 C      3.755    -0.114    22.743     6.800
 203   6 C      3.752    -0.117    22.801     6.810
 204   1 H      0.860     0.168     1.285     1.776
 205   1 H      0.923     0.043     2.409     2.427
 206   1 H      0.924     0.046     2.368     2.406
 207   1 H      0.924     0.039     2.465     2.455
 208   1 H      0.924     0.032     2.559     2.502
 209   1 H      0.925     0.061     2.185     2.311
 210   1 H      0.925     0.025     2.653     2.547
 211   1 H      0.925     0.048     2.350     2.397
 212   1 H      0.925     0.047     2.355     2.400
 213   1 H      0.925     0.043     2.409     2.427
 214   1 H      0.925     0.051     2.303     2.373
 215   7 N      2.637    -0.384    29.920     8.124
 216   6 C      3.787     0.030    20.076     6.382
 217   6 C      2.769     0.207    23.601     7.956
 218   8 O      0.856    -0.372    21.121     6.162
 219   6 C      3.853    -0.023    20.940     6.508
 220   6 C      3.802    -0.058    21.618     6.620
 221   6 C      3.755    -0.115    22.751     6.801
 222   6 C      3.751    -0.114    22.742     6.801
 223   1 H      0.860     0.155     1.370     1.834
 224   1 H      0.924     0.062     2.181     2.309
 225   1 H      0.924     0.040     2.448     2.447
 226   1 H      0.924     0.027     2.630     2.536
 227   1 H      0.924     0.039     2.460     2.453
 228   1 H      0.925     0.048     2.339     2.392
 229   1 H      0.925     0.036     2.503     2.474
 230   1 H      0.925     0.051     2.311     2.377
 231   1 H      0.925     0.033     2.541     2.493
 232   1 H      0.925     0.047     2.356     2.400
 233   1 H      0.925     0.033     2.542     2.493
 234   7 N      2.633    -0.389    30.079     8.145
 235   6 C      3.787     0.026    20.144     6.392
 236   6 C      2.757     0.271    22.414     7.753
 237   8 O      0.858    -0.516    24.147     6.588
 238   6 C      3.726     0.117    18.769     6.186
 239   8 O      1.653    -0.467    22.191     6.359
 240   6 C      3.753    -0.131    23.080     6.851
 241   1 H      0.860     0.172     1.263     1.760
 242   1 H      0.923     0.038     2.482     2.464
 243   1 H      0.923     0.005     2.981     2.700
 244   1 H      0.803     0.316     0.676     1.291
 245   1 H      0.925     0.051     2.302     2.373
 246   1 H      0.925     0.048     2.339     2.392
 247   1 H      0.925     0.063     2.167     2.302
 248   7 N      2.690    -0.161    24.488     7.350
 249   6 C      3.794     0.020    20.244     6.407
 250   6 C      2.766     0.202    23.701     7.973
 251   8 O      0.856    -0.368    21.057     6.152
 252   6 C      3.811    -0.077    21.971     6.672
 253   6 C      3.849    -0.015    20.807     6.488
 254   6 C      3.757    -0.120    22.860     6.817
 255   6 C      3.756    -0.120    22.859     6.817
 256   1 H      0.860     0.225     0.989     1.558
 257   1 H      0.924     0.101     1.773     2.082
 258   1 H      0.924     0.062     2.170     2.304
 259   1 H      0.924     0.068     2.103     2.268
 260   1 H      0.924     0.039     2.460     2.453
 261   1 H      0.925     0.049     2.330     2.387
 262   1 H      0.925     0.045     2.387     2.416
 263   1 H      0.925     0.050     2.317     2.380
 264   1 H      0.925     0.040     2.451     2.448
 265   1 H      0.925     0.039     2.460     2.453
 266   1 H      0.925     0.048     2.348     2.396
 267   7 N      2.634    -0.386    29.986     8.133
 268   6 C      3.783     0.033    20.032     6.376
 269   6 C      2.766     0.198    23.781     7.986
 270   8 O      0.856    -0.391    21.494     6.216
 271   6 C      3.812    -0.073    21.889     6.659
 272   6 C      3.849    -0.012    20.762     6.481
 273   6 C      3.759    -0.122    22.883     6.820
 274   6 C      3.755    -0.120    22.857     6.817
 275   1 H      0.860     0.151     1.396     1.851
 276   1 H      0.924     0.087     1.913     2.163
 277   1 H      0.924     0.040     2.449     2.447
 278   1 H      0.924     0.054     2.273     2.358
 279   1 H      0.924     0.027     2.627     2.535
 280   1 H      0.925     0.041     2.438     2.442
 281   1 H      0.925     0.046     2.367     2.406
 282   1 H      0.925     0.047     2.364     2.404
 283   1 H      0.925     0.040     2.447     2.446
 284   1 H      0.925     0.050     2.314     2.379
 285   1 H      0.925     0.042     2.423     2.434
 286   7 N      2.637    -0.406    30.531     8.206
 287   6 C      3.788     0.022    20.220     6.404
 288   6 C      2.756     0.259    22.630     7.790
 289   8 O      0.859    -0.496    23.705     6.528
 290   6 C      3.807    -0.077    21.971     6.673
 291   6 C      3.806    -0.074    21.901     6.662
 292   6 C      3.803    -0.094    22.296     6.722
 293   6 C      3.733    -0.050    21.566     6.628
 294   7 N      3.482    -0.148    24.197     7.306
 295   1 H      0.860     0.173     1.254     1.755
 296   1 H      0.924     0.049     2.327     2.385
 297   1 H      0.924     0.057     2.229     2.335
 298   1 H      0.925     0.052     2.297     2.370
 299   1 H      0.925     0.055     2.258     2.350
 300   1 H      0.925     0.053     2.279     2.361
 301   1 H      0.924     0.077     2.012     2.218
 302   1 H      0.925     0.079     1.992     2.207
 303   1 H      0.924     0.116     1.644     2.005
 304   1 H      0.925     0.114     1.662     2.016
 305   1 H      0.859     0.301     0.711     1.321
 306   1 H      0.857     0.299     0.717     1.326
 307   1 H      0.859     0.299     0.718     1.327
 308   7 N      2.690    -0.172    24.725     7.385
 309   6 C      3.802     0.008    20.438     6.436
 310   6 C      2.758     0.275    22.357     7.743
 311   8 O      0.859    -0.477    23.286     6.470
 312   6 C      3.853    -0.031    21.082     6.531
 313   6 C      3.804    -0.072    21.872     6.658
 314   6 C      3.756    -0.118    22.814     6.810
 315   6 C      3.751    -0.109    22.648     6.787
 316   1 H      0.860     0.218     1.017     1.580
 317   1 H      0.923     0.090     1.881     2.145
 318   1 H      0.924     0.046     2.370     2.408
 319   1 H      0.924     0.060     2.194     2.317
 320   1 H      0.925     0.057     2.238     2.339
 321   1 H      0.925     0.058     2.228     2.334
 322   1 H      0.925     0.035     2.518     2.482
 323   1 H      0.925     0.058     2.217     2.328
 324   1 H      0.925     0.046     2.367     2.406
 325   1 H      0.925     0.040     2.455     2.450
 326   1 H      0.925     0.026     2.638     2.540
 327   7 N      2.690    -0.181    24.919     7.414
 328   6 C      3.801     0.030    20.066     6.378
 329   6 C      2.760     0.276    22.340     7.740
 330   8 O      0.858    -0.493    23.640     6.519
 331   6 C      3.804    -0.105    22.507     6.754
 332   6 C      2.683     0.371    20.718     7.449
 333   8 O      0.856    -0.611    26.403     6.889
 334   8 O      0.856    -0.604    26.211     6.864
 335   1 H      0.860     0.209     1.062     1.615
 336   1 H      0.923     0.075     2.036     2.231
 337   1 H      0.925     0.045     2.388     2.416
 338   1 H      0.924     0.038     2.474     2.460
 339   7 N      2.693    -0.175    24.784     7.394
 340   6 C      3.796     0.022    20.210     6.401
 341   6 C      2.756     0.274    22.361     7.744
 342   8 O      0.858    -0.511    24.019     6.571
 343   6 C      3.757    -0.140    23.255     6.875
 344   1 H      0.860     0.209     1.063     1.615
 345   1 H      0.923     0.064     2.152     2.294
 346   1 H      0.925     0.073     2.055     2.241
 347   1 H      0.925     0.075     2.029     2.228
 348   1 H      0.925     0.086     1.918     2.166
 349   7 N      2.693    -0.178    24.864     7.406
 350   6 C      3.795     0.026    20.144     6.391
 351   6 C      2.763     0.275    22.344     7.741
 352   8 O      0.859    -0.498    23.731     6.531
 353   6 C      3.759    -0.134    23.117     6.855
 354   1 H      0.860     0.242     0.914     1.498
 355   1 H      0.923     0.068     2.103     2.268
 356   1 H      0.925     0.072     2.064     2.247
 357   1 H      0.925     0.079     1.986     2.204
 358   1 H      0.925     0.079     1.987     2.204
 359   7 N      2.690    -0.179    24.879     7.408
 360   6 C      3.803     0.024    20.166     6.393
 361   6 C      2.760     0.279    22.270     7.728
 362   8 O      0.859    -0.510    24.010     6.570
 363   6 C      3.808    -0.078    21.975     6.673
 364   6 C      3.850    -0.018    20.866     6.497
 365   6 C      3.756    -0.130    23.048     6.845
 366   6 C      3.757    -0.112    22.701     6.793
 367   1 H      0.860     0.229     0.969     1.542
 368   1 H      0.924     0.083     1.950     2.184
 369   1 H      0.924     0.062     2.175     2.306
 370   1 H      0.924     0.048     2.348     2.396
 371   1 H      0.924     0.057     2.238     2.339
 372   1 H      0.925     0.059     2.208     2.324
 373   1 H      0.925     0.050     2.321     2.382
 374   1 H      0.925     0.045     2.380     2.412
 375   1 H      0.925     0.052     2.295     2.369
 376   1 H      0.925     0.036     2.509     2.477
 377   1 H      0.925     0.032     2.557     2.501
 378   7 N      2.691    -0.195    25.221     7.459
 379   6 C      3.799     0.035    19.989     6.366
 380   6 C      2.757     0.283    22.200     7.716
 381   8 O      0.858    -0.519    24.217     6.598
 382   6 C      3.757    -0.134    23.139     6.859
 383   1 H      0.860     0.241     0.921     1.503
 384   1 H      0.923     0.047     2.353     2.399
 385   1 H      0.925     0.060     2.198     2.319
 386   1 H      0.925     0.072     2.066     2.248
 387   1 H      0.925     0.080     1.982     2.201
 388   7 N      2.690    -0.182    24.944     7.418
 389   6 C      3.796     0.024    20.178     6.396
 390   6 C      2.760     0.279    22.287     7.731
 391   8 O      0.859    -0.505    23.885     6.552
 392   6 C      3.808    -0.074    21.900     6.662
 393   6 C      3.805    -0.106    22.519     6.756
 394   6 C      2.745     0.289    22.093     7.696
 395   8 O      0.859    -0.481    23.367     6.481
 396   7 N      2.639    -0.284    27.329     7.764
 397   1 H      0.860     0.232     0.957     1.533
 398   1 H      0.923     0.058     2.222     2.331
 399   1 H      0.924     0.089     1.886     2.148
 400   1 H      0.924     0.060     2.197     2.318
 401   1 H      0.924     0.068     2.111     2.272
 402   1 H      0.924     0.081     1.967     2.193
 403   1 H      0.860     0.219     1.014     1.577
 404   1 H      0.860     0.228     0.972     1.544
 405   7 N      2.691    -0.182    24.937     7.417
 406   6 C      3.804     0.026    20.128     6.387
 407   6 C      2.760     0.288    22.122     7.702
 408   8 O      0.858    -0.511    24.032     6.573
 409   6 C      3.853    -0.022    20.932     6.507
 410   6 C      3.755    -0.118    22.822     6.812
 411   6 C      3.756    -0.127    22.998     6.838
 412   1 H      0.860     0.231     0.962     1.536
 413   1 H      0.923     0.065     2.141     2.288
 414   1 H      0.924     0.045     2.379     2.412
 415   1 H      0.925     0.073     2.058     2.244
 416   1 H      0.925     0.034     2.535     2.490
 417   1 H      0.925     0.047     2.352     2.398
 418   1 H      0.925     0.067     2.113     2.273
 419   1 H      0.925     0.056     2.247     2.344
 420   1 H      0.925     0.056     2.245     2.343
 421   7 N      2.693    -0.193    25.179     7.452
 422   6 C      3.801     0.040    19.896     6.351
 423   6 C      2.761     0.267    22.492     7.766
 424   8 O      0.858    -0.506    23.926     6.558
 425   6 C      3.801    -0.098    22.364     6.733
 426   6 C      2.681     0.368    20.758     7.456
 427   8 O      0.856    -0.619    26.594     6.914
 428   8 O      0.856    -0.598    26.068     6.845
 429   1 H      0.860     0.225     0.989     1.558
 430   1 H      0.923     0.078     1.995     2.209
 431   1 H      0.924     0.019     2.747     2.592
 432   1 H      0.924     0.026     2.639     2.540
 433   7 N      2.687    -0.191    25.139     7.447
 434   6 C      3.800     0.015    20.332     6.420
 435   6 C      2.754     0.287    22.144     7.706
 436   8 O      0.858    -0.514    24.094     6.581
 437   6 C      3.727     0.115    18.792     6.189
 438   8 O      1.655    -0.470    22.251     6.368
 439   6 C      3.752    -0.132    23.104     6.855
 440   1 H      0.860     0.225     0.986     1.556
 441   1 H      0.923     0.077     2.008     2.216
 442   1 H      0.924     0.059     2.215     2.327
 443   1 H      0.805     0.320     0.664     1.280
 444   1 H      0.925     0.066     2.132     2.283
 445   1 H      0.925     0.069     2.095     2.263
 446   1 H      0.925     0.034     2.534     2.489
 447   7 N      2.692    -0.183    24.960     7.420
 448   6 C      3.796     0.032    20.038     6.374
 449   6 C      2.759     0.270    22.441     7.758
 450   8 O      0.859    -0.516    24.151     6.589
 451   6 C      3.811    -0.074    21.903     6.662
 452   6 C      3.850    -0.009    20.710     6.473
 453   6 C      3.757    -0.114    22.726     6.797
 454   6 C      3.755    -0.110    22.657     6.787
 455   1 H      0.860     0.215     1.033     1.592
 456   1 H      0.924     0.062     2.176     2.307
 457   1 H      0.924     0.065     2.141     2.288
 458   1 H      0.924     0.052     2.301     2.372
 459   1 H      0.924     0.037     2.491     2.468
 460   1 H      0.925     0.050     2.317     2.381
 461   1 H      0.925     0.044     2.391     2.418
 462   1 H      0.925     0.049     2.328     2.386
 463   1 H      0.925     0.046     2.371     2.408
 464   1 H      0.925     0.041     2.436     2.441
 465   1 H      0.925     0.019     2.753     2.595
 466   7 N      2.690    -0.186    25.031     7.431
 467   6 C      3.800     0.023    20.196     6.399
 468   6 C      2.760     0.288    22.112     7.701
 469   8 O      0.858    -0.500    23.773     6.537
 470   6 C      3.805    -0.084    22.107     6.693
 471   6 C      3.802    -0.084    22.096     6.692
 472   6 C      3.737    -0.024    21.081     6.552
 473   7 N      2.701    -0.138    23.993     7.275
 474   6 C      2.735     0.231    23.144     7.876
 475   7 N      2.648    -0.235    26.164     7.597
 476   7 N      2.656    -0.248    26.471     7.641
 477   1 H      0.860     0.231     0.961     1.535
 478   1 H      0.923     0.078     1.998     2.211
 479   1 H      0.924     0.080     1.982     2.201
 480   1 H      0.924     0.061     2.184     2.311
 481   1 H      0.924     0.058     2.221     2.331
 482   1 H      0.924     0.087     1.904     2.158
 483   1 H      0.924     0.076     2.025     2.225
 484   1 H      0.924     0.095     1.831     2.116
 485   1 H      0.860     0.246     0.901     1.487
 486   1 H      0.860     0.218     1.021     1.583
 487   1 H      0.860     0.240     0.924     1.506
 488   1 H      0.860     0.264     0.833     1.430
 489   1 H      0.860     0.252     0.876     1.466
 490   7 N      2.690    -0.186    25.042     7.432
 491   6 C      3.795     0.012    20.374     6.427
 492   6 C      2.759     0.283    22.203     7.716
[...]
   188  O   1.827        C  187 1.540    O  189 0.213
   189  O   1.860        C  187 1.445    O  188 0.213
   190  H   0.955        N  181 0.910
   191  H   0.995        C  182 0.949
   192  H   0.996        C  185 0.968
   193  H   0.998        C  185 0.974
   194  H   0.999        C  186 0.979
   195  H   0.998        C  186 0.973
   196  N   3.001        C  197 1.011    H  517 0.956    H  204 0.949
   197  C   3.982        N  196 1.011    C  198 0.974    H  205 0.957    C  200 0.951
   198  C   3.889        O  199 1.885    C  197 0.974    H  518 0.955
   199  O   2.022        C  198 1.885
   200  C   3.990        C  202 1.009    C  201 0.994    H  206 0.965    C  197 0.951
   201  C   3.996        C  203 1.017    C  200 0.994    H  208 0.973    H  207 0.971
   202  C   3.994        C  200 1.009    H  211 0.982    H  210 0.982    H  209 0.980
   203  C   3.993        C  201 1.017    H  213 0.987    H  212 0.983    H  214 0.982
   204  H   0.972        N  196 0.949
   205  H   0.998        C  197 0.957
   206  H   0.997        C  200 0.965
   207  H   0.998        C  201 0.971
   208  H   0.999        C  201 0.973
   209  H   0.996        C  202 0.980
   210  H   0.999        C  202 0.982
   211  H   0.998        C  202 0.982
   212  H   0.997        C  203 0.983
   213  H   0.998        C  203 0.987
   214  H   0.997        C  203 0.982
   215  N   2.995        C  216 1.004    H  223 0.958    H  519 0.946
   216  C   3.981        N  215 1.004    C  217 0.977    H  224 0.954    C  219 0.952
   217  C   3.892        O  218 1.904    C  216 0.977    H  520 0.954
   218  O   2.038        C  217 1.904
   219  C   3.993        C  221 1.008    C  220 0.995    H  225 0.966    C  216 0.952
   220  C   3.997        C  222 1.019    C  219 0.995    H  226 0.974    H  227 0.971
   221  C   3.995        C  219 1.008    H  228 0.984    H  229 0.982    H  230 0.979
   222  C   3.994        C  220 1.019    H  233 0.985    H  232 0.984    H  231 0.983
   223  H   0.976        N  215 0.958
   224  H   0.996        C  216 0.954
   225  H   0.998        C  219 0.966
   226  H   0.999        C  220 0.974
   227  H   0.998        C  220 0.971
   228  H   0.998        C  221 0.984
   229  H   0.999        C  221 0.982
   230  H   0.997        C  221 0.979
   231  H   0.999        C  222 0.983
   232  H   0.998        C  222 0.984
   233  H   0.999        C  222 0.985
   234  N   2.997        C  235 1.022    H  521 0.955    H  241 0.950
   235  C   3.986        N  234 1.022    H  242 0.960    C  238 0.960    C  236 0.933
   236  C   3.947        O  237 1.624    N  248 1.312    C  235 0.933
   237  O   1.936        C  236 1.624    N  248 0.197
   238  C   3.959        C  240 0.998    O  239 0.987    H  243 0.962    C  235 0.960
   239  O   1.940        C  238 0.987    H  244 0.877
   240  C   3.992        C  238 0.998    H  246 0.985    H  245 0.983    H  247 0.982
   241  H   0.971        N  234 0.950
   242  H   0.998        C  235 0.960
   243  H   1.000        C  238 0.962
   244  H   0.900        O  239 0.877
   245  H   0.997        C  240 0.983
   246  H   0.998        C  240 0.985
   247  H   0.996        C  240 0.982
   248  N   3.480        C  236 1.312    C  249 0.978    H  256 0.913    O  237 0.197
   249  C   3.959        N  248 0.978    C  250 0.975    C  252 0.963    H  257 0.932
   250  C   3.899        O  251 1.892    C  249 0.975    H  522 0.951
   251  O   2.036        C  250 1.892
   252  C   3.983        C  253 0.989    H  258 0.970    H  259 0.967    C  249 0.963
   253  C   3.994        C  255 1.011    C  254 1.005    C  252 0.989    H  260 0.965
   254  C   3.992        C  253 1.005    H  262 0.985    H  261 0.984    H  263 0.983
   255  C   3.993        C  253 1.011    H  265 0.981    H  264 0.980    H  266 0.977
   256  H   0.950        N  248 0.913
   257  H   0.990        C  249 0.932
   258  H   0.996        C  252 0.970
   259  H   0.995        C  252 0.967
   260  H   0.998        C  253 0.965
   261  H   0.996        C  254 0.984
   262  H   0.998        C  254 0.985
   263  H   0.997        C  254 0.983
   264  H   0.998        C  255 0.980
   265  H   0.998        C  255 0.981
   266  H   0.998        C  255 0.977
   267  N   2.999        C  268 1.026    H  275 0.958    H  523 0.947
   268  C   3.984        N  267 1.026    C  269 0.994    C  271 0.953    H  276 0.922
   269  C   3.897        O  270 1.875    C  268 0.994    H  524 0.954
   270  O   2.026        C  269 1.875
   271  C   3.991        C  272 0.994    H  277 0.974    H  278 0.972    C  268 0.953
   272  C   3.996        C  274 1.010    C  273 1.006    C  271 0.994    H  279 0.963
   273  C   3.994        C  272 1.006    H  282 0.985    H  281 0.984    H  280 0.977
   274  C   3.996        C  272 1.010    H  284 0.985    H  283 0.983    H  285 0.981
   275  H   0.977        N  267 0.958
   276  H   0.992        C  268 0.922
   277  H   0.998        C  271 0.974
   278  H   0.997        C  271 0.972
   279  H   0.999        C  272 0.963
   280  H   0.997        C  273 0.977
   281  H   0.998        C  273 0.984
   282  H   0.998        C  273 0.985
   283  H   0.998        C  274 0.983
   284  H   0.997        C  274 0.985
   285  H   0.998        C  274 0.981
   286  N   2.993        C  287 1.013    H  525 0.956    H  295 0.949
   287  C   3.982        N  286 1.013    C  290 0.973    H  296 0.961    C  288 0.940
   288  C   3.939        O  289 1.607    N  308 1.308    C  287 0.940
   289  O   1.960        C  288 1.607    N  308 0.192
   290  C   3.990        C  291 1.004    H  298 0.975    C  287 0.973    H  297 0.971
   291  C   3.993        C  290 1.004    C  292 1.003    H  299 0.976    H  300 0.971
   292  C   3.986        C  293 1.010    C  291 1.003    H  302 0.972    H  301 0.970
   293  C   3.914        C  292 1.010    H  304 0.965    H  303 0.965    N  294 0.957
   294  N   3.664        C  293 0.957    H  307 0.896    H  305 0.896    H  306 0.895
   295  H   0.970        N  286 0.949
   296  H   0.997        C  287 0.961
   297  H   0.997        C  290 0.971
   298  H   0.997        C  290 0.975
   299  H   0.997        C  291 0.976
   300  H   0.997        C  291 0.971
   301  H   0.994        C  292 0.970
   302  H   0.994        C  292 0.972
   303  H   0.986        C  293 0.965
   304  H   0.987        C  293 0.965
   305  H   0.909        N  294 0.896
   306  H   0.911        N  294 0.895
   307  H   0.911        N  294 0.896
   308  N   3.475        C  288 1.308    C  309 0.979    H  316 0.914    O  289 0.192
   309  C   3.962        N  308 0.979    C  312 0.966    H  317 0.942    C  310 0.935
   310  C   3.942        O  311 1.624    N  327 1.295    C  309 0.935
   311  O   1.973        C  310 1.624    N  327 0.192
   312  C   3.987        C  314 1.009    C  313 0.992    C  309 0.966    H  318 0.963
   313  C   3.992        C  315 1.020    C  312 0.992    H  319 0.974    H  320 0.971
   314  C   3.992        C  312 1.009    H  322 0.984    H  323 0.984    H  321 0.980
   315  C   3.994        C  313 1.020    H  325 0.987    H  324 0.985    H  326 0.981
   316  H   0.952        N  308 0.914
   317  H   0.992        C  309 0.942
   318  H   0.998        C  312 0.963
   319  H   0.996        C  313 0.974
   320  H   0.997        C  313 0.971
   321  H   0.996        C  314 0.980
   322  H   0.999        C  314 0.984
   323  H   0.997        C  314 0.984
   324  H   0.997        C  315 0.985
   325  H   0.998        C  315 0.987
   326  H   0.999        C  315 0.981
   327  N   3.464        C  310 1.295    C  328 0.980    H  335 0.921    O  311 0.192
   328  C   3.968        C  331 0.983    N  327 0.980    H  336 0.946    C  329 0.937
   329  C   3.947        O  330 1.605    N  339 1.308    C  328 0.937
   330  O   1.967        C  329 1.605    N  339 0.191
   331  C   3.979        C  328 0.983    H  337 0.973    H  338 0.962    C  332 0.902
   332  C   3.939        O  333 1.544    O  334 1.461    C  331 0.902
   333  O   1.844        C  332 1.544    O  334 0.217
   334  O   1.854        C  332 1.461    O  333 0.217
   335  H   0.956        N  327 0.921
   336  H   0.994        C  328 0.946
   337  H   0.998        C  331 0.973
   338  H   0.998        C  331 0.962
   339  N   3.469        C  329 1.308    C  340 0.971    H  344 0.920    O  330 0.191
   340  C   3.961        C  343 0.995    N  339 0.971    H  345 0.953    C  341 0.935
   341  C   3.950        O  342 1.588    N  349 1.343    C  340 0.935
   342  O   1.948        C  341 1.588    N  349 0.199
   343  C   3.979        C  340 0.995    H  346 0.981    H  347 0.978    H  348 0.975
   344  H   0.956        N  339 0.920
   345  H   0.995        C  340 0.953
   346  H   0.994        C  343 0.981
   347  H   0.994        C  343 0.978
   348  H   0.993        C  343 0.975
   349  N   3.489        C  341 1.343    C  350 0.974    H  354 0.879    O  342 0.199
   350  C   3.963        C  353 0.993    N  349 0.974    H  355 0.952    C  351 0.939
   351  C   3.946        O  352 1.605    N  359 1.317    C  350 0.939
   352  O   1.958        C  351 1.605    N  359 0.194
   353  C   3.980        C  350 0.993    H  357 0.977    H  356 0.974    H  358 0.973
   354  H   0.941        N  349 0.879
   355  H   0.995        C  350 0.952
   356  H   0.994        C  353 0.974
   357  H   0.993        C  353 0.977
   358  H   0.994        C  353 0.973
   359  N   3.478        C  351 1.317    C  360 0.983    H  367 0.894    O  352 0.194
   360  C   3.965        N  359 0.983    C  363 0.979    H  368 0.942    C  361 0.937
   361  C   3.938        O  362 1.590    N  378 1.323    C  360 0.937
   362  O   1.962        C  361 1.590    N  378 0.192
   363  C   3.984        C  364 0.992    C  360 0.979    H  370 0.972    H  369 0.967
   364  C   3.992        C  366 1.010    C  365 1.007    C  363 0.992    H  371 0.962
   365  C   3.993        C  364 1.007    H  373 0.982    H  372 0.982    H  374 0.981
   366  C   3.995        C  364 1.010    H  376 0.985    H  377 0.981    H  375 0.978
   367  H   0.947        N  359 0.894
   368  H   0.993        C  360 0.942
   369  H   0.996        C  363 0.967
   370  H   0.997        C  363 0.972
   371  H   0.997        C  364 0.962
   372  H   0.996        C  365 0.982
   373  H   0.997        C  365 0.982
   374  H   0.998        C  365 0.981
   375  H   0.997        C  366 0.978
   376  H   0.999        C  366 0.985
   377  H   0.999        C  366 0.981
   378  N   3.469        C  361 1.323    C  379 0.981    H  383 0.876    O  362 0.192
   379  C   3.971        C  382 0.996    N  378 0.981    H  384 0.955    C  380 0.935
   380  C   3.944        O  381 1.597    N  388 1.323    C  379 0.935
   381  O   1.942        C  380 1.597    N  388 0.193
   382  C   3.983        C  379 0.996    H  385 0.983    H  386 0.980    H  387 0.973
   383  H   0.942        N  378 0.876
   384  H   0.997        C  379 0.955
   385  H   0.996        C  382 0.983
   386  H   0.994        C  382 0.980
   387  H   0.994        C  382 0.973
   388  N   3.474        C  380 1.323    C  389 0.974    H  397 0.890    O  381 0.193
   389  C   3.963        C  392 0.985    N  388 0.974    H  398 0.954    C  390 0.931
   390  C   3.946        O  391 1.608    N  405 1.327    C  389 0.931
   391  O   1.959        C  390 1.608    N  405 0.197
   392  C   3.983        C  393 1.006    C  389 0.985    H  400 0.973    H  399 0.957
   393  C   3.993        C  392 1.006    C  394 0.968    H  401 0.957    H  402 0.950
   394  C   3.947        O  395 1.649    N  396 1.298    C  393 0.968
   395  O   1.966        C  394 1.649    N  396 0.197
   396  N   3.389        C  394 1.298    H  403 0.934    H  404 0.925    O  395 0.197
   397  H   0.946        N  388 0.890
   398  H   0.996        C  389 0.954
   399  H   0.992        C  392 0.957
   400  H   0.996        C  392 0.973
   401  H   0.995        C  393 0.957
   402  H   0.993        C  393 0.950
   403  H   0.952        N  396 0.934
   404  H   0.947        N  396 0.925
   405  N   3.475        C  390 1.327    C  406 0.973    H  412 0.891    O  391 0.197
   406  C   3.956        N  405 0.973    C  409 0.962    H  413 0.952    C  407 0.941
   407  C   3.941        O  408 1.581    N  421 1.323    C  406 0.941
   408  O   1.937        C  407 1.581    N  421 0.186
   409  C   3.982        C  411 1.007    C  410 1.006    C  406 0.962    H  414 0.958
   410  C   3.992        C  409 1.006    H  416 0.985    H  415 0.982    H  417 0.980
   411  C   3.989        C  409 1.007    H  419 0.983    H  418 0.980    H  420 0.978
   412  H   0.946        N  405 0.891
   413  H   0.995        C  406 0.952
   414  H   0.998        C  409 0.958
   415  H   0.994        C  410 0.982
   416  H   0.999        C  410 0.985
   417  H   0.998        C  410 0.980
   418  H   0.995        C  411 0.980
   419  H   0.997        C  411 0.983
   420  H   0.997        C  411 0.978
   421  N   3.478        C  407 1.323    C  422 0.984    H  429 0.886    O  408 0.186
   422  C   3.966        N  421 0.984    C  425 0.980    C  423 0.943    H  430 0.939
   423  C   3.941        O  424 1.595    N  433 1.304    C  422 0.943
   424  O   1.934        C  423 1.595    N  433 0.188
   425  C   3.967        C  422 0.980    H  431 0.975    H  432 0.965    C  426 0.884
   426  C   3.944        O  427 1.525    O  428 1.510    C  425 0.884
   427  O   1.823        C  426 1.525    O  428 0.223
   428  O   1.821        C  426 1.510    O  427 0.223
   429  H   0.949        N  421 0.886
   430  H   0.993        C  422 0.939
   431  H   1.000        C  425 0.975
   432  H   0.999        C  425 0.965
   433  N   3.473        C  423 1.304    C  434 0.993    H  440 0.890    O  424 0.188
   434  C   3.966        N  433 0.993    C  437 0.951    H  441 0.942    C  435 0.935
   435  C   3.945        O  436 1.619    N  447 1.305    C  434 0.935
   436  O   1.946        C  435 1.619    N  447 0.192
   437  C   3.953        C  439 1.001    O  438 0.999    H  442 0.959    C  434 0.951
   438  O   1.951        C  437 0.999    H  443 0.874
   439  C   3.990        C  437 1.001    H  444 0.984    H  446 0.983    H  445 0.969
   440  H   0.949        N  433 0.890
   441  H   0.994        C  434 0.942
   442  H   0.996        C  437 0.959
   443  H   0.898        O  438 0.874
   444  H   0.996        C  439 0.984
   445  H   0.995        C  439 0.969
   446  H   0.999        C  439 0.983
   447  N   3.470        C  435 1.305    C  448 0.976    H  455 0.905    O  436 0.192
   448  C   3.959        N  447 0.976    C  451 0.975    H  456 0.950    C  449 0.935
   449  C   3.946        O  450 1.600    N  466 1.326    C  448 0.935
   450  O   1.942        C  449 1.600    N  466 0.197
   451  C   3.985        C  452 0.992    C  448 0.975    H  458 0.973    H  457 0.968
   452  C   3.991        C  454 1.010    C  453 1.005    C  451 0.992    H  459 0.963
   453  C   3.994        C  452 1.005    H  460 0.985    H  462 0.985    H  461 0.985
   454  C   3.995        C  452 1.010    H  464 0.986    H  463 0.985    H  465 0.984
   455  H   0.954        N  447 0.905
   456  H   0.996        C  448 0.950
   457  H   0.996        C  451 0.968
   458  H   0.997        C  451 0.973
   459  H   0.999        C  452 0.963
   460  H   0.997        C  453 0.985
   461  H   0.998        C  453 0.985
   462  H   0.997        C  453 0.985
   463  H   0.998        C  454 0.985
   464  H   0.998        C  454 0.986
   465  H   1.000        C  454 0.984
   466  N   3.471        C  449 1.326    C  467 0.973    H  477 0.882    O  450 0.197
   467  C   3.956        C  470 0.978    N  466 0.973    H  478 0.951    C  468 0.936
   468  C   3.941        O  469 1.629    N  490 1.294    C  467 0.936
   469  O   1.945        C  468 1.629    N  490 0.191
   470  C   3.981        C  471 1.004    C  467 0.978    H  479 0.969    H  480 0.965
   471  C   3.987        C  472 1.005    C  470 1.004    H  481 0.969    H  482 0.968
   472  C   3.962        C  471 1.005    N  473 0.992    H  483 0.958    H  484 0.956
   473  N   3.472        C  474 1.320    C  472 0.992    H  485 0.905    N  476 0.105
   474  C   3.977        N  476 1.322    N  473 1.320    N  475 1.301
   475  N   3.375        C  474 1.301    H  486 0.920    H  487 0.918
   476  N   3.390        C  474 1.322    H  489 0.914    H  488 0.909    N  473 0.105
   477  H   0.946        N  466 0.882
   478  H   0.993        C  467 0.951
   479  H   0.993        C  470 0.969
   480  H   0.996        C  470 0.965
   481  H   0.996        C  471 0.969
   482  H   0.992        C  471 0.968
   483  H   0.994        C  472 0.958
   484  H   0.991        C  472 0.956
   485  H   0.940        N  473 0.905
   486  H   0.953        N  475 0.920
   487  H   0.942        N  475 0.918
   488  H   0.931        N  476 0.909
   489  H   0.936        N  476 0.914
   490  N   3.459        C  468 1.294    C  491 0.991    H  496 0.896    O  469 0.191
   491  C   3.973        N  490 0.991    C  494 0.961    H  497 0.948    C  492 0.940
   492  C   3.945        O  493 1.621    N  501 1.303    C  491 0.940
   493  O   1.944        C  492 1.621    N  501 0.196
   494  C   3.949        O  495 1.010    H  498 0.969    H  499 0.963    C  491 0.961
   495  O   1.974        C  494 1.010    H  500 0.890
   496  H   0.950        N  490 0.896
   497  H   0.992        C  491 0.948
   498  H   0.997        C  494 0.969
   499  H   0.991        C  494 0.963
   500  H   0.910        O  495 0.890
   501  N   3.481        C  492 1.303    C  502 0.974    H  509 0.918    O  493 0.196
   502  C   3.967        C  503 0.980    N  501 0.974    C  505 0.969    H  510 0.949
   503  C   3.911        O  504 1.867    C  502 0.980    H  526 0.955
   504  O   2.017        C  503 1.867
   505  C   3.975        H  511 0.972    C  502 0.969    H  512 0.965    C  506 0.880
   506  C   3.938        O  507 1.516    O  508 1.512    C  505 0.880
   507  O   1.821        C  506 1.516    O  508 0.220
   508  O   1.820        C  506 1.512    O  507 0.220
   509  H   0.963        N  501 0.918
   510  H   0.995        C  502 0.949
   511  H   0.998        C  505 0.972
   512  H   0.998        C  505 0.965
   513  H   0.969        N    1 0.957
   514  H   0.991        C    3 0.950
   515  H   0.967        N   20 0.956
   516  H   0.995        C  183 0.955
   517  H   0.967        N  196 0.956
   518  H   0.995        C  198 0.955
   519  H   0.967        N  215 0.946
   520  H   0.994        C  217 0.954
   521  H   0.965        N  234 0.955
   522  H   0.994        C  250 0.951
   523  H   0.967        N  267 0.947
   524  H   0.995        C  269 0.954
   525  H   0.968        N  286 0.956
   526  H   0.995        C  503 0.955
 
molecular dipole:
                 x           y           z       tot (Debye)
 q only:       43.734       9.822     -20.454
   full:       43.401       7.105     -19.920     122.718
molecular quadrupole (traceless):
                xx          xy          yy          xz          yz          zz
 q only:    26843.499   11240.778   -5230.481    4865.210     336.376  -21613.018
  q+dip:    26853.804   10048.616   -5916.604    5029.697    -351.794  -20937.200
   full:    26854.634   10047.868   -5909.090    5030.992    -352.034  -20945.544


           -------------------------------------------------
          | TOTAL ENERGY             -796.823269290890 Eh   |
          | GRADIENT NORM               0.590394542921 Eh/α |
          | HOMO-LUMO GAP               1.787289233557 eV   |
           -------------------------------------------------

------------------------------------------------------------------------
 * finished run on 2019/05/31 at 05:35:14.006     
------------------------------------------------------------------------
 total:
 * wall-time:     0 d,  0 h,  0 min, 13.023 sec
 *  cpu-time:     0 d,  0 h,  0 min, 25.422 sec
 * ratio c/w:     1.952 speedup
 SCF:
 * wall-time:     0 d,  0 h,  0 min, 12.212 sec
 *  cpu-time:     0 d,  0 h,  0 min, 24.216 sec
 * ratio c/w:     1.983 speedup

