      -----------------------------------------------------------      
     |                   =====================                   |     
     |                           x T B                           |     
     |                   =====================                   |     
     |                         S. Grimme                         |     
     |          Mulliken Center for Theoretical Chemistry        |     
     |                    University of Bonn                     |     
     |                Version 6.1 RC1 (SAW190329)                |     
      -----------------------------------------------------------      

   This program is distributed in the hope that it will be useful,
   but WITHOUT ANY WARRANTY; without even the implied warranty of
   MERCHANTABILITY or FITNESS FOR A PARTICULAR PURPOSE.
   
   FOR NON-COMMERCIAL, ACADEMIA USE ONLY.
   
   Cite this work as:
   S. Grimme, C. Bannwarth, P. Shushkov, J. Comput. Theory Chem., 2017,
   13, 1989-2009. DOI: 10.1021/acs.jctc.7b00118
   C. Bannwarth, S. Ehlert and S. Grimme., J. Comput. Theory Chem., 2019,
   just accepted. DOI: 10.1021/acs.jctc.8b01176
   
   for sTDA-xTB:
   S. Grimme and C. Bannwarth, J. Chem. Phys., 2016, 145, 054103.
   DOI: 10.1063/1.4959605
   
   in the mass-spec context:
   V. Asgeirsson, C. Bauer and S. Grimme, Chem. Sci., 2017, 8, 4879.
   DOI: 10.1039/c7sc00601b
   
   for metadynamics refer to:
   S. Grimme, ChemRxiv, Preprint. DOI: 10.26434/chemrxiv.7660532.v1
   
   with help from (in alphabetical order)
   C. Bannwarth, F. Bohle, G. Brandenburg, E. Caldeweyher, M. Checinski,
   S. Dohm, S. Ehlert, S. Ehrlich, F. März, H. Neugebauer, J. Pisarek,
   P. Pracht, P. Shushkov, and S. Spicher.
   
 * started run on 2019/05/31 at 06:32:56.875     

           -------------------------------------------------
          |                Calculation Setup                |
           -------------------------------------------------

          program call               : /home/lum/qr/xtb-190329/bin/xtb xtb_tmp.xyz --chrg 1 --grad --gfn 2 --etemp 500 --acc 0.1 --gbsa h2o --parallel 2
          hostname                   : cu39
          coordinate file            : xtb_tmp.xyz
          omp threads                :                     2
          number of atoms            :                   584
          number of electrons        :                  1594
          charge                     :                     1
          spin                       :                   0.0
          first test random number   :      0.41437533647842


molecular fragmentation (1/2 indicates fragments):
111111111111111111111111111111111111111111111111111111111111111111111111
111111111111111111111111111222222222222222222222222222222222222222222222
222222222222222222222222222222222222222222222222222222222222222222222222
222222222222222222222222222222222222222222222222222222222222222222222222
222222222222222222222222222222222222222222222222222222222222222222222222
222222222222222222222222222222222222222222222222222222222222222222222222
222222222222222222222222222222222222222222222222222222222222222222222222
222222222222222222222222222222222222222222222222222222222222222222221122
22222222
# atoms in fragment 1/2:   101   483
 fragment masses (1/2) :      662.83     3377.86
CMA distance (Bohr)    :  18.586
constraining FC (au)   :  0.0500

########################################################################
# WARNING! Please study the warnings concerning your input carefully
#  - XTBPATH is not set, using XTBHOME instead
#  - Process number higher than OMP_NUM_THREADS, I hope you know what you are doing.
########################################################################

           ------------------------------------------------- 
          |                 G F N 2 - x T B                 |
          | Geometry, Frequencies, Noncovalent interactions |
          |            JCTC 2018 parametrisation            |
           ------------------------------------------------- 
 
             k(s)              :                1.8500
             k(p)              :                2.2300
             k(d)              :                2.2300
             k(f)              :                2.0000
             kEN (H0ij)        :               -2.0000
             D4 a1             :                0.5200
             D4 a2             :                5.0000
             D4 s6             :                1.0000
             D4 s8             :                2.7000
             D4 s9             :                5.0000
             alphaj            :                2.0000

  Z AO/shell   Hii/eV     exponent
  1     Wed Apr 25 08:07:45 CEST 2018   EN: 2.200 GM2: 0.406  GM3: 0.0800  RAES: 1.40
     1s    -10.707211    1.230000
  6     Wed Apr 25 08:07:45 CEST 2018   EN: 2.550 GM2: 0.538  GM3: 0.1500  RAES: 3.00
     2s    -13.970922    2.096432
     2p    -10.063292    1.800000
  7     Wed Apr 25 08:07:45 CEST 2018   EN: 3.040 GM2: 0.461  GM3:-0.0640  RAES: 1.90
     2s    -16.686243    2.339881
     2p    -12.523956    2.014332
  8     Wed Apr 25 08:07:45 CEST 2018   EN: 3.440 GM2: 0.452  GM3:-0.0517  RAES: 1.80
     2s    -20.229985    2.439742
     2p    -15.503117    2.137023

 Solvent             : h2o
 Using internal parameter file: .param_gbsa2_h2o
 Gsolv ref. state (COSMO-RS): gsolv [1 M gas/solution]
 temperature (mdtemp)       :    298.150000000000     
 dielectric constant        :    80.2000000000000     
 rho                        :    1.00000000000000     
 mass                       :    18.0000000000000     
 surface tension            :    15.5689454083859     
 probe radius               :   0.975313790000000     
 vdW radii scaling          :    1.00000000000000     
 Gshift (Eh)                :   1.857443126794793E-003
 c1                         :    1.55243817000000     
 soset                      :   0.130326360000000     
 HB correction              :  T
 Number of grid points      :          230

            Z     q(EN)     CN     RAES       Cart. coordinates
     1  N   5.0   -0.70    3.00    1.93    96.11291    81.55495    96.89051
     2  C   4.0    0.07    3.98    3.59    96.42910    84.27831    96.87905
     3  C   4.0    0.27    3.01    3.02    98.63167    84.91720    95.11116
     4  O   6.0   -0.46    1.00    1.80   100.54239    83.58420    95.11216
     5  C   4.0   -0.11    3.98    3.59    96.76840    85.33686    99.56886
     6  C   4.0    0.28    2.99    3.02    98.73568    84.09552   101.25921
     7  O   6.0   -0.47    1.00    1.80    98.64469    84.37625   103.56065
     8  N   5.0   -0.65    3.00    1.93   100.52222    82.69177   100.16508
     9  H   1.0    0.29    1.00    1.43    97.68985    80.48881    97.02816
    10  H   1.0    0.11    0.99    1.43    94.68002    85.07478    96.11391
    11  H   1.0    0.11    0.99    1.43    97.21527    87.34904    99.45335
    12  H   1.0    0.11    0.99    1.43    94.96761    85.17896   100.57438
    13  H   1.0    0.28    1.00    1.43   101.85964    81.92011   101.27774
    14  H   1.0    0.32    1.00    1.43   100.82707    82.72359    98.26044
    15  N   5.0   -0.50    3.01    1.93    98.33047    86.87918    93.58062
    16  C   4.0    0.07    4.00    3.61   100.25310    87.56008    91.73091
    17  C   4.0    0.28    3.01    3.02   100.75099    90.40285    92.02385
    18  O   6.0   -0.45    1.00    1.80    99.31804    92.02477    91.22553
    19  C   4.0   -0.14    3.98    3.58    99.37374    86.83102    89.06096
    20  C   4.0   -0.14    3.98    3.58    99.27618    83.93901    88.75713
    21  C   4.0   -0.04    3.98    3.59    97.00119    82.95878    87.24418
    22  N   5.0   -0.48    3.02    1.93    97.44250    82.91442    84.54350
    23  C   4.0    0.37    3.00    3.02    98.20022    80.92880    83.18136
    24  N   5.0   -0.64    3.02    1.93    98.54690    81.28308    80.69932
    25  N   5.0   -0.63    3.01    1.93    98.47381    78.63504    84.13568
    26  H   1.0    0.29    1.00    1.43    96.77176    88.00933    93.67310
    27  H   1.0    0.14    0.99    1.43   101.95219    86.48263    92.21348
    28  H   1.0    0.12    0.99    1.43    97.51419    87.66695    88.76340
    29  H   1.0    0.11    0.99    1.43   100.69199    87.67556    87.72456
    30  H   1.0    0.13    0.99    1.43   101.01409    83.25828    87.88532
    31  H   1.0    0.14    0.99    1.43    99.17993    83.06603    90.61768
    32  H   1.0    0.12    0.99    1.43    96.54515    81.05204    87.88248
    33  H   1.0    0.11    0.99    1.43    95.36727    84.17154    87.59198
    34  H   1.0    0.23    1.00    1.43    97.51937    84.63156    83.70614
    35  H   1.0    0.26    1.00    1.43    98.46198    83.02565    79.93666
    36  H   1.0    0.27    1.00    1.43    99.20383    79.86892    79.60803
    37  H   1.0    0.26    1.00    1.43    98.17024    78.15549    85.98281
    38  H   1.0    0.27    1.00    1.43    98.95686    77.19585    82.98648
    39  N   5.0   -0.47    3.01    1.93   102.83429    90.96188    93.35403
    40  C   4.0    0.08    4.00    3.62   103.63949    93.55666    93.66363
    41  C   4.0    0.27    3.01    3.02   104.50676    94.62809    91.11448
    42  O   6.0   -0.40    1.00    1.80   105.53493    93.31530    89.52502
    43  C   4.0   -0.13    3.99    3.60   105.81691    93.73952    95.57652
    44  C   4.0   -0.03    3.03    3.02   104.82188    93.25076    98.19470
    45  C   4.0   -0.09    3.03    3.02   103.75793    95.22035    99.56774
    46  C   4.0   -0.08    3.03    3.02   104.81846    90.83712    99.22368
    47  C   4.0   -0.08    3.03    3.02   102.64513    94.77595   101.88900
    48  C   4.0   -0.09    3.03    3.02   103.71447    90.39332   101.55349
    49  C   4.0   -0.08    3.03    3.02   102.59558    92.35329   102.87443
    50  H   1.0    0.24    1.00    1.43   104.09098    89.60441    93.81548
    51  H   1.0    0.12    0.99    1.43   102.02776    94.67036    94.32567
    52  H   1.0    0.12    0.99    1.43   107.27885    92.38308    95.05790
    53  H   1.0    0.11    0.99    1.43   106.61144    95.63952    95.46864
    54  H   1.0    0.13    0.99    1.43   103.78086    97.12129    98.82219
    55  H   1.0    0.12    1.00    1.43   105.67835    89.29545    98.20560
    56  H   1.0    0.13    1.00    1.43   101.80686    96.32731   102.91709
    57  H   1.0    0.13    1.00    1.43   103.69922    88.51292   102.34300
    58  H   1.0    0.14    1.00    1.43   101.73121    92.02157   104.68514
    59  N   5.0   -0.50    3.01    1.93   104.08785    97.11024    90.85087
    60  C   4.0    0.07    3.99    3.61   105.14505    98.62881    88.84483
    61  C   4.0    0.26    3.02    3.02   106.23013   100.99274    90.10385
    62  O   6.0   -0.40    1.00    1.80   105.19488   101.97146    91.92252
    63  C   4.0   -0.07    3.98    3.59   103.11624    99.48702    86.90929
    64  C   4.0   -0.14    3.98    3.59   101.82257    97.19397    85.69456
    65  C   4.0   -0.22    3.98    3.59   104.30143   101.17515    84.88682
    66  C   4.0   -0.23    3.98    3.58    99.36512    97.91026    84.37006
    67  H   1.0    0.26    1.00    1.43   103.25845    98.13834    92.23412
    68  H   1.0    0.13    0.99    1.43   106.59194    97.50097    87.89121
    69  H   1.0    0.15    0.99    1.43   101.70602   100.58312    87.96016
    70  H   1.0    0.12    0.99    1.43   103.12155    96.32938    84.34480
    71  H   1.0    0.15    0.99    1.43   101.39766    95.80293    87.15646
    72  H   1.0    0.11    0.99    1.43   102.90832   101.62005    83.44649
    73  H   1.0    0.13    0.99    1.43   104.94642   102.95726    85.68126
    74  H   1.0    0.11    0.99    1.43   105.88393   100.22246    83.98447
    75  H   1.0    0.10    0.99    1.43    98.43315    96.23568    83.63397
    76  H   1.0    0.11    0.99    1.43    98.09935    98.85516    85.68968
    77  H   1.0    0.11    0.99    1.43    99.70480    99.19159    82.80132
    78  N   5.0   -0.48    3.01    1.93   108.34625   101.90703    89.05806
    79  C   4.0    0.06    3.99    3.60   109.18100   104.48344    89.41963
    80  C   4.0    0.04    3.00    3.02   110.93713   105.08218    87.20814
    81  O   6.0   -0.41    1.00    1.80   112.00724   103.40626    86.03284
    82  C   4.0   -0.13    3.98    3.58   110.48074   104.93628    91.98859
    83  C   4.0   -0.15    3.98    3.58   113.17669   103.88288    92.22626
    84  C   4.0   -0.16    3.98    3.58   114.96931   105.83581    93.39713
    85  C   4.0   -0.05    3.98    3.58   115.58952   107.90983    91.48591
    86  N   5.0   -0.72    3.98    2.81   116.56174   110.24271    92.70227
    87  H   1.0    0.26    1.00    1.43   109.20429   101.00241    87.60566
    88  H   1.0    0.12    0.99    1.43   107.50963   105.71437    89.35688
    89  H   1.0    0.09    0.99    1.43   110.47295   106.97126    92.30399
    90  H   1.0    0.14    0.99    1.43   109.25299   104.09283    93.41182
    91  H   1.0    0.11    0.99    1.43   113.15313   102.19182    93.39970
    92  H   1.0    0.14    0.99    1.43   113.89026   103.32911    90.37569
    93  H   1.0    0.11    0.99    1.43   114.05284   106.64083    95.05931
    94  H   1.0    0.11    0.99    1.43   116.69565   104.89371    94.00103
    95  H   1.0    0.12    0.99    1.43   116.99695   107.23673    90.14230
    96  H   1.0    0.11    0.99    1.43   113.89518   108.42305    90.43417
    97  H   1.0    0.24    0.99    1.43   116.61466   111.71409    91.38335
    98  H   1.0    0.24    1.00    1.43   115.38149   110.80449    94.13847
    99  H   1.0    0.24    1.00    1.43   118.36182   110.00155    93.42954
   100  N   5.0   -0.65    3.00    1.93   101.55119   114.03066    93.77520
   101  C   4.0    0.08    3.98    3.59   102.29368   111.41787    93.99980
   102  C   4.0    0.30    3.01    3.02   100.17686   109.80032    95.12541
   103  O   6.0   -0.36    1.00    1.80    99.15998   110.33388    97.12995
   104  C   4.0   -0.10    3.98    3.59   104.56360   111.26825    95.79914
   105  C   4.0    0.34    2.99    3.02   104.01586   112.42494    98.47408
   106  O   6.0   -0.38    1.00    1.80   103.12483   114.60531    98.55900
   107  O   6.0   -0.40    1.00    1.80   104.64371   111.10693   100.31756
   108  H   1.0    0.34    1.00    1.43   101.46719   114.88047    95.50623
   109  H   1.0    0.11    0.99    1.43   102.77099   110.73346    92.09839
   110  H   1.0    0.12    0.99    1.43   105.15609   109.31059    96.04487
   111  H   1.0    0.11    0.99    1.43   106.10111   112.36890    94.97154
   112  N   5.0   -0.48    3.01    1.93    99.71155   107.61576    93.90634
   113  C   4.0    0.08    3.99    3.61    97.62724   105.97876    94.61429
   114  C   4.0    0.26    3.00    3.02    98.01311   103.35776    93.44189
   115  O   6.0   -0.41    1.00    1.80    99.39683   102.99440    91.62925
   116  C   4.0   -0.13    3.98    3.58    95.08414   107.14309    93.81899
   117  C   4.0   -0.10    3.97    3.58    95.04552   107.86419    91.03125
   118  C   4.0    0.32    2.99    3.02    96.00144   110.61924    90.49693
   119  O   6.0   -0.36    1.00    1.80    95.85094   112.19769    92.23426
   120  O   6.0   -0.37    1.00    1.80    96.75816   111.01119    88.29547
   121  H   1.0    0.26    1.00    1.43   100.46107   107.29703    92.18108
   122  H   1.0    0.13    0.99    1.43    97.66267   105.81124    96.68238
   123  H   1.0    0.11    0.99    1.43    93.56495   105.82078    94.26808
   124  H   1.0    0.15    0.99    1.43    94.82117   108.87349    94.92304
   125  H   1.0    0.14    0.99    1.43    96.19081   106.59289    89.87956
   126  H   1.0    0.11    0.99    1.43    93.11783   107.80882    90.29607
   127  N   5.0   -0.48    3.01    1.93    96.66892   101.53243    94.57256
   128  C   4.0    0.08    3.99    3.60    96.98262    98.84520    94.15750
   129  C   4.0    0.27    3.01    3.02    94.44322    97.62725    93.47445
   130  O   6.0   -0.42    1.00    1.80    92.44955    98.74536    93.82467
   131  C   4.0   -0.12    3.99    3.60    98.03277    97.63555    96.60241
   132  C   4.0   -0.01    3.03    3.02    96.21050    97.92706    98.76459
   133  C   4.0   -0.07    3.03    3.02    96.20350   100.12633   100.20333
   134  C   4.0   -0.08    3.03    3.02    94.48532    96.03552    99.33860
   135  C   4.0   -0.07    3.03    3.02    94.48332   100.44594   102.14789
   136  C   4.0   -0.10    3.03    3.02    92.77279    96.35337   101.28870
   137  C   4.0   -0.09    3.03    3.02    92.75733    98.55905   102.69503
   138  H   1.0    0.25    1.00    1.43    95.46914   101.98861    95.98761
   139  H   1.0    0.13    0.99    1.43    98.31934    98.62175    92.59596
   140  H   1.0    0.11    0.99    1.43    98.39402    95.63647    96.26088
   141  H   1.0    0.13    0.99    1.43    99.79788    98.58925    97.07961
   142  H   1.0    0.15    0.99    1.43    97.59345   101.57551    99.82644
   143  H   1.0    0.13    0.99    1.43    94.49320    94.30507    98.25357
   144  H   1.0    0.14    0.99    1.43    94.48494   102.18324   103.22100
   145  H   1.0    0.10    1.00    1.43    91.44091    94.87001   101.71691
   146  H   1.0    0.12    1.00    1.43    91.43500    98.79990   104.23055
   147  N   5.0   -0.50    3.01    1.93    94.56896    95.27193    92.54239
   148  C   4.0    0.08    4.00    3.62    92.28264    93.90559    91.92841
   149  C   4.0    0.26    3.01    3.02    92.21433    91.38973    93.32961
   150  O   6.0   -0.46    1.00    1.80    94.14048    90.30433    94.04229
   151  C   4.0   -0.08    3.98    3.58    91.94662    93.55081    89.03960
   152  C   4.0   -0.20    3.98    3.59    92.44055    96.06197    87.70360
   153  C   4.0   -0.21    3.98    3.59    93.66474    91.49048    87.97640
   154  H   1.0    0.28    1.00    1.43    96.23014    94.35662    92.28952
   155  H   1.0    0.13    0.99    1.43    90.72928    95.08999    92.61403
   156  H   1.0    0.12    0.99    1.43    89.96617    93.02617    88.75020
   157  H   1.0    0.10    0.99    1.43    91.86243    95.94221    85.73880
   158  H   1.0    0.13    0.99    1.43    91.38770    97.57367    88.60862
   159  H   1.0    0.12    0.99    1.43    94.43804    96.53533    87.77403
   160  H   1.0    0.10    0.99    1.43    93.60547    91.55734    85.92548
   161  H   1.0    0.14    0.99    1.43    95.60150    91.78854    88.59728
   162  H   1.0    0.12    0.99    1.43    93.03318    89.63665    88.60208
   163  N   5.0   -0.48    3.01    1.93    89.90006    90.44678    93.70602
   164  C   4.0    0.07    3.99    3.61    89.49978    88.01120    94.87185
   165  C   4.0    0.05    3.00    3.02    87.63869    86.50406    93.26792
   166  O   6.0   -0.40    1.00    1.80    85.99965    87.48872    91.96716
   167  C   4.0   -0.08    3.98    3.58    88.58713    88.17699    97.64169
   168  C   4.0   -0.21    3.98    3.59    90.46165    89.70807    99.21080
   169  C   4.0   -0.20    3.98    3.59    85.94008    89.30581    97.82569
   170  H   1.0    0.25    1.00    1.43    88.31563    91.31647    93.07423
   171  H   1.0    0.12    0.99    1.43    91.32535    87.03565    94.86079
   172  H   1.0    0.11    0.99    1.43    88.55314    86.23857    98.36972
   173  H   1.0    0.11    0.99    1.43    90.00665    89.53225   101.20717
   174  H   1.0    0.11    0.99    1.43    92.37989    89.02528    98.92969
   175  H   1.0    0.12    0.99    1.43    90.37878    91.68978    98.67536
   176  H   1.0    0.10    0.99    1.43    85.38118    89.45272    99.79618
   177  H   1.0    0.12    0.99    1.43    85.88832    91.17557    96.98000
   178  H   1.0    0.13    0.99    1.43    84.57337    88.12517    96.84571
   179  N   5.0   -0.68    3.00    1.93    82.40508    96.30612    91.69095
   180  C   4.0    0.10    3.99    3.60    84.29635    97.94007    92.79000
   181  C   4.0    0.27    3.01    3.02    83.18856    99.18262    95.15335
   182  O   6.0   -0.42    1.00    1.80    80.90535    99.40011    95.47113
   183  C   4.0    0.03    3.98    3.58    85.18910    99.83942    90.76247
   184  O   6.0   -0.50    1.99    1.83    86.19573    98.33066    88.80621
   185  C   4.0   -0.21    3.98    3.58    87.12977   101.73893    91.73594
   186  H   1.0    0.28    1.00    1.43    80.89048    97.14516    90.89624
   187  H   1.0    0.12    0.99    1.43    85.90016    96.74262    93.31063
   188  H   1.0    0.12    0.99    1.43    83.50953   100.86341    90.06915
   189  H   1.0    0.25    0.99    1.43    86.76270    99.42003    87.45791
   190  H   1.0    0.11    0.99    1.43    87.78273   102.90248    90.17165
   191  H   1.0    0.12    0.99    1.43    86.29910   102.97647    93.14538
   192  H   1.0    0.15    0.99    1.43    88.76417   100.78216    92.53956
   193  N   5.0   -0.50    3.01    1.93    84.89904    99.92141    96.84861
   194  C   4.0    0.07    3.99    3.60    84.30397   101.49880    99.00487
   195  C   4.0    0.26    3.02    3.02    86.40395   103.49510    99.14367
   196  O   6.0   -0.40    1.00    1.80    88.57567   102.97405    98.59920
   197  C   4.0   -0.19    3.98    3.59    84.29233    99.97159   101.46208
   198  H   1.0    0.26    1.00    1.43    86.77213    99.69065    96.52618
   199  H   1.0    0.13    0.99    1.43    82.45325   102.35169    98.64640
   200  H   1.0    0.11    0.99    1.43    83.70138   101.16080   103.02528
   201  H   1.0    0.13    0.99    1.43    83.01353    98.37759   101.27719
   202  H   1.0    0.13    0.99    1.43    86.18803    99.27307   101.84464
   203  N   5.0   -0.50    3.01    1.93    85.64234   105.79909    99.89687
   204  C   4.0    0.08    4.00    3.61    87.38989   107.90842    99.98552
   205  C   4.0    0.28    3.01    3.02    88.58943   107.99260   102.61814
   206  O   6.0   -0.40    1.00    1.80    90.84580   107.71838   102.97068
   207  C   4.0   -0.14    3.99    3.60    86.08676   110.38698    99.24987
   208  C   4.0   -0.03    3.03    3.02    87.98999   112.49460    99.10257
   209  C   4.0   -0.09    3.03    3.02    89.82969   112.48578    97.22313
   210  C   4.0   -0.09    3.03    3.02    87.99007   114.44271   100.85277
   211  C   4.0   -0.05    3.02    3.02    91.61779   114.37586    97.07086
   212  C   4.0   -0.09    3.03    3.02    89.75575   116.36418   100.71560
   213  C   4.0    0.12    3.03    3.02    91.57045   116.34706    98.81764
   214  O   6.0   -0.42    1.99    1.83    93.31993   118.21904    98.61177
   215  H   1.0    0.22    1.00    1.43    83.78065   106.13782   100.12699
   216  H   1.0    0.15    0.99    1.43    88.92764   107.48475    98.66056
   217  H   1.0    0.11    0.99    1.43    85.21384   110.12090    97.40035
   218  H   1.0    0.11    0.99    1.43    84.60131   110.85809   100.60279
   219  H   1.0    0.12    0.99    1.43    89.87918   110.98428    95.83672
   220  H   1.0    0.12    1.00    1.43    86.58393   114.49089   102.32969
   221  H   1.0    0.17    0.99    1.43    93.04025   114.32810    95.60314
   222  H   1.0    0.12    0.99    1.43    89.71722   117.89342   102.06990
   223  H   1.0    0.26    0.99    1.43    93.02487   119.48690    99.89827
   224  N   5.0   -0.49    3.01    1.93    86.91205   108.23437   104.52258
   225  C   4.0    0.07    3.99    3.61    87.75951   108.43758   107.12517
   226  C   4.0    0.26    3.01    3.02    85.68741   107.43488   108.88958
   227  O   6.0   -0.40    1.00    1.80    84.85205   108.65235   110.64764
   228  C   4.0   -0.14    3.98    3.59    88.53057   111.14720   107.81240
   229  C   4.0   -0.14    3.98    3.59    90.47646   111.14855   109.94240
   230  C   4.0   -0.03    3.98    3.59    91.20759   113.83964   110.69006
   231  N   5.0   -0.47    3.02    1.93    93.50843   113.80668   112.17162
   232  C   4.0    0.38    3.00    3.02    94.15490   115.34408   114.04617
   233  N   5.0   -0.64    3.01    1.93    92.62763   117.16990   114.86010
   234  N   5.0   -0.64    3.02    1.93    96.41174   115.02916   115.10439
   235  H   1.0    0.24    1.00    1.43    85.11858   108.75919   104.14547
   236  H   1.0    0.14    0.99    1.43    89.42208   107.20885   107.29044
   237  H   1.0    0.13    0.99    1.43    89.34779   112.03055   106.13665
   238  H   1.0    0.13    0.99    1.43    86.85297   112.20176   108.37847
   239  H   1.0    0.15    0.99    1.43    89.70366   110.15298   111.57335
   240  H   1.0    0.13    0.99    1.43    92.15463   110.13993   109.28843
   241  H   1.0    0.12    0.99    1.43    91.49946   114.96860   108.97855
   242  H   1.0    0.12    0.99    1.43    89.66540   114.66282   111.78025
   243  H   1.0    0.27    1.00    1.43    94.83525   112.53336   111.63310
   244  H   1.0    0.27    1.00    1.43    90.89587   117.40695   114.11623
   245  H   1.0    0.27    1.00    1.43    93.10813   118.22636   116.36571
   246  H   1.0    0.31    1.00    1.43    97.46667   113.52308   114.57132
   247  H   1.0    0.27    1.00    1.43    97.03274   116.18522   116.47906
   248  N   5.0   -0.48    3.01    1.93    84.80270   105.14151   108.21111
   249  C   4.0    0.08    3.99    3.61    83.06616   103.73495   109.78560
   250  C   4.0    0.27    3.01    3.02    84.33173   101.23279   110.54069
   251  O   6.0   -0.42    1.00    1.80    86.33543   100.57888   109.61947
   252  C   4.0   -0.10    3.98    3.59    80.57612   103.21293   108.34975
   253  C   4.0    0.26    3.00    3.02    78.41536   102.74200   110.19664
   254  O   6.0   -0.37    1.00    1.80    77.59343   104.39974   111.56621
   255  N   5.0   -0.65    3.00    1.93    77.43343   100.38966   110.13256
   256  H   1.0    0.27    1.00    1.43    85.85685   104.08098   107.01781
   257  H   1.0    0.16    0.99    1.43    82.67539   104.89986   111.45390
   258  H   1.0    0.13    0.99    1.43    80.10075   104.92105   107.29678
   259  H   1.0    0.11    0.99    1.43    80.83379   101.63074   107.05779
   260  H   1.0    0.30    1.00    1.43    76.12006    99.95598   111.44690
   261  H   1.0    0.26    1.00    1.43    78.43200    98.94208   109.40257
   262  N   5.0   -0.49    3.00    1.93    82.90754    99.77230   112.05953
   263  C   4.0    0.03    3.99    3.61    83.71541    97.30769   112.92659
   264  C   4.0    0.26    3.01    3.02    84.33472    97.33809   115.73910
   265  O   6.0   -0.44    1.00    1.80    85.53132    99.08094   116.69250
   266  H   1.0    0.27    1.00    1.43    81.48733   100.57661   113.04646
   267  H   1.0    0.15    0.99    1.43    82.24661    95.91079   112.55255
   268  H   1.0    0.14    0.99    1.43    85.42405    96.81221   111.87311
   269  N   5.0   -0.47    3.01    1.93    83.52692    95.31473   117.01977
   270  C   4.0    0.08    3.99    3.60    83.79535    95.12737   119.72156
   271  C   4.0    0.08    3.00    3.02    83.93163    92.37877   120.55945
   272  O   6.0   -0.34    1.00    1.80    82.99318    90.61084   119.40567
   273  C   4.0   -0.08    3.98    3.58    81.62346    96.48060   121.09590
   274  C   4.0    0.33    2.99    3.02    78.88895    95.55179   120.42255
   275  O   6.0   -0.33    1.00    1.80    78.62684    93.82551   118.85676
   276  O   6.0   -0.36    1.00    1.80    77.16059    96.71202   121.53013
   277  H   1.0    0.30    1.00    1.43    82.23295    94.12753   116.26035
   278  H   1.0    0.13    0.99    1.43    85.58378    96.04704   120.23674
   279  H   1.0    0.12    0.99    1.43    81.84132    96.33050   123.14090
   280  H   1.0    0.13    0.99    1.43    81.67878    98.49409   120.62553
   281  N   5.0   -0.67    3.00    1.93   108.73750    91.17068   125.72091
   282  C   4.0    0.09    3.99    3.60   108.83759    91.21070   122.98815
   283  C   4.0    0.29    3.01    3.02   111.13103    92.67971   122.06625
   284  O   6.0   -0.35    1.00    1.80   112.39895    94.01026   123.47304
   285  C   4.0   -0.13    3.98    3.59   106.37102    92.33015   121.89964
   286  C   4.0   -0.02    3.12    3.03   105.93310    95.01866   122.60760
   287  C   4.0    0.03    3.21    3.04   106.48066    97.11423   121.20445
   288  C   4.0    0.02    3.18    3.03   104.72715    95.89190   124.86056
   289  N   5.0   -0.48    3.11    1.94   105.69731    99.24108   122.44593
   290  C   4.0    0.12    3.22    3.04   104.59040    98.55791   124.67339
   291  C   4.0   -0.11    3.02    3.02   103.71236    94.68315   126.97147
   292  C   4.0   -0.10    3.02    3.02   103.46526   100.01627   126.54497
   293  C   4.0   -0.10    3.03    3.02   102.59691    96.14029   128.81395
   294  C   4.0   -0.11    3.03    3.02   102.47965    98.77057   128.60636
   295  H   1.0    0.30    1.00    1.43   109.06323    92.82995   126.62955
   296  H   1.0    0.14    0.99    1.43   109.03110    89.24987   122.34679
   297  H   1.0    0.14    0.99    1.43   106.42507    92.12717   119.85386
   298  H   1.0    0.10    0.99    1.43   104.82556    91.16391   122.61467
   299  H   1.0    0.13    1.00    1.43   107.37441    97.20707   119.38709
   300  H   1.0    0.23    1.00    1.43   105.82866   101.01680   121.78369
   301  H   1.0    0.11    0.99    1.43   103.79680    92.64551   127.14998
   302  H   1.0    0.11    1.00    1.43   103.34454   102.04461   126.39870
   303  H   1.0    0.11    1.00    1.43   101.80260    95.24059   130.46467
   304  H   1.0    0.12    1.00    1.43   101.58392    99.83583   130.09697
   305  N   5.0   -0.48    3.01    1.93   111.57639    92.45398   119.58881
   306  C   4.0    0.09    4.00    3.62   113.50837    93.88085   118.31932
   307  C   4.0    0.27    3.02    3.02   112.28991    95.63846   116.41865
   308  O   6.0   -0.44    1.00    1.80   110.18248    95.30343   115.53123
   309  C   4.0   -0.08    3.98    3.59   115.34918    92.18875   116.86934
   310  C   4.0    0.33    2.99    3.02   116.85118    90.46520   118.74524
   311  O   6.0   -0.36    1.00    1.80   116.30880    88.17611   118.72631
   312  O   6.0   -0.34    1.00    1.80   118.46702    91.53917   120.07257
   313  H   1.0    0.29    1.00    1.43   110.43728    91.40648   118.46511
   314  H   1.0    0.16    0.99    1.43   114.54975    94.96121   119.74779
   315  H   1.0    0.16    0.99    1.43   114.29696    91.01084   115.55532
   316  H   1.0    0.12    0.99    1.43   116.69816    93.36295   115.83649
   317  N   5.0   -0.49    3.01    1.93   113.71732    97.61330   115.72799
   318  C   4.0    0.07    4.00    3.62   113.06963    99.05518   113.50726
   319  C   4.0    0.26    3.01    3.02   115.45611    99.35987   111.92198
   320  O   6.0   -0.41    1.00    1.80   117.56018    99.02669   112.81743
   321  C   4.0   -0.12    3.98    3.59   111.87611   101.60727   114.20960
   322  C   4.0   -0.08    3.98    3.58   113.76360   103.32805   115.52091
   323  C   4.0    0.32    2.99    3.02   112.64809   105.75789   116.67944
   324  O   6.0   -0.36    1.00    1.80   114.18725   107.36390   117.44101
   325  O   6.0   -0.47    1.01    1.80   110.29361   105.92483   116.83293
   326  H   1.0    0.26    1.00    1.43   115.53165    97.74461   116.30601
   327  H   1.0    0.13    0.99    1.43   111.68977    97.92489   112.44878
   328  H   1.0    0.13    0.99    1.43   111.14316   102.52021   112.51438
   329  H   1.0    0.13    0.99    1.43   110.28796   101.22335   115.46725
   330  H   1.0    0.14    0.99    1.43   114.64403   102.32159   117.09736
   331  H   1.0    0.14    0.99    1.43   115.26988   103.89514   114.22630
   332  N   5.0   -0.49    3.01    1.93   114.97902    99.91092   109.50038
   333  C   4.0    0.06    3.99    3.60   116.88175   100.70126   107.70351
   334  C   4.0    0.06    3.01    3.02   116.57402   103.53544   107.31864
   335  O   6.0   -0.39    1.00    1.80   114.56587   104.41953   106.58313
   336  C   4.0   -0.13    3.99    3.60   116.43080    99.38500   105.15957
   337  C   4.0   -0.09    3.98    3.58   116.46246    96.50212   105.41043
   338  C   4.0   -0.23    3.98    3.59   115.31674    95.24745   103.07865
   339  C   4.0   -0.22    3.98    3.59   119.16391    95.58116   105.81203
   340  H   1.0    0.26    1.00    1.43   113.18991   100.34890   108.99249
   341  H   1.0    0.13    0.99    1.43   118.73714   100.28010   108.49817
   342  H   1.0    0.13    0.99    1.43   114.59804   100.03128   104.45861
   343  H   1.0    0.10    0.99    1.43   117.88672    99.99394   103.82406
   344  H   1.0    0.13    0.99    1.43   115.33561    95.99072   107.07257
   345  H   1.0    0.10    0.99    1.43   115.46037    93.21114   103.28437
   346  H   1.0    0.11    0.99    1.43   113.34740    95.78601   102.84899
   347  H   1.0    0.10    0.99    1.43   116.36809    95.81079   101.40307
   348  H   1.0    0.11    0.99    1.43   119.19317    93.58107   106.26676
   349  H   1.0    0.11    0.99    1.43   120.28538    95.87306   104.11165
   350  H   1.0    0.12    0.99    1.43   120.07173    96.60596   107.34497
   351  N   5.0   -0.70    3.01    1.93    87.56316    96.14232   129.88041
   352  C   4.0    0.07    3.99    3.60    89.74915    97.33045   128.74027
   353  C   4.0    0.27    3.02    3.02    88.99106    97.86731   125.99884
   354  O   6.0   -0.43    1.00    1.80    88.70952    96.12267   124.48023
   355  C   4.0   -0.09    3.98    3.58    92.16678    95.73622   128.87638
   356  C   4.0   -0.17    3.98    3.59    92.75273    95.00876   131.62653
   357  C   4.0   -0.22    3.99    3.60    94.31886    97.31046   127.76293
   358  C   4.0   -0.23    3.98    3.58    91.66600    92.46406   132.41889
   359  H   1.0    0.28    1.00    1.43    86.78098    94.69811   128.89506
   360  H   1.0    0.11    0.99    1.43    90.08145    99.07301   129.78795
   361  H   1.0    0.13    0.99    1.43    91.89469    94.03174   127.73703
   362  H   1.0    0.11    0.99    1.43    94.80085    94.95083   131.86603
   363  H   1.0    0.11    0.99    1.43    92.00590    96.46121   132.88643
   364  H   1.0    0.11    0.99    1.43    96.00081    96.15597   127.54665
   365  H   1.0    0.15    0.99    1.43    93.80215    98.06184   125.92017
   366  H   1.0    0.10    0.99    1.43    94.74539    98.88076   129.01679
   367  H   1.0    0.11    0.99    1.43    92.14218    92.08439   134.38106
   368  H   1.0    0.10    0.99    1.43    89.61886    92.43737   132.24159
   369  H   1.0    0.11    0.99    1.43    92.43401    90.95625   131.25277
   370  N   5.0   -0.33    3.03    1.93    88.59331   100.26458   125.35662
   371  C   4.0    0.07    4.03    3.68    88.14727   100.92220   122.72811
   372  C   4.0    0.28    3.02    3.02    90.64652   100.73976   121.28934
   373  O   6.0   -0.42    1.00    1.80    92.68811   100.75730   122.38233
   374  C   4.0   -0.13    4.01    3.63    87.23095   103.67983   122.75893
   375  C   4.0   -0.14    4.01    3.64    86.68160   104.19788   125.54633
   376  C   4.0   -0.05    4.02    3.66    88.58533   102.51769   126.91318
   377  H   1.0    0.12    0.99    1.43    86.75804    99.63418   121.90282
   378  H   1.0    0.14    0.99    1.43    88.72016   104.92866   122.07046
   379  H   1.0    0.12    0.99    1.43    85.57451   103.91962   121.56841
   380  H   1.0    0.11    0.99    1.43    86.89010   106.17916   126.04045
   381  H   1.0    0.12    0.99    1.43    84.77687   103.56531   126.01319
   382  H   1.0    0.12    0.99    1.43    90.47432   103.36759   126.91216
   383  H   1.0    0.11    0.99    1.43    88.00449   102.11049   128.84363
   384  N   5.0   -0.49    3.01    1.93    90.41157   100.65214   118.78180
   385  C   4.0    0.08    4.00    3.62    92.59284   100.96326   117.17212
   386  C   4.0    0.27    3.01    3.02    93.07425   103.79992   116.86165
   387  O   6.0   -0.39    1.00    1.80    91.44818   105.39538   117.17876
   388  C   4.0   -0.13    3.98    3.59    92.24723    99.69177   114.59960
   389  C   4.0   -0.10    3.98    3.58    92.94137    96.87372   114.59748
   390  C   4.0   -0.23    3.98    3.59    95.79590    96.50002   114.83593
   391  C   4.0   -0.20    3.98    3.59    91.54714    95.42052   116.66619
   392  H   1.0    0.28    1.00    1.43    88.68078   100.61657   117.97508
   393  H   1.0    0.12    0.99    1.43    94.19594   100.13719   118.19035
   394  H   1.0    0.14    0.99    1.43    90.27796    99.93057   114.03248
   395  H   1.0    0.12    0.99    1.43    93.42483   100.65755   113.20649
   396  H   1.0    0.11    0.99    1.43    92.34305    96.12398   112.76450
   397  H   1.0    0.10    0.99    1.43    96.27892    94.52088   114.57736
   398  H   1.0    0.10    0.99    1.43    96.79594    97.60195   113.41744
   399  H   1.0    0.10    0.99    1.43    96.44759    97.05582   116.70441
   400  H   1.0    0.11    0.99    1.43    91.84112    93.39840   116.44799
   401  H   1.0    0.13    0.99    1.43    92.21479    95.95348   118.53759
   402  H   1.0    0.14    0.99    1.43    89.52634    95.79050   116.59192
   403  N   5.0   -0.51    3.01    1.93    95.46556   104.36219   116.16411
   404  C   4.0    0.07    3.99    3.60    96.35929   106.94662   116.17534
   405  C   4.0    0.27    3.00    3.02    97.48404   107.81912   113.65382
   406  O   6.0   -0.46    1.00    1.80    97.68987   110.08814   113.19284
   407  C   4.0   -0.14    3.98    3.59    98.22883   107.39939   118.36754
   408  C   4.0   -0.15    3.98    3.58   100.75795   106.00981   118.14060
   409  C   4.0   -0.16    3.98    3.59   102.38569   106.59390   120.47247
   410  C   4.0   -0.05    3.98    3.58   105.21258   106.21404   120.05199
   411  N   5.0   -0.71    3.98    2.80   106.35303   108.31799   118.59197
   412  H   1.0    0.22    1.00    1.43    96.77574   102.97806   116.24871
   413  H   1.0    0.15    0.99    1.43    94.67023   108.09998   116.53049
   414  H   1.0    0.11    0.99    1.43    98.57563   109.42680   118.48591
   415  H   1.0    0.12    0.99    1.43    97.29487   106.80589   120.10877
   416  H   1.0    0.10    0.99    1.43   100.46785   103.97078   118.02337
   417  H   1.0    0.12    0.99    1.43   101.71023   106.59886   116.41052
   418  H   1.0    0.11    0.99    1.43   102.04246   108.53131   121.08276
   419  H   1.0    0.10    0.99    1.43   101.80136   105.36269   122.01471
   420  H   1.0    0.12    0.99    1.43   106.19208   106.10731   121.86189
   421  H   1.0    0.12    0.99    1.43   105.57220   104.46865   119.01498
   422  H   1.0    0.32    0.99    1.43   108.20011   107.70758   117.96378
   423  H   1.0    0.26    1.00    1.43   105.31178   108.68610   117.00096
   424  H   1.0    0.26    1.00    1.43   106.49035   109.93025   119.65541
   425  N   5.0   -0.47    3.01    1.93    98.28200   106.02166   112.07617
   426  C   4.0    0.02    3.99    3.60    99.59904   106.49672   109.72139
   427  C   4.0    0.26    3.01    3.02   100.63445   103.97856   108.75927
   428  O   6.0   -0.46    1.00    1.80    99.73570   101.98314   109.50489
   429  H   1.0    0.27    1.00    1.43    97.90792   104.16294   112.38680
   430  H   1.0    0.13    0.99    1.43    98.30978   107.23294   108.26634
   431  H   1.0    0.13    0.99    1.43   101.09329   107.89541   110.02163
   432  N   5.0   -0.48    3.01    1.93   102.53339   104.15164   107.09970
   433  C   4.0    0.08    3.99    3.60   103.56532   102.02786   105.68448
   434  C   4.0    0.28    3.00    3.02   105.31066   100.35685   107.38331
   435  O   6.0   -0.41    1.00    1.80   107.61194   100.40680   107.22401
   436  C   4.0   -0.09    3.98    3.59   104.92913   103.03966   103.33404
   437  C   4.0    0.28    3.00    3.02   103.02582   103.58949   101.23768
   438  O   6.0   -0.43    1.00    1.80   101.95917   101.87698   100.11328
   439  N   5.0   -0.63    3.00    1.93   102.50748   106.03357   100.80182
   440  H   1.0    0.24    1.00    1.43   103.17155   105.87689   106.58997
   441  H   1.0    0.13    0.99    1.43   101.98201   100.82924   105.08454
   442  H   1.0    0.13    0.99    1.43   106.02335   104.72269   103.78879
   443  H   1.0    0.13    0.99    1.43   106.21585   101.57761   102.66411
   444  H   1.0    0.31    1.00    1.43   101.27401   106.48006    99.41489
   445  H   1.0    0.31    1.00    1.43   103.58937   107.52421   101.32702
   446  N   5.0   -0.47    3.01    1.93   104.01913    98.89309   108.98954
   447  C   4.0    0.08    3.99    3.61   105.16901    97.20520   110.83587
   448  C   4.0    0.28    3.00    3.02   105.70405    94.60912   109.64625
   449  O   6.0   -0.43    1.00    1.80   104.19890    93.53912   108.27341
   450  C   4.0   -0.09    3.98    3.59   103.39322    96.90820   113.12744
   451  C   4.0   -0.21    3.98    3.59   104.16293    94.70286   114.82328
   452  C   4.0   -0.22    3.98    3.59   103.34987    99.35900   114.64634
   453  H   1.0    0.27    1.00    1.43   102.10555    99.06394   109.04914
   454  H   1.0    0.13    0.99    1.43   106.97099    98.02922   111.43789
   455  H   1.0    0.11    0.99    1.43   101.49755    96.51467   112.39672
   456  H   1.0    0.10    0.99    1.43   102.98339    94.68334   116.50420
   457  H   1.0    0.13    0.99    1.43   103.93043    92.89819   113.86858
   458  H   1.0    0.15    0.99    1.43   106.11771    94.86162   115.42449
   459  H   1.0    0.10    0.99    1.43   102.12458    99.13000   116.27845
   460  H   1.0    0.11    0.99    1.43   105.24900    99.78197   115.31161
   461  H   1.0    0.13    0.99    1.43   102.67415   100.91174   113.48350
   462  N   5.0   -0.49    3.01    1.93   107.99879    93.66867   110.20948
   463  C   4.0    0.07    3.99    3.60   108.85162    91.18225   109.42244
   464  C   4.0    0.29    3.01    3.02   109.35432    89.60303   111.81586
   465  O   6.0   -0.40    1.00    1.80   111.00970    90.21112   113.29142
   466  C   4.0   -0.14    3.98    3.59   111.36316    91.37175   107.97931
   467  C   4.0   -0.15    3.98    3.58   112.13442    88.83749   106.81997
   468  C   4.0   -0.04    3.98    3.59   110.77831    88.27365   104.30053
   469  N   5.0   -0.48    3.02    1.93   112.58785    87.82928   102.28812
   470  C   4.0    0.37    3.00    3.02   113.67826    85.63250   101.70532
   471  N   5.0   -0.65    3.02    1.93   115.61598    85.63969   100.09825
   472  N   5.0   -0.64    3.01    1.93   112.79684    83.44878   102.57553
   473  H   1.0    0.27    1.00    1.43   108.98409    94.43802   111.65611
   474  H   1.0    0.13    0.99    1.43   107.35904    90.37378   108.24107
   475  H   1.0    0.11    0.99    1.43   111.20202    92.82478   106.52874
   476  H   1.0    0.13    0.99    1.43   112.79611    91.97526   109.33842
   477  H   1.0    0.12    0.99    1.43   114.16693    88.88122   106.48418
   478  H   1.0    0.15    0.99    1.43   111.78684    87.33979   108.19016
   479  H   1.0    0.12    0.99    1.43   109.52145    86.65708   104.48700
   480  H   1.0    0.11    0.99    1.43   109.63119    89.89510   103.74659
   481  H   1.0    0.22    1.00    1.43   113.43466    89.41638   101.63947
   482  H   1.0    0.26    1.00    1.43   116.33012    87.26728    99.41247
   483  H   1.0    0.27    1.00    1.43   116.43079    84.01279    99.53958
   484  H   1.0    0.27    1.00    1.43   111.47316    83.38741   103.94306
   485  H   1.0    0.27    1.00    1.43   113.61383    81.80742   102.06168
   486  N   5.0   -0.46    3.00    1.93   107.88873    87.54023   112.04537
   487  C   4.0    0.07    3.98    3.59   107.98098    85.71592   114.09054
   488  C   4.0    0.06    3.00    3.02   106.95400    86.85205   116.55762
   489  O   6.0   -0.42    1.00    1.80   107.41712    88.99379   117.25334
   490  C   4.0   -0.08    3.99    3.60   110.65170    84.70960   114.62739
   491  C   4.0    0.28    3.00    3.02   111.86903    83.67358   112.23716
   492  O   6.0   -0.41    1.00    1.80   110.68401    83.22291   110.30905
   493  N   5.0   -0.65    3.00    1.93   114.38016    83.40585   112.38557
   494  H   1.0    0.23    1.00    1.43   106.70765    87.11268   110.61492
   495  H   1.0    0.11    0.99    1.43   106.80246    84.12432   113.49850
   496  H   1.0    0.16    0.99    1.43   111.83881    86.18793   115.44536
   497  H   1.0    0.11    0.99    1.43   110.54126    83.15187   115.98256
   498  H   1.0    0.29    1.00    1.43   115.29447    82.49811   110.98233
   499  H   1.0    0.28    1.00    1.43   115.29639    83.67596   114.02976
   500  N   5.0   -0.50    3.02    1.93    96.46893    78.54872   109.18761
   501  C   4.0    0.07    4.02    3.66    95.68171    80.29596   107.20711
   502  C   4.0    0.29    3.01    3.02    94.17702    82.51820   108.27426
   503  O   6.0   -0.38    1.00    1.80    92.28909    82.19418   109.58313
   504  C   4.0   -0.12    4.01    3.64    94.07146    78.62947   105.49529
   505  C   4.0   -0.15    4.01    3.64    95.48198    76.11412   105.58038
   506  C   4.0   -0.05    4.04    3.68    96.43719    75.94264   108.31183
   507  H   1.0    0.12    0.99    1.43    97.35510    81.02333   106.22209
   508  H   1.0    0.14    0.99    1.43    92.19450    78.45098   106.32248
   509  H   1.0    0.11    0.99    1.43    93.89955    79.41057   103.60212
   510  H   1.0    0.10    0.99    1.43    94.29926    74.50980   105.08319
   511  H   1.0    0.11    0.99    1.43    97.07167    76.15978   104.27071
   512  H   1.0    0.13    0.99    1.43    95.16033    74.82131   109.48734
   513  H   1.0    0.10    0.99    1.43    98.33063    75.11747   108.38907
   514  N   5.0   -0.49    3.01    1.93    94.99492    84.79165   107.52105
   515  C   4.0    0.07    4.00    3.61    93.35495    86.97556   107.79830
   516  C   4.0    0.28    3.01    3.02    90.83674    86.26788   106.53228
   517  O   6.0   -0.43    1.00    1.80    90.76207    85.25590   104.45654
   518  C   4.0   -0.14    3.98    3.59    94.60384    89.30088   106.59612
   519  C   4.0   -0.11    3.97    3.58    94.23500    91.76668   108.07629
   520  C   4.0   -0.22    3.98    3.59    96.26475    93.66960   107.29117
   521  C   4.0   -0.22    3.98    3.59    91.61854    92.91535   107.67979
   522  H   1.0    0.28    1.00    1.43    96.33749    84.86747   106.14459
   523  H   1.0    0.12    0.99    1.43    93.02595    87.28896   109.82177
   524  H   1.0    0.12    0.99    1.43    96.62763    88.91384   106.49557
   525  H   1.0    0.11    0.99    1.43    93.92296    89.54214   104.66466
   526  H   1.0    0.11    0.99    1.43    94.48265    91.35356   110.08957
   527  H   1.0    0.11    0.99    1.43    95.99525    95.44623   108.28611
   528  H   1.0    0.11    0.99    1.43    98.14511    92.96183   107.72849
   529  H   1.0    0.11    0.99    1.43    96.15967    94.04676   105.27308
   530  H   1.0    0.11    0.99    1.43    91.42281    94.61099   108.82682
   531  H   1.0    0.10    0.99    1.43    91.38053    93.43862   105.70923
   532  H   1.0    0.13    0.99    1.43    90.11728    91.62034   108.21128
   533  N   5.0   -0.49    3.01    1.93    88.78594    86.84960   107.88293
   534  C   4.0    0.07    3.99    3.60    86.20370    86.45900   107.06674
   535  C   4.0    0.26    3.01    3.02    84.68509    88.71006   108.08555
   536  O   6.0   -0.42    1.00    1.80    85.66712    90.31194   109.42916
   537  C   4.0   -0.08    3.98    3.58    85.25714    83.84758   107.99118
   538  C   4.0   -0.19    3.98    3.59    84.91117    83.87086   110.85805
   539  C   4.0   -0.23    3.98    3.59    82.87192    82.94026   106.63143
   540  H   1.0    0.25    1.00    1.43    88.96409    87.88663   109.48031
   541  H   1.0    0.12    0.99    1.43    86.20091    86.48494   104.99481
   542  H   1.0    0.14    0.99    1.43    86.79350    82.54358   107.51472
   543  H   1.0    0.11    0.99    1.43    84.17460    82.06073   111.48811
   544  H   1.0    0.14    0.99    1.43    86.72392    84.23341   111.75488
   545  H   1.0    0.13    0.99    1.43    83.58760    85.34442   111.41403
   546  H   1.0    0.11    0.99    1.43    82.72494    80.90327   106.83646
   547  H   1.0    0.10    0.99    1.43    81.15640    83.74297   107.43268
   548  H   1.0    0.10    0.99    1.43    82.98621    83.34352   104.61800
   549  N   5.0   -0.51    3.01    1.93    82.26818    88.80218   107.34951
   550  C   4.0    0.06    3.99    3.60    80.58763    90.84725   108.05035
   551  C   4.0    0.08    3.00    3.02    79.86121    90.81456   110.85139
   552  O   6.0   -0.42    1.00    1.80    79.97955    92.73150   112.13007
   553  C   4.0   -0.15    3.99    3.60    78.19124    90.63602   106.43648
   554  C   4.0   -0.15    3.98    3.59    76.21734    92.68652   106.96206
   555  C   4.0   -0.04    3.99    3.60    76.80499    95.18546   105.64834
   556  N   5.0   -0.48    3.02    1.93    76.68738    94.82447   102.93316
   557  C   4.0    0.37    3.01    3.02    77.37035    96.49962   101.20912
   558  N   5.0   -0.65    3.01    1.93    78.01686    98.86134   101.85305
   559  N   5.0   -0.64    3.02    1.93    77.61980    95.76195    98.82125
   560  H   1.0    0.22    1.00    1.43    81.51009    87.32246   106.41852
   561  H   1.0    0.14    0.99    1.43    81.60758    92.62201   107.73033
   562  H   1.0    0.11    0.99    1.43    78.73591    90.66875   104.45019
   563  H   1.0    0.10    0.99    1.43    77.36293    88.78659   106.81988
   564  H   1.0    0.11    0.99    1.43    74.38544    92.02205   106.28768
   565  H   1.0    0.13    0.99    1.43    76.08136    93.01815   108.98902
   566  H   1.0    0.12    0.99    1.43    75.41607    96.59646   106.24207
   567  H   1.0    0.12    0.99    1.43    78.70656    95.81133   106.16404
   568  H   1.0    0.23    1.00    1.43    76.12185    93.10268   102.30563
   569  H   1.0    0.26    1.00    1.43    77.45071    99.56267   103.53095
   570  H   1.0    0.27    1.00    1.43    78.31943   100.10167   100.43605
   571  H   1.0    0.27    1.00    1.43    76.98423    94.03528    98.32367
   572  H   1.0    0.31    1.00    1.43    78.07162    97.01578    97.45175
   573  H   1.0    0.30    1.00    1.43    95.14527    81.10132    98.21356
   574  H   1.0    0.12    1.00    1.43   111.23149   106.87675    86.69440
   575  H   1.0    0.31    1.00    1.43   102.68308   114.86208    92.81597
   576  H   1.0    0.12    1.00    1.43    87.72297    84.61634    93.24597
   577  H   1.0    0.32    1.00    1.43    83.10938    95.37320    90.45557
   578  H   1.0    0.14    1.00    1.43    84.83635    91.92085   122.15408
   579  H   1.0    0.29    1.00    1.43   107.19233    90.66992   126.22515
   580  H   1.0    0.13    1.00    1.43   118.02166   104.69900   107.66725
   581  H   1.0    0.29    1.00    1.43    87.99170    95.50053   131.39601
   582  H   1.0    0.12    1.00    1.43   105.84347    85.81781   117.68374
   583  H   1.0    0.27    1.03    1.43    98.16636    78.44529   109.21166
   584  H   1.0    0.14    1.00    1.43    79.27992    89.20756   111.65806

           ------------------------------------------------- 
          |        Self-Consistent Charge Iterations        |
           ------------------------------------------------- 

          ...................................................
          :                      SETUP                      :
          :.................................................:
          :  # basis functions                1442          :
          :  # atomic orbitals                1442          :
          :  # shells                          870          :
          :  # electrons                      1594          :
          :  max. iterations                   250          :
          :  Hamiltonian                  GFN2-xTB          :
          :  restarted?                      false          :
          :  GBSA solvation                   true          :
          :  PC potential                    false          :
          :  electronic temp.          500.0000000     K    :
          :  accuracy                    0.1000000          :
          :  -> integral cutoff          0.3500000E+02      :
          :  -> integral neglect         0.1000000E-08      :
          :  -> SCF convergence          0.1000000E-06 Eh   :
          :  -> wf. convergence          0.1000000E-04 e    :
          :  Broyden damping             0.4000000          :
          ...................................................

 iter      E             dE          RMSdq      gap      omega  full diag
   1   -911.2168594 -0.911217E+03  0.420E+00    2.05       0.0  T
   2   -913.6268616 -0.241000E+01  0.218E+00    1.28       1.0  T
   3   -913.7195134 -0.926518E-01  0.117E+00    1.80       1.0  T
   4   -913.7447217 -0.252083E-01  0.318E-01    0.97       1.0  T
   5   -913.7766583 -0.319365E-01  0.135E-01    1.16       1.0  T
   6   -913.7783659 -0.170768E-02  0.726E-02    1.21       1.0  T
   7   -913.7792384 -0.872465E-03  0.336E-02    1.22       1.0  T
   8   -913.7793791 -0.140728E-03  0.128E-02    1.24       1.0  T
   9   -913.7794008 -0.216921E-04  0.696E-03    1.25       1.0  T
  10   -913.7794071 -0.629473E-05  0.320E-03    1.25       1.3  T
  11   -913.7794083 -0.122661E-05  0.144E-03    1.25       2.9  T
  12   -913.7794087 -0.373514E-06  0.613E-04    1.25       6.7  T
  13   -913.7794088 -0.410835E-07  0.320E-04    1.25      12.9  T
  14   -913.7794088 -0.129015E-07  0.139E-04    1.25      29.8  T
  15   -913.7794088 -0.379816E-08  0.609E-05    1.25      67.9  T
  16   -913.7794088 -0.471118E-09  0.283E-05    1.25     146.1  T

   *** convergence criteria satisfied after 16 iterations ***

         #    Occupation            Energy/Eh            Energy/eV
      -------------------------------------------------------------
         1        2.0000           -0.7477759             -20.3480
       ...           ...                  ...                  ...
       791        2.0000           -0.3655840              -9.9480
       792        2.0000           -0.3639143              -9.9026
       793        2.0000           -0.3580271              -9.7424
       794        2.0000           -0.3559243              -9.6852
       795        2.0000           -0.3535125              -9.6196
       796        2.0000           -0.3519511              -9.5771
       797        2.0000           -0.3502285              -9.5302 (HOMO)
       798        0.0000           -0.3043946              -8.2830 (LUMO)
       799        0.0000           -0.3018251              -8.2131
       800                         -0.2999083              -8.1609
       801                         -0.2947701              -8.0211
       802                         -0.2896025              -7.8805
       ...                                ...                  ...
      1442                          0.7221062              19.6495
      -------------------------------------------------------------
                  HL-Gap            0.0458339 Eh            1.2472 eV
             Fermi-level           -0.3271739 Eh           -8.9029 eV

 SCC (total)                   0 d,  0 h,  0 min, 14.901 sec
 SCC setup                      ...        0 min,  0.355 sec (  2.386%)
 Dispersion                     ...        0 min,  0.348 sec (  2.334%)
 integral evaluation            ...        0 min,  1.120 sec (  7.519%)
 zeroth order Hamiltonian       ...        0 min,  0.013 sec (  0.086%)
 iterations                     ...        0 min, 10.823 sec ( 72.634%)
 molecular gradient             ...        0 min,  2.169 sec ( 14.554%)
 printout                       ...        0 min,  0.072 sec (  0.486%)

         :::::::::::::::::::::::::::::::::::::::::::::::::::::
         ::                     SUMMARY                     ::
         :::::::::::::::::::::::::::::::::::::::::::::::::::::
         :: total energy             -902.632117669433 Eh   ::
         :: total w/o Gsasa/hb       -902.505764931791 Eh   ::
         :: gradient norm               0.545477483561 Eh/α ::
         :: HOMO-LUMO gap               1.247204667774 eV   ::
         ::.................................................::
         :: SCC energy               -913.810111950132 Eh   ::
         :: -> isotropic ES             3.183008538507 Eh   ::
         :: -> anisotropic ES          -0.143831186089 Eh   ::
         :: -> anisotropic XC           0.301162838300 Eh   ::
         :: -> dispersion              -0.722676324509 Eh   ::
         :: -> Gsolv                   -1.038701789034 Eh   ::
         ::    -> Gborn                -0.912349051391 Eh   ::
         ::    -> Gsasa                -0.032560624583 Eh   ::
         ::    -> Ghb                  -0.095649556186 Eh   ::
         ::    -> Gshift                0.001857443127 Eh   ::
         :: repulsion energy           11.118837386058 Eh   ::
         :: add. restraining            0.000000000000 Eh   ::
         :::::::::::::::::::::::::::::::::::::::::::::::::::::

           -------------------------------------------------
          |                Property Printout                |
           -------------------------------------------------

    * Orbital Energies and Occupations

         #    Occupation            Energy/Eh            Energy/eV
      -------------------------------------------------------------
         1        2.0000           -0.7477759             -20.3480
       ...           ...                  ...                  ...
       785        2.0000           -0.3751729             -10.2090
       786        2.0000           -0.3730570             -10.1514
       787        2.0000           -0.3718828             -10.1194
       788        2.0000           -0.3705856             -10.0841
       789        2.0000           -0.3687869             -10.0352
       790        2.0000           -0.3682325             -10.0201
       791        2.0000           -0.3655840              -9.9480
       792        2.0000           -0.3639143              -9.9026
       793        2.0000           -0.3580271              -9.7424
       794        2.0000           -0.3559243              -9.6852
       795        2.0000           -0.3535125              -9.6196
       796        2.0000           -0.3519511              -9.5771
       797        2.0000           -0.3502285              -9.5302 (HOMO)
       798        0.0000           -0.3043946              -8.2830 (LUMO)
       799        0.0000           -0.3018251              -8.2131
       800                         -0.2999083              -8.1609
       801                         -0.2947701              -8.0211
       802                         -0.2896025              -7.8805
       803                         -0.2880898              -7.8393
       804                         -0.2435596              -6.6276
       805                         -0.2421935              -6.5904
       806                         -0.2384521              -6.4886
       807                         -0.2372184              -6.4550
       808                         -0.2365106              -6.4358
       ...                                ...                  ...
      1442                          0.7221062              19.6495
      -------------------------------------------------------------
                  HL-Gap            0.0458339 Eh            1.2472 eV
             Fermi-level           -0.3271739 Eh           -8.9029 eV

   #   Z        covCN         q      C6AA      α(0)
   1   7 N      2.637    -0.382    29.888     8.119
   2   6 C      3.784     0.024    20.186     6.400
   3   6 C      2.758     0.264    22.548     7.776
   4   8 O      0.859    -0.477    23.273     6.468
   5   6 C      3.804    -0.104    22.486     6.751
   6   6 C      2.741     0.289    22.092     7.696
   7   8 O      0.860    -0.523    24.294     6.608
   8   7 N      2.636    -0.300    27.739     7.822
   9   1 H      0.860     0.174     1.250     1.751
  10   1 H      0.924     0.056     2.251     2.346
  11   1 H      0.924     0.063     2.165     2.301
  12   1 H      0.924     0.072     2.062     2.246
  13   1 H      0.860     0.220     1.008     1.573
  14   1 H      0.860     0.254     0.868     1.460
  15   7 N      2.691    -0.163    24.519     7.354
  16   6 C      3.798     0.006    20.488     6.445
  17   6 C      2.759     0.271    22.419     7.754
  18   8 O      0.859    -0.479    23.320     6.475
  19   6 C      3.802    -0.080    22.031     6.683
  20   6 C      3.801    -0.092    22.248     6.716
  21   6 C      3.736    -0.030    21.200     6.571
  22   7 N      2.699    -0.140    24.025     7.280
  23   6 C      2.735     0.234    23.093     7.868
  24   7 N      2.656    -0.263    26.813     7.690
  25   7 N      2.648    -0.238    26.231     7.607
  26   1 H      0.860     0.228     0.972     1.545
  27   1 H      0.924     0.088     1.897     2.154
  28   1 H      0.924     0.072     2.067     2.248
  29   1 H      0.925     0.067     2.120     2.277
  30   1 H      0.925     0.078     1.995     2.209
  31   1 H      0.925     0.074     2.038     2.232
  32   1 H      0.924     0.089     1.886     2.147
  33   1 H      0.924     0.088     1.902     2.157
  34   1 H      0.860     0.231     0.961     1.535
  35   1 H      0.860     0.245     0.902     1.488
  36   1 H      0.860     0.249     0.887     1.475
  37   1 H      0.859     0.250     0.881     1.471
  38   1 H      0.860     0.251     0.881     1.470
  39   7 N      2.691    -0.169    24.665     7.376
  40   6 C      3.803     0.023    20.185     6.396
  41   6 C      2.754     0.275    22.355     7.742
  42   8 O      0.858    -0.463    22.973     6.426
  43   6 C      3.812    -0.081    22.042     6.683
  44   6 C      2.973     0.007    27.849     8.656
  45   6 C      2.926    -0.040    28.990     8.830
  46   6 C      2.924    -0.050    29.248     8.869
  47   6 C      2.919    -0.025    28.631     8.774
  48   6 C      2.920    -0.037    28.915     8.818
  49   6 C      2.921    -0.031    28.763     8.795
  50   1 H      0.860     0.222     0.999     1.566
  51   1 H      0.924     0.052     2.289     2.366
  52   1 H      0.924     0.085     1.930     2.173
  53   1 H      0.924     0.055     2.262     2.352
  54   1 H      0.926     0.022     2.698     2.569
  55   1 H      0.926     0.066     2.125     2.280
  56   1 H      0.926     0.012     2.864     2.647
  57   1 H      0.926     0.049     2.331     2.387
  58   1 H      0.926     0.045     2.381     2.413
  59   7 N      2.695    -0.171    24.693     7.380
  60   6 C      3.795     0.012    20.378     6.428
  61   6 C      2.762     0.274    22.361     7.744
  62   8 O      0.859    -0.492    23.599     6.513
  63   6 C      3.853    -0.019    20.872     6.498
  64   6 C      3.803    -0.062    21.683     6.629
  65   6 C      3.755    -0.117    22.794     6.808
  66   6 C      3.752    -0.107    22.615     6.782
  67   1 H      0.860     0.187     1.173     1.697
  68   1 H      0.924     0.080     1.977     2.199
  69   1 H      0.924     0.037     2.485     2.465
  70   1 H      0.924     0.055     2.254     2.348
  71   1 H      0.924     0.044     2.400     2.423
  72   1 H      0.925     0.054     2.267     2.354
  73   1 H      0.925     0.020     2.728     2.583
  74   1 H      0.925     0.056     2.247     2.344
  75   1 H      0.925     0.058     2.224     2.332
  76   1 H      0.925     0.023     2.689     2.564
  77   1 H      0.925     0.035     2.513     2.479
  78   7 N      2.694    -0.177    24.821     7.399
  79   6 C      3.789     0.029    20.105     6.386
  80   6 C      2.770     0.194    23.860     8.000
  81   8 O      0.856    -0.342    20.549     6.078
  82   6 C      3.802    -0.077    21.978     6.675
  83   6 C      3.801    -0.080    22.022     6.681
  84   6 C      3.801    -0.096    22.333     6.728
  85   6 C      3.732    -0.051    21.585     6.631
  86   7 N      3.481    -0.147    24.162     7.301
  87   1 H      0.860     0.223     0.997     1.564
  88   1 H      0.923     0.059     2.213     2.326
  89   1 H      0.925     0.068     2.109     2.271
  90   1 H      0.925     0.069     2.100     2.266
  91   1 H      0.925     0.070     2.081     2.256
  92   1 H      0.925     0.068     2.112     2.273
  93   1 H      0.924     0.074     2.045     2.236
  94   1 H      0.925     0.093     1.855     2.130
  95   1 H      0.925     0.127     1.557     1.951
  96   1 H      0.925     0.100     1.781     2.087
  97   1 H      0.857     0.302     0.707     1.317
  98   1 H      0.859     0.287     0.752     1.359
  99   1 H      0.858     0.305     0.697     1.308
 100   7 N      2.637    -0.421    30.966     8.265
 101   6 C      3.785     0.062    19.551     6.298
 102   6 C      2.757     0.293    22.023     7.685
 103   8 O      0.859    -0.503    23.855     6.548
 104   6 C      3.805    -0.098    22.372     6.734
 105   6 C      2.681     0.379    20.586     7.425
 106   8 O      0.856    -0.626    26.767     6.936
 107   8 O      0.856    -0.628    26.815     6.943
 108   1 H      0.860     0.179     1.218     1.729
 109   1 H      0.923    -0.001     3.075     2.742
 110   1 H      0.925     0.016     2.800     2.617
 111   1 H      0.924     0.032     2.552     2.498
 112   7 N      2.690    -0.193    25.198     7.455
 113   6 C      3.796     0.045    19.824     6.340
 114   6 C      2.751     0.275    22.346     7.741
 115   8 O      0.858    -0.476    23.257     6.466
 116   6 C      3.802    -0.047    21.413     6.588
 117   6 C      3.797    -0.088    22.178     6.706
 118   6 C      2.682     0.370    20.730     7.451
 119   8 O      0.856    -0.634    26.976     6.963
 120   8 O      0.856    -0.659    27.612     7.045
 121   1 H      0.860     0.188     1.168     1.693
 122   1 H      0.923     0.042     2.424     2.435
 123   1 H      0.924     0.036     2.505     2.475
 124   1 H      0.924     0.044     2.395     2.420
 125   1 H      0.924     0.018     2.763     2.600
 126   1 H      0.924     0.022     2.702     2.570
 127   7 N      2.692    -0.164    24.557     7.360
 128   6 C      3.791     0.028    20.111     6.387
 129   6 C      2.758     0.273    22.377     7.747
 130   8 O      0.858    -0.489    23.545     6.506
 131   6 C      3.811    -0.074    21.909     6.662
 132   6 C      2.970     0.012    27.754     8.641
 133   6 C      2.925    -0.039    28.977     8.828
 134   6 C      2.924    -0.042    29.047     8.838
 135   6 C      2.919    -0.028    28.693     8.784
 136   6 C      2.921    -0.033    28.832     8.805
 137   6 C      2.919    -0.032    28.795     8.800
 138   1 H      0.860     0.195     1.132     1.667
 139   1 H      0.924     0.068     2.110     2.272
 140   1 H      0.925     0.063     2.160     2.298
 141   1 H      0.924     0.063     2.164     2.300
 142   1 H      0.926     0.020     2.735     2.586
 143   1 H      0.926     0.043     2.415     2.430
 144   1 H      0.926     0.020     2.735     2.586
 145   1 H      0.926     0.055     2.260     2.351
 146   1 H      0.926     0.047     2.351     2.398
 147   7 N      2.688    -0.159    24.438     7.342
 148   6 C      3.802     0.013    20.351     6.423
 149   6 C      2.756     0.269    22.462     7.761
 150   8 O      0.858    -0.473    23.193     6.457
 151   6 C      3.849    -0.019    20.874     6.499
 152   6 C      3.756    -0.114    22.725     6.797
 153   6 C      3.754    -0.127    22.996     6.838
 154   1 H      0.860     0.222     1.003     1.569
 155   1 H      0.924     0.069     2.091     2.261
 156   1 H      0.924     0.053     2.281     2.362
 157   1 H      0.925     0.054     2.266     2.354
 158   1 H      0.925     0.034     2.533     2.489
 159   1 H      0.925     0.036     2.505     2.475
 160   1 H      0.925     0.062     2.178     2.308
 161   1 H      0.925     0.066     2.131     2.283
 162   1 H      0.925     0.046     2.375     2.410
 163   7 N      2.691    -0.150    24.245     7.313
 164   6 C      3.795     0.017    20.300     6.416
 165   6 C      2.767     0.195    23.839     7.996
 166   8 O      0.856    -0.355    20.802     6.115
 167   6 C      3.850    -0.018    20.857     6.496
 168   6 C      3.756    -0.111    22.687     6.791
 169   6 C      3.755    -0.128    23.006     6.839
 170   1 H      0.860     0.208     1.068     1.619
 171   1 H      0.924     0.091     1.865     2.136
 172   1 H      0.924     0.060     2.195     2.317
 173   1 H      0.925     0.048     2.350     2.397
 174   1 H      0.925     0.044     2.397     2.421
 175   1 H      0.925     0.045     2.386     2.416
 176   1 H      0.925     0.061     2.183     2.311
 177   1 H      0.925     0.056     2.242     2.341
 178   1 H      0.925     0.052     2.300     2.371
 179   7 N      2.639    -0.373    29.628     8.084
 180   6 C      3.788     0.024    20.190     6.400
 181   6 C      2.754     0.261    22.604     7.785
 182   8 O      0.858    -0.462    22.951     6.423
 183   6 C      3.726     0.115    18.796     6.190
 184   8 O      1.657    -0.470    22.256     6.369
 185   6 C      3.751    -0.127    23.002     6.840
 186   1 H      0.860     0.164     1.309     1.792
 187   1 H      0.924     0.051     2.306     2.375
 188   1 H      0.923     0.010     2.892     2.659
 189   1 H      0.805     0.319     0.666     1.282
 190   1 H      0.925     0.031     2.565     2.505
 191   1 H      0.925     0.030     2.582     2.513
 192   1 H      0.925     0.061     2.189     2.314
 193   7 N      2.695    -0.164    24.540     7.357
 194   6 C      3.793     0.007    20.471     6.443
 195   6 C      2.762     0.270    22.447     7.759
 196   8 O      0.858    -0.476    23.268     6.467
 197   6 C      3.756    -0.144    23.327     6.887
 198   1 H      0.860     0.198     1.115     1.654
 199   1 H      0.924     0.086     1.915     2.164
 200   1 H      0.925     0.073     2.053     2.241
 201   1 H      0.925     0.103     1.754     2.071
 202   1 H      0.925     0.063     2.161     2.299
 203   7 N      2.691    -0.193    25.192     7.454
 204   6 C      3.800     0.017    20.283     6.412
 205   6 C      2.756     0.279    22.273     7.728
 206   8 O      0.858    -0.474    23.225     6.461
 207   6 C      3.810    -0.088    22.163     6.701
 208   6 C      2.970    -0.003    28.087     8.693
 209   6 C      2.926    -0.035    28.871     8.812
 210   6 C      2.925    -0.050    29.232     8.866
 211   6 C      2.916    -0.049    29.222     8.864
 212   6 C      2.917    -0.079    29.973     8.978
 213   6 C      2.848     0.147    24.802     8.162
 214   8 O      1.659    -0.457    21.993     6.331
 215   1 H      0.860     0.228     0.974     1.546
 216   1 H      0.924     0.068     2.105     2.269
 217   1 H      0.924     0.075     2.034     2.231
 218   1 H      0.924     0.077     2.011     2.218
 219   1 H      0.925     0.017     2.780     2.607
 220   1 H      0.926     0.069     2.098     2.265
 221   1 H      0.925     0.018     2.763     2.599
 222   1 H      0.926     0.062     2.180     2.309
 223   1 H      0.805     0.359     0.568     1.184
 224   7 N      2.690    -0.182    24.937     7.417
 225   6 C      3.798     0.008    20.452     6.439
 226   6 C      2.754     0.271    22.412     7.752
 227   8 O      0.858    -0.449    22.683     6.385
 228   6 C      3.805    -0.075    21.938     6.668
 229   6 C      3.805    -0.077    21.961     6.671
 230   6 C      3.738    -0.023    21.060     6.548
 231   7 N      2.704    -0.142    24.084     7.289
 232   6 C      2.735     0.231    23.156     7.878
 233   7 N      2.649    -0.254    26.606     7.661
 234   7 N      2.656    -0.264    26.838     7.694
 235   1 H      0.860     0.214     1.039     1.596
 236   1 H      0.924     0.082     1.957     2.188
 237   1 H      0.924     0.056     2.252     2.347
 238   1 H      0.924     0.076     2.019     2.222
 239   1 H      0.924     0.067     2.117     2.275
 240   1 H      0.924     0.050     2.316     2.380
 241   1 H      0.924     0.078     2.000     2.211
 242   1 H      0.924     0.088     1.895     2.153
 243   1 H      0.860     0.226     0.983     1.553
 244   1 H      0.860     0.241     0.921     1.503
 245   1 H      0.860     0.254     0.866     1.458
 246   1 H      0.860     0.255     0.866     1.458
 247   1 H      0.860     0.254     0.866     1.458
 248   7 N      2.692    -0.173    24.744     7.388
 249   6 C      3.795     0.014    20.350     6.424
 250   6 C      2.755     0.268    22.479     7.764
 251   8 O      0.858    -0.450    22.705     6.389
 252   6 C      3.806    -0.127    22.929     6.817
 253   6 C      2.743     0.286    22.154     7.707
 254   8 O      0.858    -0.489    23.549     6.506
 255   7 N      2.637    -0.280    27.242     7.752
 256   1 H      0.860     0.213     1.044     1.601
 257   1 H      0.924     0.086     1.917     2.165
 258   1 H      0.924     0.117     1.637     2.001
 259   1 H      0.925     0.093     1.852     2.128
 260   1 H      0.860     0.222     1.000     1.567
 261   1 H      0.860     0.225     0.989     1.558
 262   7 N      2.687    -0.159    24.448     7.343
 263   6 C      3.745    -0.045    21.454     6.607
 264   6 C      2.755     0.273    22.394     7.749
 265   8 O      0.858    -0.494    23.659     6.521
 266   1 H      0.860     0.189     1.163     1.689
 267   1 H      0.924     0.103     1.754     2.071
 268   1 H      0.924     0.116     1.650     2.009
 269   7 N      2.691    -0.166    24.591     7.365
 270   6 C      3.793     0.047    19.790     6.335
 271   6 C      2.767     0.204    23.671     7.968
 272   8 O      0.856    -0.359    20.887     6.127
 273   6 C      3.799    -0.090    22.224     6.712
 274   6 C      2.681     0.371    20.711     7.447
 275   8 O      0.856    -0.612    26.410     6.890
 276   8 O      0.857    -0.646    27.282     7.003
 277   1 H      0.860     0.222     1.001     1.567
 278   1 H      0.923     0.073     2.055     2.242
 279   1 H      0.924     0.029     2.608     2.525
 280   1 H      0.924     0.043     2.411     2.428
 281   7 N      2.635    -0.392    30.139     8.154
 282   6 C      3.788     0.041    19.899     6.353
 283   6 C      2.757     0.281    22.240     7.723
 284   8 O      0.858    -0.518    24.177     6.592
 285   6 C      3.807    -0.076    21.939     6.668
 286   6 C      3.057    -0.034    28.798     8.801
 287   6 C      3.030    -0.009    28.222     8.714
 288   6 C      3.117    -0.020    28.344     8.720
 289   7 N      2.779    -0.108    23.359     7.178
 290   6 C      3.087     0.042    26.955     8.510
 291   6 C      2.911    -0.041    29.026     8.834
 292   6 C      2.908    -0.059    29.468     8.901
 293   6 C      2.920    -0.047    29.173     8.857
 294   6 C      2.925    -0.043    29.056     8.840
 295   1 H      0.860     0.153     1.381     1.841
 296   1 H      0.924     0.032     2.557     2.501
 297   1 H      0.925     0.055     2.259     2.350
 298   1 H      0.924     0.047     2.355     2.400
 299   1 H      0.926     0.028     2.613     2.528
 300   1 H      0.860     0.190     1.156     1.684
 301   1 H      0.925     0.014     2.831     2.631
 302   1 H      0.926     0.046     2.368     2.407
 303   1 H      0.926     0.020     2.736     2.587
 304   1 H      0.926     0.033     2.538     2.491
 305   7 N      2.694    -0.186    25.036     7.431
 306   6 C      3.801     0.050    19.732     6.324
 307   6 C      2.770     0.273    22.382     7.748
 308   8 O      0.859    -0.468    23.094     6.443
 309   6 C      3.806    -0.100    22.403     6.738
 310   6 C      2.683     0.375    20.639     7.435
 311   8 O      0.856    -0.633    26.933     6.958
 312   8 O      0.856    -0.649    27.355     7.012
 313   1 H      0.860     0.218     1.021     1.583
 314   1 H      0.924     0.041     2.440     2.443
 315   1 H      0.925     0.062     2.170     2.304
 316   1 H      0.924     0.019     2.747     2.592
 317   7 N      2.696    -0.181    24.916     7.413
 318   6 C      3.805     0.026    20.142     6.389
 319   6 C      2.756     0.273    22.390     7.749
 320   8 O      0.858    -0.491    23.586     6.511
 321   6 C      3.804    -0.057    21.599     6.616
 322   6 C      3.801    -0.085    22.112     6.695
 323   6 C      2.685     0.367    20.775     7.459
 324   8 O      0.857    -0.630    26.872     6.950
 325   8 O      0.860    -0.582    25.683     6.795
 326   1 H      0.860     0.188     1.167     1.693
 327   1 H      0.924     0.068     2.109     2.271
 328   1 H      0.924     0.054     2.266     2.354
 329   1 H      0.924     0.062     2.174     2.306
 330   1 H      0.924     0.023     2.685     2.562
 331   1 H      0.924     0.015     2.816     2.624
 332   7 N      2.697    -0.161    24.476     7.348
 333   6 C      3.791     0.026    20.141     6.391
 334   6 C      2.773     0.197    23.802     7.990
 335   8 O      0.856    -0.353    20.756     6.108
 336   6 C      3.812    -0.079    21.994     6.675
 337   6 C      3.850    -0.014    20.793     6.486
 338   6 C      3.756    -0.130    23.049     6.845
 339   6 C      3.757    -0.120    22.858     6.817
 340   1 H      0.860     0.213     1.043     1.600
 341   1 H      0.924     0.080     1.984     2.203
 342   1 H      0.924     0.073     2.058     2.243
 343   1 H      0.924     0.073     2.048     2.238
 344   1 H      0.924     0.029     2.604     2.523
 345   1 H      0.925     0.062     2.180     2.309
 346   1 H      0.925     0.049     2.336     2.390
 347   1 H      0.925     0.063     2.168     2.302
 348   1 H      0.925     0.047     2.360     2.402
 349   1 H      0.925     0.057     2.239     2.340
 350   1 H      0.925     0.023     2.696     2.567
 351   7 N      2.640    -0.394    30.206     8.163
 352   6 C      3.793     0.032    20.041     6.375
 353   6 C      2.769     0.267    22.491     7.767
 354   8 O      0.859    -0.538    24.650     6.657
 355   6 C      3.852    -0.020    20.895     6.501
 356   6 C      3.803    -0.063    21.710     6.633
 357   6 C      3.758    -0.113    22.710     6.794
 358   6 C      3.751    -0.107    22.602     6.780
 359   1 H      0.860     0.140     1.468     1.898
 360   1 H      0.924     0.039     2.459     2.452
 361   1 H      0.924     0.026     2.640     2.541
 362   1 H      0.924     0.043     2.409     2.427
 363   1 H      0.924     0.036     2.498     2.472
 364   1 H      0.925     0.040     2.453     2.449
 365   1 H      0.925     0.038     2.471     2.458
 366   1 H      0.925     0.044     2.397     2.421
 367   1 H      0.925     0.042     2.428     2.437
 368   1 H      0.925     0.032     2.562     2.503
 369   1 H      0.925     0.034     2.527     2.486
 370   7 N      2.763    -0.078    22.752     7.084
 371   6 C      3.835     0.025    20.133     6.384
 372   6 C      2.762     0.278    22.296     7.733
 373   8 O      0.858    -0.499    23.772     6.537
 374   6 C      3.828    -0.067    21.767     6.639
 375   6 C      3.833    -0.072    21.852     6.651
 376   6 C      3.773    -0.011    20.811     6.500
 377   1 H      0.924     0.045     2.387     2.416
 378   1 H      0.924     0.064     2.154     2.295
 379   1 H      0.925     0.058     2.224     2.332
 380   1 H      0.925     0.080     1.978     2.199
 381   1 H      0.924     0.057     2.229     2.335
 382   1 H      0.924     0.072     2.067     2.248
 383   1 H      0.925     0.070     2.082     2.256
 384   7 N      2.693    -0.171    24.696     7.381
 385   6 C      3.801     0.020    20.237     6.405
 386   6 C      2.759     0.272    22.404     7.751
 387   8 O      0.858    -0.466    23.039     6.435
 388   6 C      3.807    -0.076    21.945     6.669
 389   6 C      3.849    -0.011    20.742     6.478
 390   6 C      3.755    -0.118    22.826     6.812
 391   6 C      3.754    -0.105    22.559     6.773
 392   1 H      0.860     0.215     1.034     1.593
 393   1 H      0.924     0.077     2.010     2.217
 394   1 H      0.924     0.057     2.239     2.340
 395   1 H      0.924     0.061     2.190     2.314
 396   1 H      0.924     0.048     2.346     2.395
 397   1 H      0.925     0.048     2.349     2.397
 398   1 H      0.925     0.051     2.305     2.374
 399   1 H      0.925     0.037     2.496     2.471
 400   1 H      0.925     0.038     2.470     2.458
 401   1 H      0.925     0.029     2.606     2.525
 402   1 H      0.925     0.024     2.678     2.559
 403   7 N      2.688    -0.188    25.081     7.438
 404   6 C      3.793     0.001    20.572     6.459
 405   6 C      2.750     0.262    22.574     7.780
[...]
   253  C   3.944        O  254 1.669    N  255 1.280    C  252 0.963
   254  O   1.973        C  253 1.669    N  255 0.198
   255  N   3.374        C  253 1.280    H  260 0.929    H  261 0.924    O  254 0.198
   256  H   0.955        N  248 0.917
   257  H   0.992        C  249 0.944
   258  H   0.986        C  252 0.951
   259  H   0.991        C  252 0.969
   260  H   0.950        N  255 0.929
   261  H   0.950        N  255 0.924
   262  N   3.453        C  250 1.269    C  263 0.996    H  266 0.930    O  251 0.194
   263  C   3.959        N  262 0.996    C  264 0.953    H  267 0.943    H  268 0.941
   264  C   3.943        O  265 1.609    N  269 1.307    C  263 0.953
   265  O   1.951        C  264 1.609    N  269 0.194
   266  H   0.964        N  262 0.930
   267  H   0.989        C  263 0.943
   268  H   0.986        C  263 0.941
   269  N   3.481        C  264 1.307    C  270 0.994    H  277 0.909    O  265 0.194
   270  C   3.976        N  269 0.994    C  271 0.990    C  273 0.945    H  278 0.938
   271  C   3.909        O  272 1.895    C  270 0.990    H  578 0.956
   272  O   2.043        C  271 1.895
   273  C   3.974        H  279 0.969    H  280 0.964    C  270 0.945    C  274 0.900
   274  C   3.940        O  275 1.523    O  276 1.496    C  273 0.900
   275  O   1.831        C  274 1.523    O  276 0.221
   276  O   1.798        C  274 1.496    O  275 0.221
   277  H   0.951        N  269 0.909
   278  H   0.995        C  270 0.938
   279  H   0.999        C  273 0.969
   280  H   0.998        C  273 0.964
   281  N   2.995        C  282 1.025    H  295 0.957    H  579 0.946
   282  C   3.985        N  281 1.025    C  283 0.952    H  296 0.951    C  285 0.946
   283  C   3.937        O  284 1.624    N  305 1.293    C  282 0.952
   284  O   1.935        C  283 1.624    N  305 0.191
   285  C   3.992        C  286 1.021    H  298 0.967    H  297 0.963    C  282 0.946
   286  C   3.977        C  287 1.579    C  288 1.208    C  285 1.021
   287  C   3.958        C  286 1.579    N  289 1.204    H  299 0.967
   288  C   3.986        C  291 1.331    C  290 1.243    C  286 1.208
   289  N   3.544        C  287 1.204    C  290 1.180    H  300 0.932
   290  C   3.960        C  292 1.338    C  288 1.243    N  289 1.180
   291  C   3.992        C  293 1.504    C  288 1.331    H  301 0.964    C  292 0.112
   292  C   3.987        C  294 1.494    C  290 1.338    H  302 0.967    C  291 0.112
   293  C   3.991        C  291 1.504    C  294 1.370    H  303 0.972
   294  C   3.991        C  292 1.494    C  293 1.370    H  304 0.972
   295  H   0.977        N  281 0.957
   296  H   0.998        C  282 0.951
   297  H   0.996        C  285 0.963
   298  H   0.998        C  285 0.967
   299  H   0.998        C  287 0.967
   300  H   0.963        N  289 0.932
   301  H   0.999        C  291 0.964
   302  H   0.997        C  292 0.967
   303  H   0.999        C  293 0.972
   304  H   0.998        C  294 0.972
   305  N   3.464        C  283 1.293    C  306 0.993    H  313 0.908    O  284 0.191
   306  C   3.972        N  305 0.993    C  309 0.957    H  314 0.951    C  307 0.948
   307  C   3.950        O  308 1.622    N  317 1.283    C  306 0.948
   308  O   1.958        C  307 1.622    N  317 0.185
   309  C   3.979        H  316 0.971    H  315 0.969    C  306 0.957    C  310 0.900
   310  C   3.934        O  312 1.508    O  311 1.504    C  309 0.900
   311  O   1.799        C  310 1.504    O  312 0.219
   312  O   1.801        C  310 1.508    O  311 0.219
   313  H   0.953        N  305 0.908
   314  H   0.998        C  306 0.951
   315  H   0.996        C  309 0.969
   316  H   0.999        C  309 0.971
   317  N   3.451        C  307 1.283    C  318 0.982    H  326 0.924    O  308 0.185
   318  C   3.961        N  317 0.982    C  321 0.964    H  327 0.943    C  319 0.941
   319  C   3.952        O  320 1.639    N  332 1.297    C  318 0.941
   320  O   1.966        C  319 1.639    N  332 0.195
   321  C   3.990        C  322 1.014    H  328 0.973    H  329 0.970    C  318 0.964
   322  C   3.986        C  321 1.014    H  331 0.971    H  330 0.961    C  323 0.927
   323  C   3.937        O  324 1.532    O  325 1.444    C  322 0.927
   324  O   1.820        C  323 1.532    O  325 0.213
   325  O   1.882        C  323 1.444    O  324 0.213    H  422 0.115
   326  H   0.964        N  317 0.924
   327  H   0.995        C  318 0.943
   328  H   0.997        C  321 0.973
   329  H   0.996        C  321 0.970
   330  H   0.999        C  322 0.961
   331  H   1.000        C  322 0.971
   332  N   3.471        C  319 1.297    C  333 0.965    H  340 0.921    O  320 0.195
   333  C   3.953        C  334 0.970    N  332 0.965    C  336 0.957    H  341 0.956
   334  C   3.900        O  335 1.908    C  333 0.970    H  580 0.953
   335  O   2.050        C  334 1.908
   336  C   3.976        C  337 0.990    H  343 0.970    H  342 0.969    C  333 0.957
   337  C   3.992        C  339 1.010    C  338 1.006    C  336 0.990    H  344 0.965
   338  C   3.992        C  337 1.006    H  346 0.986    H  347 0.984    H  345 0.981
   339  C   3.994        C  337 1.010    H  348 0.986    H  349 0.984    H  350 0.983
   340  H   0.955        N  332 0.921
   341  H   0.994        C  333 0.956
   342  H   0.995        C  336 0.969
   343  H   0.994        C  336 0.970
   344  H   0.999        C  337 0.965
   345  H   0.995        C  338 0.981
   346  H   0.998        C  338 0.986
   347  H   0.996        C  338 0.984
   348  H   0.998        C  339 0.986
   349  H   0.997        C  339 0.984
   350  H   0.999        C  339 0.983
   351  N   2.994        C  352 1.008    H  359 0.963    H  581 0.939
   352  C   3.982        N  351 1.008    C  355 0.966    H  360 0.956    C  353 0.943
   353  C   3.943        O  354 1.591    N  370 1.316    C  352 0.943
   354  O   1.905        C  353 1.591    N  370 0.192
   355  C   3.994        C  357 1.007    C  356 0.993    H  361 0.968    C  352 0.966
   356  C   3.996        C  358 1.020    C  355 0.993    H  362 0.976    H  363 0.975
   357  C   3.995        C  355 1.007    H  364 0.987    H  366 0.986    H  365 0.980
   358  C   3.997        C  356 1.020    H  369 0.988    H  367 0.986    H  368 0.978
   359  H   0.980        N  351 0.963
   360  H   0.998        C  352 0.956
   361  H   0.999        C  355 0.968
   362  H   0.998        C  356 0.976
   363  H   0.999        C  356 0.975
   364  H   0.998        C  357 0.987
   365  H   0.998        C  357 0.980
   366  H   0.998        C  357 0.986
   367  H   0.998        C  358 0.986
   368  H   0.999        C  358 0.978
   369  H   0.999        C  358 0.988
   370  N   3.535        C  353 1.316    C  376 0.975    C  371 0.973    O  354 0.192
   371  C   3.971        N  370 0.973    C  374 0.973    H  377 0.951    C  372 0.939
   372  C   3.952        O  373 1.621    N  384 1.314    C  371 0.939
   373  O   1.938        C  372 1.621    N  384 0.196
   374  C   3.989        C  375 1.003    H  379 0.978    H  378 0.976    C  371 0.973
   375  C   3.990        C  374 1.003    C  376 1.002    H  381 0.978    H  380 0.973
   376  C   3.960        C  375 1.002    N  370 0.975    H  383 0.966    H  382 0.963
   377  H   0.998        C  371 0.951
   378  H   0.996        C  374 0.976
   379  H   0.996        C  374 0.978
   380  H   0.993        C  375 0.973
   381  H   0.997        C  375 0.978
   382  H   0.995        C  376 0.963
   383  H   0.995        C  376 0.966
   384  N   3.481        C  372 1.314    C  385 0.982    H  392 0.903    O  373 0.196
   385  C   3.962        N  384 0.982    C  388 0.977    H  393 0.940    C  386 0.935
   386  C   3.950        O  387 1.672    N  403 1.261    C  385 0.935
   387  O   1.985        C  386 1.672    N  403 0.192
   388  C   3.988        C  389 0.993    C  385 0.977    H  394 0.971    H  395 0.970
   389  C   3.994        C  390 1.010    C  391 1.010    C  388 0.993    H  396 0.962
   390  C   3.995        C  389 1.010    H  397 0.985    H  398 0.984    H  399 0.982
   391  C   3.995        C  389 1.010    H  400 0.986    H  401 0.985    H  402 0.985
   392  H   0.954        N  384 0.903
   393  H   0.994        C  385 0.940
   394  H   0.997        C  388 0.971
   395  H   0.996        C  388 0.970
   396  H   0.997        C  389 0.962
   397  H   0.997        C  390 0.985
   398  H   0.997        C  390 0.984
   399  H   0.999        C  390 0.982
   400  H   0.998        C  391 0.986
   401  H   0.999        C  391 0.985
   402  H   0.999        C  391 0.985
   403  N   3.436        C  386 1.261    C  404 0.980    H  412 0.924    O  387 0.192
   404  C   3.954        N  403 0.980    C  407 0.963    C  405 0.946    H  413 0.938
   405  C   3.951        O  406 1.604    N  425 1.318    C  404 0.946
   406  O   1.961        C  405 1.604    N  425 0.194
   407  C   3.982        C  408 1.009    H  415 0.972    H  414 0.967    C  404 0.963
   408  C   3.995        C  407 1.009    C  409 1.004    H  416 0.974    H  417 0.971
   409  C   3.984        C  410 1.009    C  408 1.004    H  419 0.970    H  418 0.966
   410  C   3.929        C  409 1.009    H  420 0.969    H  421 0.966    N  411 0.964
   411  N   3.636        C  410 0.964    H  424 0.909    H  423 0.904    H  422 0.775
   412  H   0.961        N  403 0.924
   413  H   0.988        C  404 0.938
   414  H   0.992        C  407 0.967
   415  H   0.995        C  407 0.972
   416  H   0.997        C  408 0.974
   417  H   0.997        C  408 0.971
   418  H   0.992        C  409 0.966
   419  H   0.994        C  409 0.970
   420  H   0.991        C  410 0.969
   421  H   0.992        C  410 0.966
   422  H   0.909        N  411 0.775    O  325 0.115
   423  H   0.924        N  411 0.904
   424  H   0.922        N  411 0.909
   425  N   3.487        C  405 1.318    C  426 1.003    H  429 0.906    O  406 0.194
   426  C   3.971        N  425 1.003    C  427 0.961    H  431 0.953    H  430 0.937
   427  C   3.952        O  428 1.624    N  432 1.303    C  426 0.961
   428  O   1.992        C  427 1.624    N  432 0.193
   429  H   0.954        N  425 0.906
   430  H   0.991        C  426 0.937
   431  H   0.990        C  426 0.953
   432  N   3.470        C  427 1.303    C  433 0.975    H  440 0.922    O  428 0.193
   433  C   3.962        C  436 0.986    N  432 0.975    H  441 0.949    C  434 0.907
   434  C   3.955        O  435 1.648    N  446 1.323    C  433 0.907
   435  O   1.974        C  434 1.648    N  446 0.210
   436  C   3.988        C  433 0.986    H  442 0.968    C  437 0.963    H  443 0.955
   437  C   3.941        O  438 1.644    N  439 1.303    C  436 0.963
   438  O   1.956        C  437 1.644    N  439 0.199
   439  N   3.402        C  437 1.303    H  444 0.941    H  445 0.907    O  438 0.199
   440  H   0.955        N  432 0.922
   441  H   0.995        C  433 0.949
   442  H   0.994        C  436 0.968
   443  H   0.989        C  436 0.955
   444  H   0.969        N  439 0.941
   445  H   0.950        N  439 0.907
   446  N   3.491        C  434 1.323    C  447 0.979    H  453 0.894    O  435 0.210
   447  C   3.963        N  446 0.979    C  450 0.963    H  454 0.954    C  448 0.929
   448  C   3.951        O  449 1.661    N  462 1.279    C  447 0.929
   449  O   1.979        C  448 1.661    N  462 0.196
   450  C   3.988        C  452 1.008    C  451 1.008    C  447 0.963    H  455 0.962
   451  C   3.991        C  450 1.008    H  457 0.985    H  456 0.983    H  458 0.975
   452  C   3.993        C  450 1.008    H  460 0.985    H  461 0.984    H  459 0.983
   453  H   0.949        N  446 0.894
   454  H   0.997        C  447 0.954
   455  H   0.996        C  450 0.962
   456  H   0.997        C  451 0.983
   457  H   0.999        C  451 0.985
   458  H   0.997        C  451 0.975
   459  H   0.996        C  452 0.983
   460  H   0.998        C  452 0.985
   461  H   0.997        C  452 0.984
   462  N   3.456        C  448 1.279    C  463 0.975    H  473 0.916    O  449 0.196
   463  C   3.957        N  462 0.975    C  466 0.974    H  474 0.954    C  464 0.924
   464  C   3.942        O  465 1.666    N  486 1.275    C  463 0.924
   465  O   1.997        C  464 1.666    N  486 0.196
   466  C   3.984        C  467 1.006    C  463 0.974    H  476 0.973    H  475 0.968
   467  C   3.988        C  466 1.006    C  468 0.989    H  478 0.972    H  477 0.970
   468  C   3.958        N  469 0.994    C  467 0.989    H  480 0.964    H  479 0.963
   469  N   3.459        C  470 1.299    C  468 0.994    H  481 0.915
   470  C   3.978        N  472 1.330    N  471 1.319    N  469 1.299
   471  N   3.392        C  470 1.319    H  482 0.916    H  483 0.914    N  472 0.105
   472  N   3.408        C  470 1.330    H  484 0.916    H  485 0.915    N  471 0.105
   473  H   0.962        N  462 0.916
   474  H   0.993        C  463 0.954
   475  H   0.993        C  466 0.968
   476  H   0.997        C  466 0.973
   477  H   0.993        C  467 0.970
   478  H   0.997        C  467 0.972
   479  H   0.992        C  468 0.963
   480  H   0.991        C  468 0.964
   481  H   0.948        N  469 0.915
   482  H   0.936        N  471 0.916
   483  H   0.934        N  471 0.914
   484  H   0.941        N  472 0.916
   485  H   0.934        N  472 0.915
   486  N   3.456        C  464 1.275    C  487 0.987    H  494 0.920    O  465 0.196
   487  C   3.971        N  486 0.987    C  488 0.965    C  490 0.960    H  495 0.956
   488  C   3.893        O  489 1.903    C  487 0.965    H  582 0.951
   489  O   2.067        C  488 1.903
   490  C   3.988        C  491 0.961    C  487 0.960    H  496 0.960    H  497 0.950
   491  C   3.955        O  492 1.646    N  493 1.313    C  490 0.961
   492  O   1.957        C  491 1.646    N  493 0.200
   493  N   3.397        C  491 1.313    H  499 0.939    H  498 0.912    O  492 0.200
   494  H   0.948        N  486 0.920
   495  H   0.989        C  487 0.956
   496  H   0.995        C  490 0.960
   497  H   0.994        C  490 0.950
   498  H   0.933        N  493 0.912
   499  H   0.957        N  493 0.939
   500  N   3.002        C  501 0.991    C  506 0.988    H  583 0.930
   501  C   3.986        N  500 0.991    C  504 0.977    H  507 0.961    C  502 0.945
   502  C   3.943        O  503 1.629    N  514 1.297    C  501 0.945
   503  O   1.937        C  502 1.629    N  514 0.192
   504  C   3.995        C  505 1.006    H  509 0.979    C  501 0.977    H  508 0.977
   505  C   3.996        C  504 1.006    C  506 0.998    H  511 0.981    H  510 0.979
   506  C   3.986        C  505 0.998    N  500 0.988    H  513 0.978    H  512 0.976
   507  H   0.999        C  501 0.961
   508  H   0.998        C  504 0.977
   509  H   0.999        C  504 0.979
   510  H   0.998        C  505 0.979
   511  H   0.998        C  505 0.981
   512  H   0.999        C  506 0.976
   513  H   0.999        C  506 0.978
   514  N   3.440        C  502 1.297    C  515 0.977    H  522 0.874    O  503 0.192
   515  C   3.968        C  518 0.981    N  514 0.977    H  523 0.956    C  516 0.930
   516  C   3.948        O  517 1.638    N  533 1.302    C  515 0.930
   517  O   1.949        C  516 1.638    N  533 0.195
   518  C   3.986        C  519 0.995    C  515 0.981    H  525 0.973    H  524 0.965
   519  C   3.995        C  521 1.010    C  520 1.007    C  518 0.995    H  526 0.968
   520  C   3.994        C  519 1.007    H  529 0.986    H  527 0.985    H  528 0.984
   521  C   3.994        C  519 1.010    H  530 0.982    H  531 0.980    H  532 0.979
   522  H   0.946        N  514 0.874
   523  H   0.998        C  515 0.956
   524  H   0.995        C  518 0.965
   525  H   0.997        C  518 0.973
   526  H   0.999        C  519 0.968
   527  H   0.998        C  520 0.985
   528  H   0.998        C  520 0.984
   529  H   0.998        C  520 0.986
   530  H   0.998        C  521 0.982
   531  H   0.997        C  521 0.980
   532  H   0.998        C  521 0.979
   533  N   3.474        C  516 1.302    C  534 0.984    H  540 0.915    O  517 0.195
   534  C   3.960        N  533 0.984    C  537 0.952    H  541 0.942    C  535 0.941
   535  C   3.950        O  536 1.647    N  549 1.289    C  534 0.941
   536  O   1.979        C  535 1.647    N  549 0.193
   537  C   3.987        C  538 1.010    C  539 1.007    H  542 0.965    C  534 0.952
   538  C   3.995        C  537 1.010    H  544 0.986    H  543 0.985    H  545 0.984
   539  C   3.990        C  537 1.007    H  548 0.982    H  546 0.982    H  547 0.975
   540  H   0.962        N  533 0.915
   541  H   0.992        C  534 0.942
   542  H   0.997        C  537 0.965
   543  H   0.997        C  538 0.985
   544  H   0.999        C  538 0.986
   545  H   0.999        C  538 0.984
   546  H   0.995        C  539 0.982
   547  H   0.997        C  539 0.975
   548  H   0.996        C  539 0.982
   549  N   3.457        C  535 1.289    C  550 0.978    H  560 0.903    O  536 0.193
   550  C   3.957        N  549 0.978    C  551 0.966    C  553 0.965    H  561 0.946
   551  C   3.886        O  552 1.893    C  550 0.966    H  584 0.954
   552  O   2.055        C  551 1.893
   553  C   3.977        C  554 1.007    H  563 0.969    C  550 0.965    H  562 0.959
   554  C   3.987        C  555 1.009    C  553 1.007    H  565 0.969    H  564 0.967
   555  C   3.958        C  554 1.009    N  556 0.985    H  567 0.959    H  566 0.957
   556  N   3.472        C  557 1.321    C  555 0.985    H  568 0.905    N  559 0.109
   557  C   3.978        N  559 1.332    N  556 1.321    N  558 1.294
   558  N   3.374        C  557 1.294    H  570 0.921    H  569 0.920
   559  N   3.408        C  557 1.332    H  571 0.914    H  572 0.907    N  556 0.109
   560  H   0.948        N  549 0.903
   561  H   0.989        C  550 0.946
   562  H   0.989        C  553 0.959
   563  H   0.994        C  553 0.969
   564  H   0.991        C  554 0.967
   565  H   0.996        C  554 0.969
   566  H   0.991        C  555 0.957
   567  H   0.993        C  555 0.959
   568  H   0.943        N  556 0.905
   569  H   0.944        N  558 0.920
   570  H   0.942        N  558 0.921
   571  H   0.936        N  559 0.914
   572  H   0.935        N  559 0.907
   573  H   0.969        N    1 0.955
   574  H   0.991        C   80 0.950
   575  H   0.966        N  100 0.955
   576  H   0.991        C  165 0.951
   577  H   0.964        N  179 0.950
   578  H   0.995        C  271 0.956
   579  H   0.964        N  281 0.946
   580  H   0.994        C  334 0.953
   581  H   0.964        N  351 0.939
   582  H   0.992        C  488 0.951
   583  H   0.958        N  500 0.930
   584  H   0.995        C  551 0.954
 
molecular dipole:
                 x           y           z       tot (Debye)
 q only:       97.619      76.523      58.462
   full:       99.190      78.135      58.992     354.248
molecular quadrupole (traceless):
                xx          xy          yy          xz          yz          zz
 q only:     6252.320   11207.562     365.396    8059.878    6572.388   -6617.716
  q+dip:     6327.483   11694.109     467.529    8388.788    6815.042   -6795.013
   full:     6329.832   11693.432     462.459    8398.148    6811.560   -6792.291


           -------------------------------------------------
          | TOTAL ENERGY             -902.632117669433 Eh   |
          | GRADIENT NORM               0.545477483561 Eh/α |
          | HOMO-LUMO GAP               1.247204667774 eV   |
           -------------------------------------------------

------------------------------------------------------------------------
 * finished run on 2019/05/31 at 06:33:13.111     
------------------------------------------------------------------------
 total:
 * wall-time:     0 d,  0 h,  0 min, 16.235 sec
 *  cpu-time:     0 d,  0 h,  0 min, 31.456 sec
 * ratio c/w:     1.938 speedup
 SCF:
 * wall-time:     0 d,  0 h,  0 min, 14.905 sec
 *  cpu-time:     0 d,  0 h,  0 min, 29.360 sec
 * ratio c/w:     1.970 speedup

