      -----------------------------------------------------------      
     |                   =====================                   |     
     |                           x T B                           |     
     |                   =====================                   |     
     |                         S. Grimme                         |     
     |          Mulliken Center for Theoretical Chemistry        |     
     |                    University of Bonn                     |     
     |                 Version 6.0.1 (SAW181210)                 |     
      -----------------------------------------------------------      

   This program is distributed in the hope that it will be useful,
   but WITHOUT ANY WARRANTY; without even the implied warranty of
   MERCHANTABILITY or FITNESS FOR A PARTICULAR PURPOSE.
   
   FOR NON-COMMERCIAL, ACADEMIA USE ONLY.
   
   Cite this work as:
   S. Grimme, C. Bannwarth, P. Shushkov, J. Comput. Theory Chem., 2017,
   13, 1989-2009.
   C. Bannwarth, S. Ehlert and S. Grimme., ChemRxiv, 2018, preprint.
   http://doi.org/10.26434/chemrxiv.7246238.v1
   
   for sTDA-xTB:
   S. Grimme and C. Bannwarth, J. Chem. Phys., 2016, 145, 054103.
   
   in the mass-spec context:
   V. Asgeirsson, C. Bauer and S. Grimme, Chem. Sci., 2017, 8, 4879.
   
   if GBSA is used:
   P. Shushkov, F. März and S. Grimme, unpublished.
   
   for ANC optimizer:
   S. Grimme, unpublished.
   Rational Function algorithm used in ANCopt:
   F. Eckert, P. Pulay, H.-J. Werner, J. Comput. Chem., 1997, 18, 1473.
   
   with help from (in alphabetical order)
   C. Bannwarth, F. Bohle, G. Brandenburg, E. Caldeweyher, M. Checinski,
   S. Dohm, S. Ehlert, S. Ehrlich, F. März, H. Neugebauer, J. Pisarek,
   P. Pracht, P. Shushkov, and S. Spicher.
   
 * started run on 2019/03/14 at 15:08:20.540     
========================================================================
 # omp threads = 1
========================================================================
number of atoms            : 444
number of electrons        : 1164
charge                     : 1
spin                       : .0
first test random number   : .8553
           ------------------------------------------------- 
          |                 G F N 2 - x T B                 |
          | Geometry, Frequencies, Noncovalent interactions |
          |            JCTC 2018 parametrisation            |
           ------------------------------------------------- 
 
      method parameters     
 k(s)        :  1.8500
 k(p)        :  2.2300
 k(d)        :  2.2300
 k(f)        :  2.0000
 kEN (H0ij)  : -2.0000
 D4 a1       :  0.5200
 D4 a2       :  5.0000
 D4 s6       :  1.0000
 D4 s8       :  2.7000
 D4 s9       :  5.0000
 alphaj      :  2.0000

 Solvent             : h2o
 Using internal parameter file: .param_gbsa2_h2o
 Gsolv ref. state (COSMO-RS): gsolv [1 M gas/solution]
 temperature (mdtemp)       :    298.150000000000     
 dielectric constant        :    80.2000000000000     
 rho                        :    1.00000000000000     
 mass                       :    18.0000000000000     
 surface tension            :    15.5689454083859     
 probe radius               :   0.975313790000000     
 vdW radii scaling          :    1.00000000000000     
 Gshift (Eh)                :   1.857443126794793E-003
 c1                         :    1.55243817000000     
 soset                      :   0.130326360000000     
 HB correction              :  T

            Z     q(EN)     CN     RAES       Cart. coordinates
     1  N   5.0   -0.21    3.24    1.96    72.86362    48.65706    43.57781
     2  C   4.0    0.02    4.34    4.27    72.54892    50.46708    41.56700
     3  C   4.0    0.14    3.52    3.13    75.08618    51.41150    40.63322
     4  O   6.0   -0.34    1.58    1.80    75.38876    51.72505    38.34585
     5  C   4.0   -0.05    4.33    4.25    70.82302    52.63027    42.34213
     6  C   4.0   -0.03    4.17    3.94    67.97623    51.99757    42.25147
     7  C   4.0   -0.08    4.13    3.85    66.76798    53.17123    39.91864
     8  C   4.0   -0.07    4.13    3.86    67.25214    49.20574    42.32573
     9  H   1.0    0.08    1.03    1.43    72.23194    49.21166    45.30570
    10  H   1.0    0.04    1.06    1.44    71.70705    49.55490    39.90188
    11  H   1.0    0.04    1.03    1.43    71.36443    53.21509    44.23472
    12  H   1.0    0.04    1.04    1.43    71.17633    54.19570    41.04899
    13  H   1.0    0.04    1.06    1.44    67.11597    52.88639    43.89811
    14  H   1.0    0.04    1.00    1.43    64.72813    53.05434    40.09568
    15  H   1.0    0.03    1.01    1.43    67.32157    55.13350    39.74650
    16  H   1.0    0.04    1.00    1.43    67.31917    52.21717    38.18046
    17  H   1.0    0.04    1.00    1.43    65.20723    49.07780    42.46415
    18  H   1.0    0.04    1.00    1.43    67.77543    48.26611    40.57514
    19  H   1.0    0.04    1.00    1.43    68.06494    48.20710    43.92155
    20  N   5.0   -0.15    3.49    2.07    77.06238    51.79399    42.17154
    21  C   4.0    0.03    4.59    4.65    79.33565    52.66803    40.88038
    22  C   4.0    0.16    3.51    3.12    80.07259    50.83259    38.74936
    23  O   6.0   -0.33    1.27    1.80    81.17345    51.58407    36.84535
    24  C   4.0   -0.03    4.25    4.11    81.50483    53.16380    42.74995
    25  C   4.0   -0.07    4.16    3.92    83.30626    50.93071    42.96025
    26  C   4.0   -0.06    4.13    3.86    82.92117    55.53435    41.95069
    27  H   1.0    0.07    1.06    1.44    76.89599    52.31461    44.00419
    28  H   1.0    0.05    1.07    1.44    78.85037    54.43946    39.91160
    29  H   1.0    0.04    1.06    1.44    80.63865    53.51962    44.58356
    30  H   1.0    0.05    1.00    1.43    84.76787    51.33063    44.34550
    31  H   1.0    0.05    1.01    1.43    82.31024    49.22617    43.50389
    32  H   1.0    0.05    1.01    1.43    84.19337    50.56924    41.14369
    33  H   1.0    0.05    1.00    1.43    84.56314    55.84860    43.13786
    34  H   1.0    0.06    1.01    1.43    83.54047    55.35367    40.00740
    35  H   1.0    0.05    1.00    1.43    81.68767    57.16645    42.06745
    36  N   5.0   -0.14    3.58    2.14    79.43193    48.45080    39.20138
    37  C   4.0    0.03    4.40    4.39    79.72339    46.22700    37.65074
    38  C   4.0    0.14    3.47    3.10    77.68054    45.89435    35.62648
    39  O   6.0   -0.34    1.34    1.80    78.20743    45.03141    33.53767
    40  C   4.0   -0.04    4.40    4.37    79.54056    43.93178    39.41050
    41  C   4.0   -0.02    3.58    3.16    81.49072    43.89030    41.45264
    42  C   4.0   -0.04    3.49    3.11    80.87024    42.75925    43.73719
    43  C   4.0   -0.04    3.51    3.12    83.77133    45.13687    41.23742
    44  C   4.0   -0.03    3.37    3.07    82.45258    42.92274    45.80629
    45  C   4.0   -0.04    3.41    3.08    85.32965    45.34358    43.32004
    46  C   4.0   -0.03    3.38    3.07    84.70610    44.23044    45.59616
    47  H   1.0    0.08    1.11    1.45    78.78876    48.12901    40.97854
    48  H   1.0    0.05    1.05    1.44    81.52638    46.30318    36.62755
    49  H   1.0    0.04    1.05    1.44    77.70972    44.02152    40.34781
    50  H   1.0    0.04    1.05    1.44    79.60839    42.20206    38.31327
    51  H   1.0    0.05    1.03    1.43    79.08046    41.79305    43.88875
    52  H   1.0    0.05    1.03    1.43    84.29817    46.03184    39.48214
    53  H   1.0    0.06    1.03    1.43    81.87426    42.13025    47.59242
    54  H   1.0    0.05    1.04    1.43    86.97871    46.48547    43.14797
    55  H   1.0    0.06    1.03    1.43    85.95492    44.38837    47.19876
    56  N   5.0   -0.14    3.54    2.10    75.33220    46.54481    36.26060
    57  C   4.0    0.03    4.39    4.37    73.21377    46.14047    34.57747
    58  C   4.0    0.14    3.38    3.07    72.87997    48.52371    32.88848
    59  O   6.0   -0.32    1.24    1.80    72.13040    48.36926    30.69617
    60  C   4.0   -0.04    4.27    4.13    70.83395    45.35236    36.04447
    61  C   4.0   -0.02    3.50    3.11    70.82653    42.69964    37.15418
    62  C   4.0   -0.04    3.47    3.10    68.55341    41.36926    37.25099
    63  C   4.0   -0.05    3.50    3.11    72.94022    41.52964    38.18784
    64  C   4.0   -0.03    3.43    3.09    68.40346    38.96978    38.26911
    65  C   4.0   -0.05    3.43    3.09    72.80976    39.14012    39.25593
    66  C   4.0    0.07    3.44    3.09    70.54710    37.81779    39.26834
    67  O   6.0   -0.23    2.11    1.84    70.34177    35.43613    40.20940
    68  H   1.0    0.08    1.07    1.44    74.91858    46.79264    38.12879
    69  H   1.0    0.05    1.06    1.44    73.67740    44.61996    33.23985
    70  H   1.0    0.04    1.03    1.43    70.55782    46.70369    37.58434
    71  H   1.0    0.05    1.03    1.43    69.22151    45.55386    34.76864
    72  H   1.0    0.05    1.03    1.43    66.85963    42.21607    36.48784
    73  H   1.0    0.05    1.04    1.44    74.74317    42.45945    38.18088
    74  H   1.0    0.07    1.03    1.43    66.63739    37.95098    38.28119
    75  H   1.0    0.05    1.03    1.43    74.49684    38.29257    40.04772
    76  H   1.0    0.13    1.04    1.43    71.98723    34.79658    40.68139
    77  N   5.0   -0.15    3.52    2.09    73.64898    50.67637    33.94232
    78  C   4.0    0.03    4.42    4.41    73.98826    53.06759    32.64683
    79  C   4.0    0.15    3.52    3.13    75.53731    52.93883    30.21696
    80  O   6.0   -0.31    1.33    1.80    74.83106    54.16000    28.36719
    81  C   4.0   -0.04    4.35    4.30    75.10766    55.14962    34.34754
    82  C   4.0   -0.02    4.19    3.98    73.14438    56.16878    36.23428
    83  C   4.0   -0.08    4.10    3.81    74.36986    57.93249    38.16769
    84  C   4.0   -0.09    4.13    3.87    70.95801    57.55246    34.94138
    85  H   1.0    0.12    1.20    1.47    74.29975    50.66180    35.75757
    86  H   1.0    0.04    1.09    1.44    72.14761    53.74104    32.03053
    87  H   1.0    0.06    1.04    1.43    76.72520    54.42093    35.38927
    88  H   1.0    0.04    1.03    1.43    75.76751    56.66461    33.11308
    89  H   1.0    0.05    1.07    1.44    72.39026    54.52404    37.21706
    90  H   1.0    0.03    1.00    1.43    72.97110    58.61183    39.51274
    91  H   1.0    0.05    1.00    1.43    75.84448    56.98281    39.23152
    92  H   1.0    0.04    1.00    1.43    75.20476    59.56408    37.24056
    93  H   1.0    0.03    1.00    1.43    69.18072    57.07989    35.85167
    94  H   1.0    0.03    1.01    1.43    71.24280    59.57634    35.05653
    95  H   1.0    0.04    1.02    1.43    70.83381    57.04333    32.97290
    96  N   5.0   -0.10    3.69    2.26    77.71564    51.68247    30.16719
    97  C   4.0    0.03    4.59    4.66    79.30189    51.74685    27.94286
    98  C   4.0    0.15    3.46    3.10    78.14417    50.23668    25.76948
    99  O   6.0   -0.29    1.26    1.80    78.06220    51.07096    23.62235
   100  C   4.0   -0.05    4.30    4.21    81.84879    50.65318    28.78384
   101  C   4.0   -0.04    4.24    4.08    81.27951    49.15037    31.19361
   102  C   4.0    0.01    4.48    4.51    78.60857    49.89858    32.00523
   103  H   1.0    0.06    1.06    1.44    79.43847    53.70370    27.29704
   104  H   1.0    0.04    1.03    1.43    82.63542    49.47616    27.29320
   105  H   1.0    0.04    1.02    1.43    83.18609    52.16728    29.16957
   106  H   1.0    0.04    1.03    1.43    81.32472    47.12717    30.84249
   107  H   1.0    0.05    1.03    1.43    82.62050    49.58468    32.68547
   108  H   1.0    0.07    1.09    1.44    77.37214    48.25735    31.96145
   109  H   1.0    0.07    1.04    1.43    78.55674    50.71376    33.89308
   110  N   5.0   -0.15    3.49    2.07    77.31420    47.90622    26.36615
   111  C   4.0    0.04    4.48    4.51    76.17454    46.35509    24.41927
   112  C   4.0    0.18    3.50    3.12    74.04331    47.79175    23.11259
   113  O   6.0   -0.26    1.22    1.80    73.83410    47.81240    20.81728
   114  C   4.0    0.05    4.23    4.05    75.23066    43.77132    25.40233
   115  O   6.0   -0.24    2.12    1.84    74.50030    42.33161    23.27224
   116  C   4.0   -0.06    4.09    3.78    73.15237    43.89621    27.38265
   117  H   1.0    0.08    1.07    1.44    77.37132    47.26470    28.15894
   118  H   1.0    0.06    1.06    1.44    77.58938    46.01738    22.93845
   119  H   1.0    0.04    1.07    1.44    76.84797    42.84958    26.29117
   120  H   1.0    0.13    1.03    1.43    73.41649    40.97827    23.84394
   121  H   1.0    0.04    1.00    1.43    72.90402    42.04349    28.24075
   122  H   1.0    0.06    1.02    1.43    73.66327    45.20748    28.87076
   123  H   1.0    0.07    1.00    1.43    71.35151    44.48513    26.58419
   124  N   5.0   -0.14    3.54    2.11    72.45889    48.97268    24.69491
   125  C   4.0    0.05    4.43    4.43    70.16684    50.08780    23.72445
   126  C   4.0    0.16    3.39    3.07    70.66536    52.74155    22.67093
   127  O   6.0   -0.27    1.22    1.80    69.39971    53.58175    20.92868
   128  C   4.0   -0.03    4.26    4.11    68.05529    49.88572    25.66998
   129  C   4.0    0.25    3.10    3.02    66.42198    47.44913    25.31973
   130  O   6.0   -0.29    1.22    1.80    65.95188    46.79833    23.10323
   131  O   6.0   -0.29    1.16    1.80    65.67236    46.39341    27.27941
   132  H   1.0    0.10    1.08    1.44    72.56656    48.68059    26.58048
   133  H   1.0    0.09    1.08    1.44    69.58745    48.98227    22.05537
   134  H   1.0    0.06    1.04    1.43    68.82107    49.81211    27.57478
   135  H   1.0    0.06    1.03    1.43    66.77507    51.49207    25.50635
   136  N   5.0   -0.13    3.48    2.07    72.65922    53.97652    23.64730
   137  C   4.0    0.04    4.37    4.32    73.37591    56.48078    22.77395
   138  C   4.0    0.17    3.42    3.08    76.06280    57.15486    23.63312
   139  O   6.0   -0.29    1.27    1.80    76.52033    58.47622    25.45258
   140  C   4.0    0.05    4.18    3.95    71.47605    58.41703    23.86151
   141  O   6.0   -0.25    2.06    1.83    72.23944    60.95743    23.69379
   142  H   1.0    0.12    1.11    1.45    73.43777    53.44093    25.31710
   143  H   1.0    0.06    1.05    1.44    73.31835    56.44588    20.70235
   144  H   1.0    0.07    1.01    1.43    69.65684    58.10804    22.94348
   145  H   1.0    0.05    1.03    1.43    71.31577    57.97626    25.86736
   146  H   1.0    0.13    1.02    1.43    71.49882    61.73575    22.22896
   147  N   5.0   -0.14    3.38    2.01    77.89339    56.32401    22.06193
   148  C   4.0    0.02    4.26    4.12    80.53659    56.63133    22.68707
   149  C   4.0    0.15    3.37    3.07    81.46544    59.35683    22.57946
   150  O   6.0   -0.31    1.28    1.80    83.28682    60.01990    23.83561
   151  H   1.0    0.10    1.07    1.44    77.45260    54.94530    20.82638
   152  H   1.0    0.06    1.03    1.43    80.92831    55.99752    24.61947
   153  H   1.0    0.05    1.03    1.43    81.67008    55.51216    21.37911
   154  N   5.0   -0.14    3.52    2.09    80.16917    60.91455    21.07191
   155  C   4.0    0.03    4.39    4.37    80.80565    63.55974    20.73928
   156  C   4.0    0.16    3.47    3.10    81.25641    64.84052    23.28155
   157  O   6.0   -0.30    1.23    1.80    82.69441    66.63944    23.50471
   158  C   4.0   -0.03    4.29    4.18    78.65444    64.83201    19.27445
   159  C   4.0   -0.02    4.16    3.92    79.23795    67.48941    18.36089
   160  C   4.0    0.26    3.09    3.02    77.06833    68.56769    16.65459
   161  O   6.0   -0.26    1.18    1.80    75.17691    67.20770    16.31096
   162  O   6.0   -0.25    1.16    1.80    77.43287    70.72275    15.77007
   163  H   1.0    0.08    1.08    1.44    78.71238    60.26511    20.02656
   164  H   1.0    0.06    1.05    1.44    82.57505    63.74547    19.66771
   165  H   1.0    0.06    1.03    1.43    78.25016    63.70125    17.59471
   166  H   1.0    0.06    1.03    1.43    76.94065    64.88341    20.42066
   167  H   1.0    0.07    1.02    1.43    79.51094    68.80847    19.92226
   168  H   1.0    0.06    1.02    1.43    80.95821    67.51211    17.22098
   169  N   5.0   -0.13    3.52    2.09    79.97864    63.87591    25.24221
   170  C   4.0    0.04    4.41    4.39    80.17978    64.99012    27.71408
   171  C   4.0    0.15    3.44    3.09    82.40895    64.07333    29.30542
   172  O   6.0   -0.34    1.41    1.80    82.22564    64.07089    31.61585
   173  C   4.0   -0.04    4.33    4.26    77.73593    64.76162    29.22588
   174  C   4.0   -0.04    4.19    3.98    77.02188    62.13578    30.19493
   175  C   4.0   -0.05    4.19    3.99    74.37159    62.25030    31.35990
   176  C   4.0   -0.03    4.13    3.87    72.43084    61.04636    29.61118
   177  N   5.0   -0.12    4.01    2.89    69.80932    61.80918    30.37525
   178  H   1.0    0.10    1.08    1.44    78.75963    62.42099    25.02361
   179  H   1.0    0.05    1.07    1.44    80.56576    67.01584    27.39344
   180  H   1.0    0.04    1.07    1.44    78.04121    65.91108    30.89057
   181  H   1.0    0.04    1.03    1.43    76.20803    65.58685    28.11760
   182  H   1.0    0.07    1.05    1.44    77.02668    60.71235    28.72034
   183  H   1.0    0.05    1.03    1.43    78.39023    61.59032    31.63074
   184  H   1.0    0.03    1.03    1.43    74.40161    61.28346    33.17290
   185  H   1.0    0.03    1.04    1.44    73.88144    64.22241    31.66062
   186  H   1.0    0.07    1.04    1.43    72.73896    61.60073    27.65245
   187  H   1.0    0.05    1.02    1.43    72.64998    59.00154    29.70303
   188  H   1.0    0.05    1.02    1.43    68.54467    60.33095    30.30030
   189  H   1.0    0.05    1.03    1.43    69.83072    62.47914    32.20295
   190  H   1.0    0.07    1.02    1.43    69.13716    63.20083    29.19072
   191  N   5.0   -0.14    3.46    2.05    84.59743    63.49871    28.19090
   192  C   4.0    0.03    4.46    4.47    86.68630    62.67109    29.77317
   193  C   4.0    0.15    3.47    3.10    87.81705    64.81047    31.33968
   194  O   6.0   -0.29    1.26    1.80    88.63136    64.39990    33.46279
   195  C   4.0   -0.04    4.35    4.29    88.79633    61.46197    28.21273
   196  C   4.0   -0.04    4.06    3.73    88.03647    58.80761    27.40311
   197  S   6.0    0.01    2.52    3.10    89.81896    57.86989    24.54801
   198  C   4.0   -0.05    3.88    3.44    87.69249    55.51530    23.33875
   199  H   1.0    0.11    1.07    1.44    84.69120    63.14221    26.31651
   200  H   1.0    0.05    1.06    1.44    85.98022    61.30331    31.16687
   201  H   1.0    0.05    1.05    1.44    89.16377    62.58249    26.52513
   202  H   1.0    0.05    1.03    1.43    90.52329    61.39153    29.32796
   203  H   1.0    0.04    1.06    1.44    88.40557    57.42469    28.88486
   204  H   1.0    0.06    1.08    1.44    86.05405    58.78233    26.86648
   205  H   1.0    0.05    1.05    1.44    88.36384    55.01878    21.45977
   206  H   1.0    0.05    1.03    1.43    87.71634    53.83293    24.52491
   207  H   1.0    0.05    1.05    1.44    85.80347    56.31222    23.23120
   208  N   5.0   -0.15    3.50    2.08    87.91875    67.09792    30.27090
   209  C   4.0    0.04    4.49    4.52    88.99896    69.16139    31.72295
   210  C   4.0    0.17    3.53    3.13    87.17625    69.80112    33.87706
   211  O   6.0   -0.26    1.24    1.80    87.74625    70.03205    36.09090
   212  C   4.0    0.05    4.22    4.03    89.56269    71.62651    30.23124
   213  O   6.0   -0.23    2.17    1.85    89.57045    73.65405    31.95902
   214  C   4.0   -0.06    4.08    3.77    87.63528    72.29449    28.19429
   215  H   1.0    0.08    1.06    1.44    87.40375    67.34560    28.45023
   216  H   1.0    0.07    1.06    1.44    90.73734    68.47647    32.61217
   217  H   1.0    0.05    1.03    1.43    91.44205    71.43575    29.36873
   218  H   1.0    0.14    1.03    1.43    90.80230    73.24431    33.26000
   219  H   1.0    0.06    1.00    1.43    88.31493    73.92992    27.15754
   220  H   1.0    0.05    1.00    1.43    87.34209    70.78362    26.83834
   221  H   1.0    0.05    1.00    1.43    85.86225    72.84269    29.07077
   222  N   5.0   -0.13    3.62    2.18    84.80971    69.97434    33.05993
   223  C   4.0    0.04    4.46    4.48    82.68065    70.23225    34.72826
   224  C   4.0    0.16    3.49    3.11    82.80255    68.22455    36.81802
   225  O   6.0   -0.27    1.23    1.80    82.37725    68.71887    39.04745
   226  C   4.0   -0.05    4.46    4.48    80.42353    69.90545    32.97463
   227  C   4.0   -0.02    4.24    4.07    77.98791    69.53175    34.41786
   228  C   4.0   -0.07    4.18    3.97    77.61072    71.86402    36.05110
   229  C   4.0   -0.08    4.16    3.92    75.77146    69.12812    32.62228
   230  H   1.0    0.08    1.10    1.44    84.42468    69.87622    31.19812
   231  H   1.0    0.06    1.05    1.44    82.69792    72.07771    35.67087
   232  H   1.0    0.04    1.03    1.43    80.24694    71.59654    31.80159
   233  H   1.0    0.05    1.05    1.44    80.83438    68.27177    31.79418
   234  H   1.0    0.04    1.06    1.44    78.17826    67.85043    35.60491
   235  H   1.0    0.04    1.04    1.43    75.67276    72.04364    36.60718
   236  H   1.0    0.06    1.00    1.43    78.75475    71.74932    37.74605
   237  H   1.0    0.05    1.00    1.43    78.01425    73.57590    34.99142
   238  H   1.0    0.03    1.01    1.43    75.06033    67.22644    32.81079
   239  H   1.0    0.04    1.02    1.43    74.29058    70.40530    33.17902
   240  H   1.0    0.04    1.00    1.43    76.25906    69.50900    30.66718
   241  N   5.0   -0.13    3.52    2.09    83.45000    65.91152    36.08457
   242  C   4.0    0.05    4.31    4.21    83.69754    63.84395    37.85443
   243  C   4.0    0.12    3.25    3.04    85.82837    64.42324    39.70639
   244  O   6.0   -0.25    1.11    1.80    85.59367    64.02347    41.97900
   245  C   4.0    0.04    4.15    3.90    84.21521    61.37526    36.41776
   246  O   6.0   -0.25    2.07    1.83    84.27508    59.36678    38.15770
   247  H   1.0    0.12    1.14    1.45    83.52767    65.42699    34.23127
   248  H   1.0    0.06    1.05    1.44    81.97496    63.62964    38.99230
   249  H   1.0    0.05    1.01    1.43    82.69135    61.08426    35.03545
   250  H   1.0    0.06    1.02    1.43    86.02041    61.54658    35.42616
   251  H   1.0    0.12    1.02    1.43    85.39366    58.06274    37.56181
   252  N   5.0   -0.20    3.18    1.95    94.71250    49.96056    31.84226
   253  C   4.0    0.03    4.21    4.01    93.10715    51.84078    30.64866
   254  C   4.0    0.09    3.24    3.04    94.62589    53.33875    28.67522
   255  O   6.0   -0.29    1.16    1.80    93.70792    54.20255    26.76429
   256  C   4.0   -0.04    4.32    4.24    92.26455    53.88347    32.54190
   257  C   4.0    0.05    3.76    3.29    89.89769    53.31098    33.94612
   258  N   5.0   -0.17    2.52    1.90    89.77911    53.39167    36.51667
   259  C   4.0   -0.02    3.60    3.17    87.54128    52.82226    32.98603
   260  C   4.0    0.07    3.65    3.20    87.42099    52.93164    37.08776
   261  N   5.0   -0.12    3.46    2.06    85.97566    52.59331    35.01791
   262  H   1.0    0.09    1.02    1.43    94.61703    49.96185    33.77474
   263  H   1.0    0.04    1.04    1.43    91.43077    51.02603    29.73728
   264  H   1.0    0.06    1.04    1.43    93.78555    54.16405    33.89404
   265  H   1.0    0.05    1.04    1.43    91.97386    55.62609    31.45725
   266  H   1.0    0.04    1.01    1.43    86.92768    52.62031    31.06719
   267  H   1.0    0.04    1.02    1.43    86.68728    52.80120    38.96681
   268  H   1.0    0.10    1.08    1.44    84.07964    52.31975    35.02733
   269  N   5.0   -0.12    4.06    3.02    80.93146    40.62983    16.30724
   270  C   4.0    0.00    4.13    3.86    78.89078    38.64274    16.40866
   271  C   4.0    0.08    3.17    3.03    79.74957    36.19478    17.72408
   272  O   6.0   -0.27    1.12    1.80    78.45251    35.21510    19.34046
   273  C   4.0   -0.06    4.08    3.77    77.90939    38.14526    13.74552
   274  H   1.0    0.06    1.02    1.43    81.47691    40.95080    14.45532
   275  H   1.0    0.06    1.02    1.43    80.20576    42.30537    16.99303
   276  H   1.0    0.06    1.02    1.43    82.50411    40.18466    17.36981
   277  H   1.0    0.06    1.05    1.44    77.33294    39.35026    17.56763
   278  H   1.0    0.06    1.00    1.43    76.41281    36.74254    13.83167
   279  H   1.0    0.05    1.00    1.43    77.09987    39.87030    12.97797
   280  H   1.0    0.05    1.00    1.43    79.36278    37.44786    12.47154
   281  N   5.0   -0.20    3.21    1.96    84.72035    38.24088    24.21571
   282  C   4.0    0.03    4.35    4.29    83.32069    39.08224    26.40589
   283  C   4.0    0.08    3.25    3.04    81.97016    36.81387    27.55883
   284  O   6.0   -0.33    1.26    1.80    82.38765    36.23590    29.76124
   285  C   4.0   -0.03    4.31    4.21    81.56209    41.33683    25.98969
   286  C   4.0   -0.05    4.19    3.98    82.98978    43.64882    24.97592
   287  C   4.0   -0.07    4.21    4.02    80.36073    41.94400    28.54452
   288  C   4.0   -0.08    4.05    3.70    84.98200    44.65506    26.78420
   289  H   1.0    0.09    1.02    1.43    84.05012    38.58371    22.46994
   290  H   1.0    0.04    1.07    1.44    84.75255    39.59751    27.81644
   291  H   1.0    0.05    1.05    1.44    80.08379    40.81681    24.64118
   292  H   1.0    0.04    1.03    1.43    83.92808    43.18322    23.20673
   293  H   1.0    0.04    1.03    1.43    81.62906    45.15223    24.60036
   294  H   1.0    0.04    1.01    1.43    79.73832    43.89335    28.61903
   295  H   1.0    0.04    1.00    1.43    78.76340    40.72139    28.95055
   296  H   1.0    0.04    1.01    1.43    81.72423    41.67597    30.04396
   297  H   1.0    0.04    1.00    1.43    85.88941    46.28320    25.93240
   298  H   1.0    0.03    1.00    1.43    84.18037    45.21335    28.58377
   299  H   1.0    0.04    1.00    1.43    86.42526    43.24282    27.12639
   300  N   5.0   -0.19    3.28    1.98    86.97867    33.51918    31.44364
   301  C   4.0    0.03    4.41    4.40    87.71885    34.68605    33.79516
   302  C   4.0    0.15    3.48    3.11    85.46155    34.67132    35.58020
   303  O   6.0   -0.28    1.24    1.80    85.83043    34.55608    37.86925
   304  C   4.0   -0.02    4.29    4.17    88.88331    37.36092    33.52263
   305  C   4.0   -0.05    4.25    4.09    86.69418    39.19559    33.04631
   306  C   4.0   -0.07    4.10    3.80    90.97851    37.30785    31.54353
   307  C   4.0   -0.08    3.99    3.61    87.21877    42.00800    32.77458
   308  H   1.0    0.10    1.02    1.43    86.63111    34.58641    29.88339
   309  H   1.0    0.06    1.06    1.44    89.12381    33.43925    34.68437
   310  H   1.0    0.05    1.05    1.44    89.73296    37.83731    35.35139
   311  H   1.0    0.05    1.04    1.43    85.62738    38.52109    31.42184
   312  H   1.0    0.05    1.06    1.44    85.49414    39.03669    34.71165
   313  H   1.0    0.04    1.00    1.43    91.79745    39.16739    31.29276
   314  H   1.0    0.05    1.00    1.43    92.48362    36.04995    32.15874
   315  H   1.0    0.04    1.01    1.43    90.24134    36.63601    29.75663
   316  H   1.0    0.04    1.00    1.43    85.43249    42.96671    32.43419
   317  H   1.0    0.04    1.00    1.43    87.97494    42.73003    34.53796
   318  H   1.0    0.04    1.00    1.43    88.49014    42.44455    31.23275
   319  N   5.0   -0.15    3.50    2.08    83.15490    34.80678    34.58361
   320  C   4.0    0.04    4.38    4.35    80.96311    34.91008    36.18974
   321  C   4.0    0.10    3.28    3.05    80.31700    32.36462    37.33241
   322  O   6.0   -0.27    1.12    1.80    79.24059    32.25635    39.38829
   323  C   4.0   -0.04    4.40    4.38    78.49150    35.64576    34.88023
   324  C   4.0   -0.02    4.20    4.00    78.52366    38.10704    33.36296
   325  C   4.0   -0.07    4.12    3.85    75.89395    39.26600    33.35483
   326  C   4.0   -0.07    4.19    3.98    80.47630    39.94652    34.38005
   327  H   1.0    0.12    1.13    1.45    82.87786    34.91080    32.69257
   328  H   1.0    0.06    1.06    1.44    81.36156    36.20967    37.75676
   329  H   1.0    0.05    1.03    1.43    77.91906    34.06808    33.67569
   330  H   1.0    0.05    1.04    1.43    77.09951    35.80173    36.39688
   331  H   1.0    0.06    1.08    1.44    79.05044    37.64033    31.43499
   332  H   1.0    0.05    1.00    1.43    75.83961    40.95693    32.19350
   333  H   1.0    0.05    1.00    1.43    74.51878    37.90469    32.66523
   334  H   1.0    0.05    1.04    1.43    75.38134    39.80985    35.25750
   335  H   1.0    0.06    1.04    1.43    79.95770    41.86275    33.88918
   336  H   1.0    0.04    1.02    1.43    80.67773    39.75816    36.40839
   337  H   1.0    0.05    1.03    1.43    82.27853    39.50182    33.55863
   338  N   5.0   -0.20    3.24    1.96    68.75660    73.24961    39.10746
   339  C   4.0    0.03    4.34    4.27    70.29746    71.78520    40.81995
   340  C   4.0    0.09    3.29    3.05    71.49542    73.46396    42.81294
   341  O   6.0   -0.27    1.12    1.80    71.60290    72.80722    45.02996
   342  C   4.0   -0.03    4.43    4.44    72.46841    70.62810    39.33172
   343  C   4.0   -0.05    4.22    4.04    71.57242    68.88096    37.22784
   344  C   4.0   -0.06    4.16    3.92    74.38029    69.34194    41.06148
   345  C   4.0   -0.08    4.08    3.76    70.44109    66.44389    38.19745
   346  H   1.0    0.08    1.03    1.43    69.37999    73.37634    37.30340
   347  H   1.0    0.05    1.05    1.44    69.17450    70.35460    41.79778
   348  H   1.0    0.04    1.09    1.44    73.35591    72.26898    38.47097
   349  H   1.0    0.04    1.03    1.43    70.23152    69.86526    36.01187
   350  H   1.0    0.03    1.06    1.44    73.22712    68.38687    36.13699
   351  H   1.0    0.04    1.00    1.43    75.65589    68.18762    39.94753
   352  H   1.0    0.06    1.00    1.43    75.49970    70.73531    42.07279
   353  H   1.0    0.05    1.00    1.43    73.43655    68.16359    42.45032
   354  H   1.0    0.04    1.01    1.43    69.80879    65.32693    36.60371
   355  H   1.0    0.04    1.00    1.43    71.85844    65.40080    39.25190
   356  H   1.0    0.04    1.00    1.43    68.84123    66.82667    39.41982
   357  N   5.0   -0.21    3.25    1.97    59.50445    62.53510    39.78140
   358  C   4.0    0.03    4.23    4.07    62.00478    62.03113    38.80338
   359  C   4.0    0.08    3.24    3.04    61.77857    59.74533    37.05707
   360  O   6.0   -0.31    1.19    1.80    62.37344    59.83596    34.83065
   361  C   4.0   -0.05    4.39    4.37    63.72847    61.64026    41.08554
   362  C   4.0   -0.03    4.22    4.04    66.00266    59.94426    40.62891
   363  C   4.0   -0.08    4.18    3.95    67.64633    61.15626    38.61915
   364  C   4.0   -0.08    4.12    3.83    67.54401    59.67494    43.04994
   365  H   1.0    0.08    1.04    1.43    59.33063    62.54424    41.68481
   366  H   1.0    0.05    1.05    1.44    62.61882    63.60090    37.59324
   367  H   1.0    0.04    1.04    1.43    64.41012    63.47631    41.66806
   368  H   1.0    0.04    1.04    1.43    62.60543    60.87538    42.62687
   369  H   1.0    0.04    1.06    1.44    65.33350    58.09838    40.00719
   370  H   1.0    0.03    1.02    1.43    69.41038    60.15701    38.40213
   371  H   1.0    0.05    1.00    1.43    66.65377    61.22794    36.82330
   372  H   1.0    0.04    1.04    1.43    68.11139    63.03556    39.25021
   373  H   1.0    0.04    1.00    1.43    69.25729    58.61290    42.66496
   374  H   1.0    0.04    1.00    1.43    68.08561    61.53794    43.72099
   375  H   1.0    0.04    1.00    1.43    66.49999    58.71198    44.53236
   376  N   5.0   -0.20    3.26    1.97    58.27369    61.79078    31.34574
   377  C   4.0    0.04    4.30    4.19    59.82134    63.49937    29.86892
   378  C   4.0    0.17    3.41    3.08    62.20213    62.21069    28.76312
   379  O   6.0   -0.28    1.20    1.80    63.64223    63.32540    27.35307
   380  C   4.0    0.04    4.17    3.93    60.73150    65.72991    31.49317
   381  O   6.0   -0.24    2.08    1.84    63.01887    65.11938    32.71439
   382  H   1.0    0.10    1.03    1.43    58.25967    62.13741    33.24588
   383  H   1.0    0.05    1.05    1.44    58.70456    64.26087    28.29676
   384  H   1.0    0.05    1.01    1.43    61.01017    67.35795    30.24571
   385  H   1.0    0.04    1.01    1.43    59.26300    66.14664    32.89291
   386  H   1.0    0.11    1.02    1.43    63.71268    66.66950    33.38684
   387  N   5.0   -0.13    3.57    2.13    62.52319    59.88022    29.67040
   388  C   4.0    0.03    4.39    4.37    64.46505    58.07517    29.02591
   389  C   4.0    0.14    3.47    3.10    63.43490    56.28543    26.99869
   390  O   6.0   -0.28    1.25    1.80    64.54495    55.88121    25.00997
   391  C   4.0   -0.05    4.37    4.33    65.23220    56.72121    31.47451
   392  C   4.0   -0.03    4.17    3.95    66.89300    54.35530    31.27901
   393  C   4.0   -0.07    4.11    3.82    65.31247    51.97421    30.93179
   394  C   4.0   -0.07    4.17    3.94    68.83953    54.63147    29.18485
   395  H   1.0    0.11    1.14    1.45    61.45299    59.43191    31.18784
   396  H   1.0    0.06    1.06    1.44    66.00747    59.08746    28.08913
   397  H   1.0    0.05    1.03    1.43    66.12294    58.11405    32.70592
   398  H   1.0    0.05    1.05    1.44    63.49952    56.14363    32.40927
   399  H   1.0    0.03    1.06    1.44    67.84741    54.15693    33.10421
   400  H   1.0    0.05    1.00    1.43    66.47083    50.28379    31.10156
   401  H   1.0    0.04    1.00    1.43    63.82287    51.88610    32.34193
   402  H   1.0    0.05    1.01    1.43    64.45112    51.90476    29.07069
   403  H   1.0    0.06    1.01    1.43    70.02895    52.97007    29.04893
   404  H   1.0    0.06    1.02    1.43    67.90108    54.85994    27.38165
   405  H   1.0    0.04    1.00    1.43    70.05045    56.25369    29.48750
   406  N   5.0   -0.15    3.51    2.08    61.17993    55.28037    27.54751
   407  C   4.0    0.04    4.34    4.28    59.93317    53.70968    25.69530
   408  C   4.0    0.10    3.26    3.05    59.47024    55.32125    23.33092
   409  O   6.0   -0.29    1.21    1.80    59.70890    54.41552    21.18739
   410  C   4.0   -0.05    4.25    4.11    57.57381    52.60927    26.94836
   411  C   4.0   -0.04    4.17    3.95    55.84365    51.02315    25.26822
   412  C   4.0   -0.00    4.19    3.98    57.10812    48.70508    24.09744
   413  N   5.0   -0.13    3.45    2.05    58.64981    49.46340    21.95975
   414  C   4.0    0.11    3.38    3.07    60.65365    48.27096    21.06416
   415  N   5.0   -0.16    3.25    1.97    61.04224    45.81128    21.46680
   416  N   5.0   -0.16    3.25    1.97    62.13034    49.50890    19.41846
   417  H   1.0    0.07    1.06    1.44    60.50788    55.23792    29.35175
   418  H   1.0    0.06    1.05    1.44    61.22391    52.20385    25.06443
   419  H   1.0    0.04    1.03    1.43    58.27738    51.48208    28.52723
   420  H   1.0    0.05    1.03    1.43    56.48180    54.17967    27.72392
   421  H   1.0    0.05    1.03    1.43    54.28082    50.37476    26.44251
   422  H   1.0    0.06    1.03    1.43    55.06993    52.21288    23.77293
   423  H   1.0    0.05    1.02    1.43    58.29076    47.77252    25.52066
   424  H   1.0    0.05    1.02    1.43    55.65803    47.39550    23.42696
   425  H   1.0    0.11    1.16    1.46    58.60229    51.34027    21.49893
   426  H   1.0    0.09    1.04    1.43    60.02943    44.98867    22.85453
   427  H   1.0    0.12    1.06    1.44    62.86602    45.24328    21.29180
   428  H   1.0    0.12    1.05    1.44    61.98839    51.41529    19.43293
   429  H   1.0    0.11    1.04    1.43    63.88411    48.81628    19.14614
   430  H   1.0    0.09    1.07    1.44    72.01698    47.23211    43.19666
   431  H   1.0    0.08    1.05    1.44    87.45784    65.14379    39.07655
   432  H   1.0    0.10    1.07    1.44    94.25618    48.40862    31.31709
   433  H   1.0    0.07    1.05    1.44    96.47251    53.64351    28.93632
   434  H   1.0    0.06    1.04    1.44    81.39381    35.39364    17.24900
   435  H   1.0    0.09    1.07    1.44    86.25976    38.96390    24.21357
   436  H   1.0    0.06    1.04    1.43    80.75347    35.80959    26.51857
   437  H   1.0    0.10    1.07    1.44    88.19841    32.45022    30.93166
   438  H   1.0    0.07    1.05    1.44    80.76626    30.77527    36.41415
   439  H   1.0    0.10    1.07    1.44    67.20173    72.56638    39.01729
   440  H   1.0    0.06    1.05    1.44    72.21613    75.14168    42.32622
   441  H   1.0    0.10    1.07    1.44    58.98736    64.06760    39.25545
   442  H   1.0    0.05    1.05    1.44    61.12483    58.10434    37.72851
   443  H   1.0    0.10    1.07    1.44    56.65892    61.89036    30.82119
   444  H   1.0    0.07    1.04    1.44    58.96702    57.13422    23.50684

  Z AO/shell   Hii/eV     exponent
  1     Wed Apr 25 08:07:45 CEST 2018   EN: 2.200 GM2: 0.406  GM3: 0.0800  RAES: 1.40
     1s    -10.707211    1.230000
  6     Wed Apr 25 08:07:45 CEST 2018   EN: 2.550 GM2: 0.538  GM3: 0.1500  RAES: 3.00
     2s    -13.970922    2.096432
     2p    -10.063292    1.800000
  7     Wed Apr 25 08:07:45 CEST 2018   EN: 3.040 GM2: 0.461  GM3:-0.0640  RAES: 1.90
     2s    -16.686243    2.339881
     2p    -12.523956    2.014332
  8     Wed Apr 25 08:07:45 CEST 2018   EN: 3.440 GM2: 0.452  GM3:-0.0517  RAES: 1.80
     2s    -20.229985    2.439742
     2p    -15.503117    2.137023
 16     Tue Apr 24 11:44:34 CEST 2018   EN: 2.580 GM2: 0.340  GM3:-0.0502  RAES: 3.10
     3s    -20.029654    1.981333
     3p    -11.377694    2.025643
     3d     -0.420282    1.702555
 no old-style atom pair restraining (fixing) potential

molecular fragmentation (1/2 indicates fragments):
111111111111111111111111111111111111111111111111111111111111111111111111
111111111111111111111111111111111111111111111111111111111111111111111111
111111111111111111111111111111111111111111111111111111111111111111111111
111111111111111111111111111111111112222222222222222222222222222222222222
222222222222222222222222222222222222222222222222222222222222222222222222
222222222222222222222222222222222222222222222222222222222222222222222112
222222222222
# atoms in fragment 1/2:   253   191
 fragment masses (1/2) :     1784.07     1146.56
CMA distance (Bohr)    :   6.410
constraining FC (au)   :  0.0500
           ------------------------------------------------- 
          |        Self-Consistent Charge Iterations        |
           ------------------------------------------------- 

 Ncao       : 1065
 Nao        : 1064
 Nshell     : 650
 Nel        : 1164
 T(el)      :   500.0
 intcut     :    35.0
 scfconv/Eh :  0.100E-06
   qconv/e  :  0.100E-04
 intneglect :  0.100E-08
 broydamp   :      0.400
 iter      E             dE          RMSdq      gap      omega  full diag
   1   -662.6388214 -0.662639E+03  0.445E+00    2.80       0.0  T
   2   -664.0666216 -0.142780E+01  0.211E+00    1.10       1.0  T
   3   -664.1502243 -0.836028E-01  0.118E+00    1.28       1.0  T
   4   -664.2538341 -0.103610E+00  0.242E-01    0.66       1.0  T
   5   -664.2595465 -0.571237E-02  0.116E-01    0.84       1.0  T
   6   -664.2605549 -0.100839E-02  0.490E-02    0.82       1.0  T
   7   -664.2608538 -0.298959E-03  0.213E-02    0.83       1.0  T
   8   -664.2608883 -0.344679E-04  0.100E-02    0.83       1.0  T
   9   -664.2608996 -0.113131E-04  0.466E-03    0.83       1.0  T
  10   -664.2609017 -0.209737E-05  0.221E-03    0.83       2.1  T
  11   -664.2609021 -0.409787E-06  0.102E-03    0.83       4.6  T
  12   -664.2609022 -0.103119E-06  0.495E-04    0.83       9.6  T
  13   -664.2609023 -0.322307E-07  0.236E-04    0.83      20.1  T
  14   -664.2609023 -0.454918E-08  0.108E-04    0.83      43.9  T
  15   -664.2609023 -0.122668E-08  0.446E-05    0.83     106.4  T
  16   -664.2609023 -0.195996E-09  0.191E-05    0.83     248.9  T
speedup  1.00
cpu  time for SCC    8.06 s
wall time for SCC    8.06 s

   *** convergence criteria satisfied after 16 iterations ***

          eigenvalues
 #    :         570        571        572        573        574        575        576        577
 occ. :        2.000      2.000      2.000      2.000      2.000      2.000      2.000      2.000
 eps  :       -10.391    -10.326    -10.289    -10.237    -10.217    -10.134    -10.013     -9.990
 #    :         578        579        580        581        582        583        584        585
 occ. :        2.000      2.000      2.000      2.000      2.000      0.000      0.000      0.000
 eps  :        -9.934     -9.868     -9.853     -9.622     -9.394     -8.563     -8.359     -7.958
 #    :         586        587        588        589        590        591        592        593
 occ. :        0.000      0.000      0.000      0.000      0.000      0.000      0.000      0.000
 eps  :        -7.751     -7.622     -7.616     -7.502     -7.354     -6.904     -6.746     -6.608


   #   Z            q   n(s)   n(p)   n(d)      C6AA      α(0)
   1   7 N     -0.391  1.314  4.077  0.000    30.114     8.150
   2   6 C      0.031  1.052  2.916  0.000    20.066     6.380
   3   6 C      0.256  1.056  2.688  0.000    22.694     7.803
   4   8 O     -0.472  1.737  4.736  0.000    23.180     6.455
   5   6 C     -0.079  1.060  3.019  0.000    22.006     6.678
   6   6 C     -0.016  1.056  2.959  0.000    20.819     6.490
   7   6 C     -0.123  1.044  3.080  0.000    22.913     6.824
   8   6 C     -0.112  1.038  3.074  0.000    22.690     6.792
   9   1 H      0.165  0.835  0.000  0.000     1.303     1.788
  10   1 H      0.049  0.951  0.000  0.000     2.332     2.388
  11   1 H      0.046  0.954  0.000  0.000     2.376     2.411
  12   1 H      0.062  0.938  0.000  0.000     2.179     2.309
  13   1 H      0.041  0.959  0.000  0.000     2.437     2.441
  14   1 H      0.041  0.959  0.000  0.000     2.437     2.441
  15   1 H      0.056  0.944  0.000  0.000     2.242     2.341
  16   1 H      0.040  0.960  0.000  0.000     2.451     2.448
  17   1 H      0.040  0.960  0.000  0.000     2.446     2.446
  18   1 H      0.034  0.966  0.000  0.000     2.537     2.491
  19   1 H      0.036  0.964  0.000  0.000     2.496     2.471
  20   7 N     -0.179  1.267  3.912  0.000    24.878     7.408
  21   6 C      0.007  1.072  2.920  0.000    20.438     6.433
  22   6 C      0.284  1.040  2.676  0.000    22.180     7.712
  23   8 O     -0.480  1.732  4.747  0.000    23.336     6.477
  24   6 C     -0.022  1.062  2.960  0.000    20.925     6.506
  25   6 C     -0.119  1.039  3.080  0.000    22.843     6.814
  26   6 C     -0.126  1.042  3.084  0.000    22.970     6.833
  27   1 H      0.224  0.776  0.000  0.000     0.992     1.561
  28   1 H      0.086  0.914  0.000  0.000     1.914     2.163
  29   1 H      0.055  0.945  0.000  0.000     2.258     2.350
  30   1 H      0.051  0.949  0.000  0.000     2.302     2.373
  31   1 H      0.047  0.953  0.000  0.000     2.363     2.404
  32   1 H      0.041  0.959  0.000  0.000     2.441     2.443
  33   1 H      0.048  0.952  0.000  0.000     2.350     2.397
  34   1 H      0.057  0.943  0.000  0.000     2.239     2.340
  35   1 H      0.055  0.945  0.000  0.000     2.261     2.351
  36   7 N     -0.170  1.232  3.938  0.000    24.677     7.378
  37   6 C      0.013  1.062  2.925  0.000    20.367     6.428
  38   6 C      0.262  1.044  2.693  0.000    22.576     7.781
  39   8 O     -0.461  1.741  4.720  0.000    22.934     6.421
  40   6 C     -0.086  1.055  3.032  0.000    22.124     6.693
  41   6 C      0.006  1.075  2.919  0.000    27.884     8.662
  42   6 C     -0.045  1.080  2.965  0.000    29.128     8.851
  43   6 C     -0.043  1.077  2.966  0.000    29.068     8.842
  44   6 C     -0.032  1.081  2.951  0.000    28.792     8.799
  45   6 C     -0.033  1.078  2.955  0.000    28.814     8.803
  46   6 C     -0.034  1.079  2.955  0.000    28.846     8.808
  47   1 H      0.206  0.794  0.000  0.000     1.077     1.626
  48   1 H      0.091  0.909  0.000  0.000     1.873     2.140
  49   1 H      0.061  0.939  0.000  0.000     2.185     2.312
  50   1 H      0.087  0.913  0.000  0.000     1.910     2.161
  51   1 H      0.041  0.959  0.000  0.000     2.438     2.442
  52   1 H      0.042  0.958  0.000  0.000     2.421     2.433
  53   1 H      0.035  0.965  0.000  0.000     2.516     2.481
  54   1 H      0.040  0.960  0.000  0.000     2.448     2.447
  55   1 H      0.032  0.968  0.000  0.000     2.562     2.503
  56   7 N     -0.174  1.249  3.925  0.000    24.767     7.391
  57   6 C      0.014  1.066  2.919  0.000    20.342     6.423
  58   6 C      0.264  1.046  2.690  0.000    22.538     7.773
  59   8 O     -0.520  1.755  4.765  0.000    24.232     6.600
  60   6 C     -0.072  1.055  3.017  0.000    21.866     6.657
  61   6 C     -0.004  1.078  2.926  0.000    28.120     8.698
  62   6 C     -0.040  1.085  2.955  0.000    29.003     8.832
  63   6 C     -0.048  1.077  2.970  0.000    29.184     8.859
  64   6 C     -0.057  1.076  2.981  0.000    29.416     8.894
  65   6 C     -0.074  1.077  2.997  0.000    29.856     8.960
  66   6 C      0.148  1.044  2.808  0.000    24.785     8.159
  67   8 O     -0.437  1.722  4.714  0.000    21.571     6.270
  68   1 H      0.205  0.795  0.000  0.000     1.082     1.629
  69   1 H      0.083  0.917  0.000  0.000     1.949     2.183
  70   1 H      0.058  0.942  0.000  0.000     2.221     2.331
  71   1 H      0.067  0.933  0.000  0.000     2.123     2.278
  72   1 H      0.046  0.954  0.000  0.000     2.370     2.408
  73   1 H      0.050  0.950  0.000  0.000     2.323     2.383
  74   1 H      0.048  0.952  0.000  0.000     2.342     2.393
  75   1 H      0.042  0.958  0.000  0.000     2.423     2.434
  76   1 H      0.344  0.656  0.000  0.000     0.603     1.220
  77   7 N     -0.205  1.262  3.944  0.000    25.465     7.495
  78   6 C      0.011  1.061  2.929  0.000    20.409     6.434
  79   6 C      0.256  1.048  2.696  0.000    22.701     7.803
  80   8 O     -0.509  1.747  4.762  0.000    23.977     6.565
  81   6 C     -0.085  1.062  3.022  0.000    22.113     6.694
  82   6 C     -0.024  1.059  2.965  0.000    20.975     6.514
  83   6 C     -0.116  1.042  3.075  0.000    22.778     6.805
  84   6 C     -0.156  1.051  3.105  0.000    23.580     6.924
  85   1 H      0.255  0.745  0.000  0.000     0.863     1.455
  86   1 H      0.092  0.908  0.000  0.000     1.856     2.130
  87   1 H      0.071  0.929  0.000  0.000     2.078     2.254
  88   1 H      0.062  0.938  0.000  0.000     2.175     2.306
  89   1 H      0.054  0.946  0.000  0.000     2.273     2.358
  90   1 H      0.050  0.950  0.000  0.000     2.326     2.385
  91   1 H      0.028  0.972  0.000  0.000     2.611     2.527
  92   1 H      0.049  0.951  0.000  0.000     2.327     2.386
  93   1 H      0.064  0.936  0.000  0.000     2.156     2.296
  94   1 H      0.066  0.934  0.000  0.000     2.129     2.282
  95   1 H      0.051  0.949  0.000  0.000     2.310     2.377
  96   7 N     -0.093  1.232  3.861  0.000    23.054     7.131
  97   6 C      0.018  1.064  2.918  0.000    20.244     6.402
  98   6 C      0.273  1.043  2.684  0.000    22.383     7.748
  99   8 O     -0.480  1.750  4.729  0.000    23.340     6.477
 100   6 C     -0.077  1.055  3.021  0.000    21.951     6.668
 101   6 C     -0.078  1.052  3.027  0.000    21.977     6.672
 102   6 C     -0.015  1.051  2.963  0.000    20.881     6.513
 103   1 H      0.069  0.931  0.000  0.000     2.097     2.265
 104   1 H      0.070  0.930  0.000  0.000     2.088     2.259
 105   1 H      0.066  0.934  0.000  0.000     2.128     2.281
 106   1 H      0.072  0.928  0.000  0.000     2.058     2.244
 107   1 H      0.075  0.925  0.000  0.000     2.031     2.228
 108   1 H      0.054  0.946  0.000  0.000     2.273     2.357
 109   1 H      0.083  0.917  0.000  0.000     1.945     2.181
 110   7 N     -0.189  1.243  3.946  0.000    25.096     7.440
 111   6 C      0.016  1.065  2.918  0.000    20.306     6.416
 112   6 C      0.291  1.034  2.675  0.000    22.061     7.692
 113   8 O     -0.490  1.747  4.742  0.000    23.563     6.508
 114   6 C      0.098  1.049  2.853  0.000    19.058     6.233
 115   8 O     -0.485  1.723  4.762  0.000    22.578     6.414
 116   6 C     -0.134  1.041  3.094  0.000    23.144     6.861
 117   1 H      0.205  0.795  0.000  0.000     1.079     1.627
 118   1 H      0.087  0.913  0.000  0.000     1.907     2.160
 119   1 H      0.068  0.932  0.000  0.000     2.113     2.273
 120   1 H      0.345  0.655  0.000  0.000     0.601     1.218
 121   1 H      0.060  0.940  0.000  0.000     2.205     2.322
 122   1 H      0.061  0.939  0.000  0.000     2.183     2.311
 123   1 H      0.036  0.964  0.000  0.000     2.498     2.471
 124   7 N     -0.200  1.256  3.944  0.000    25.346     7.477
 125   6 C      0.038  1.055  2.907  0.000    19.930     6.356
 126   6 C      0.275  1.047  2.678  0.000    22.342     7.740
 127   8 O     -0.499  1.750  4.749  0.000    23.761     6.535
 128   6 C     -0.102  1.071  3.031  0.000    22.454     6.747
 129   6 C      0.366  1.023  2.611  0.000    20.797     7.463
 130   8 O     -0.633  1.761  4.872  0.000    26.942     6.959
 131   8 O     -0.619  1.767  4.852  0.000    26.598     6.915
 132   1 H      0.211  0.789  0.000  0.000     1.050     1.605
 133   1 H      0.066  0.934  0.000  0.000     2.127     2.281
 134   1 H      0.058  0.942  0.000  0.000     2.226     2.333
 135   1 H      0.039  0.961  0.000  0.000     2.462     2.454
 136   7 N     -0.195  1.257  3.938  0.000    25.226     7.459
 137   6 C      0.013  1.066  2.921  0.000    20.370     6.427
 138   6 C      0.275  1.044  2.681  0.000    22.356     7.743
 139   8 O     -0.424  1.720  4.703  0.000    22.156     6.311
 140   6 C      0.065  1.036  2.899  0.000    19.702     6.358
 141   8 O     -0.458  1.700  4.757  0.000    22.001     6.332
 142   1 H      0.224  0.776  0.000  0.000     0.990     1.559
 143   1 H      0.054  0.946  0.000  0.000     2.270     2.356
 144   1 H      0.041  0.959  0.000  0.000     2.442     2.444
 145   1 H      0.077  0.923  0.000  0.000     2.013     2.219
 146   1 H      0.332  0.668  0.000  0.000     0.631     1.248
 147   7 N     -0.184  1.251  3.933  0.000    24.982     7.423
 148   6 C     -0.027  1.049  2.978  0.000    21.122     6.556
 149   6 C      0.275  1.038  2.688  0.000    22.357     7.742
 150   8 O     -0.475  1.735  4.739  0.000    23.227     6.462
 151   1 H      0.213  0.787  0.000  0.000     1.040     1.597
 152   1 H      0.090  0.910  0.000  0.000     1.881     2.145
 153   1 H      0.102  0.898  0.000  0.000     1.769     2.080
 154   7 N     -0.179  1.243  3.936  0.000    24.886     7.409
 155   6 C      0.021  1.064  2.916  0.000    20.237     6.406
 156   6 C      0.279  1.039  2.683  0.000    22.286     7.731
 157   8 O     -0.499  1.749  4.750  0.000    23.752     6.534
 158   6 C     -0.055  1.052  3.002  0.000    21.549     6.608
 159   6 C     -0.091  1.063  3.028  0.000    22.239     6.715
 160   6 C      0.370  1.026  2.604  0.000    20.725     7.450
 161   8 O     -0.638  1.768  4.870  0.000    27.079     6.977
 162   8 O     -0.660  1.780  4.880  0.000    27.641     7.049
 163   1 H      0.207  0.793  0.000  0.000     1.069     1.620
 164   1 H      0.066  0.934  0.000  0.000     2.129     2.282
 165   1 H      0.051  0.949  0.000  0.000     2.307     2.375
 166   1 H      0.053  0.947  0.000  0.000     2.287     2.365
 167   1 H      0.024  0.976  0.000  0.000     2.676     2.558
 168   1 H      0.019  0.981  0.000  0.000     2.751     2.594
 169   7 N     -0.169  1.235  3.934  0.000    24.668     7.377
 170   6 C      0.017  1.057  2.926  0.000    20.289     6.414
 171   6 C      0.264  1.048  2.688  0.000    22.549     7.777
 172   8 O     -0.469  1.729  4.741  0.000    23.114     6.446
 173   6 C     -0.103  1.059  3.043  0.000    22.452     6.745
 174   6 C     -0.087  1.049  3.038  0.000    22.158     6.702
 175   6 C     -0.102  1.059  3.044  0.000    22.450     6.745
 176   6 C     -0.060  1.066  2.994  0.000    21.744     6.656
 177   7 N     -0.131  1.225  3.907  0.000    23.837     7.251
 178   1 H      0.217  0.783  0.000  0.000     1.024     1.585
 179   1 H      0.079  0.921  0.000  0.000     1.985     2.203
 180   1 H      0.097  0.903  0.000  0.000     1.812     2.105
 181   1 H      0.073  0.927  0.000  0.000     2.050     2.239
 182   1 H      0.079  0.921  0.000  0.000     1.994     2.208
 183   1 H      0.063  0.937  0.000  0.000     2.159     2.298
 184   1 H      0.090  0.910  0.000  0.000     1.878     2.143
 185   1 H      0.082  0.918  0.000  0.000     1.959     2.188
 186   1 H      0.132  0.868  0.000  0.000     1.520     1.928
 187   1 H      0.106  0.894  0.000  0.000     1.732     2.058
 188   1 H      0.262  0.738  0.000  0.000     0.838     1.434
 189   1 H      0.286  0.714  0.000  0.000     0.755     1.362
 190   1 H      0.293  0.707  0.000  0.000     0.735     1.343
 191   7 N     -0.173  1.248  3.925  0.000    24.754     7.389
 192   6 C      0.016  1.062  2.922  0.000    20.296     6.414
 193   6 C      0.273  1.039  2.687  0.000    22.379     7.747
 194   8 O     -0.479  1.750  4.729  0.000    23.322     6.475
 195   6 C     -0.068  1.051  3.017  0.000    21.772     6.638
 196   6 C     -0.021  1.070  2.951  0.000    20.956     6.519
 197  16 S     -0.225  1.927  4.246  0.052   150.652    20.658
 198   6 C     -0.061  1.052  3.010  0.000    21.746     6.652
 199   1 H      0.217  0.783  0.000  0.000     1.023     1.585
 200   1 H      0.087  0.913  0.000  0.000     1.904     2.158
 201   1 H      0.065  0.935  0.000  0.000     2.137     2.286
 202   1 H      0.059  0.941  0.000  0.000     2.205     2.322
 203   1 H      0.049  0.951  0.000  0.000     2.334     2.389
 204   1 H      0.079  0.921  0.000  0.000     1.988     2.205
 205   1 H      0.066  0.934  0.000  0.000     2.134     2.284
 206   1 H      0.060  0.940  0.000  0.000     2.194     2.316
 207   1 H      0.062  0.938  0.000  0.000     2.178     2.308
 208   7 N     -0.184  1.242  3.943  0.000    24.996     7.425
 209   6 C     -0.001  1.071  2.930  0.000    20.592     6.460
 210   6 C      0.292  1.031  2.677  0.000    22.052     7.690
 211   8 O     -0.490  1.753  4.737  0.000    23.570     6.509
 212   6 C      0.111  1.048  2.841  0.000    18.857     6.200
 213   8 O     -0.471  1.726  4.745  0.000    22.286     6.373
 214   6 C     -0.135  1.041  3.095  0.000    23.163     6.863
 215   1 H      0.210  0.790  0.000  0.000     1.057     1.610
 216   1 H      0.075  0.925  0.000  0.000     2.034     2.230
 217   1 H      0.041  0.959  0.000  0.000     2.441     2.443
 218   1 H      0.328  0.672  0.000  0.000     0.643     1.260
 219   1 H      0.079  0.921  0.000  0.000     1.989     2.205
 220   1 H      0.060  0.940  0.000  0.000     2.200     2.319
 221   1 H      0.070  0.930  0.000  0.000     2.090     2.261
 222   7 N     -0.184  1.244  3.940  0.000    24.985     7.424
 223   6 C      0.022  1.061  2.917  0.000    20.204     6.400
 224   6 C      0.288  1.038  2.675  0.000    22.127     7.703
 225   8 O     -0.507  1.755  4.751  0.000    23.930     6.559
 226   6 C     -0.085  1.064  3.021  0.000    22.096     6.688
 227   6 C     -0.014  1.051  2.963  0.000    20.788     6.485
 228   6 C     -0.132  1.040  3.091  0.000    23.068     6.846
 229   6 C     -0.149  1.049  3.100  0.000    23.427     6.900
 230   1 H      0.204  0.796  0.000  0.000     1.085     1.632
 231   1 H      0.071  0.929  0.000  0.000     2.077     2.254
 232   1 H      0.060  0.940  0.000  0.000     2.200     2.320
 233   1 H      0.056  0.944  0.000  0.000     2.252     2.347
 234   1 H      0.037  0.963  0.000  0.000     2.489     2.467
 235   1 H      0.065  0.935  0.000  0.000     2.136     2.285
 236   1 H      0.034  0.966  0.000  0.000     2.526     2.485
 237   1 H      0.035  0.965  0.000  0.000     2.519     2.482
 238   1 H      0.070  0.930  0.000  0.000     2.082     2.257
 239   1 H      0.071  0.929  0.000  0.000     2.079     2.255
 240   1 H      0.053  0.947  0.000  0.000     2.277     2.360
 241   7 N     -0.190  1.250  3.940  0.000    25.116     7.443
 242   6 C      0.031  1.059  2.910  0.000    20.067     6.379
 243   6 C      0.218  1.082  2.701  0.000    23.402     7.922
 244   8 O     -0.364  1.752  4.611  0.000    20.969     6.139
 245   6 C      0.069  1.041  2.890  0.000    19.635     6.348
 246   8 O     -0.450  1.706  4.744  0.000    21.837     6.308
 247   1 H      0.234  0.766  0.000  0.000     0.947     1.524
 248   1 H      0.099  0.901  0.000  0.000     1.798     2.097
 249   1 H      0.075  0.925  0.000  0.000     2.036     2.231
 250   1 H      0.046  0.954  0.000  0.000     2.364     2.405
 251   1 H      0.323  0.677  0.000  0.000     0.656     1.273
 252   7 N     -0.394  1.331  4.063  0.000    30.204     8.162
 253   6 C      0.039  1.058  2.903  0.000    19.935     6.361
 254   6 C      0.197  1.090  2.712  0.000    23.794     7.989
 255   8 O     -0.369  1.751  4.618  0.000    21.069     6.154
 256   6 C     -0.068  1.052  3.016  0.000    21.782     6.642
 257   6 C      0.055  1.063  2.882  0.000    26.188     8.336
 258   7 N     -0.317  1.497  3.821  0.000    29.069     7.994
 259   6 C     -0.035  1.061  2.974  0.000    28.818     8.804
 260   6 C      0.082  1.060  2.857  0.000    25.816     8.301
 261   7 N     -0.104  1.249  3.855  0.000    23.284     7.167
 262   1 H      0.170  0.830  0.000  0.000     1.275     1.769
 263   1 H      0.050  0.950  0.000  0.000     2.326     2.385
 264   1 H      0.067  0.933  0.000  0.000     2.119     2.276
 265   1 H      0.038  0.962  0.000  0.000     2.480     2.463
 266   1 H      0.041  0.959  0.000  0.000     2.441     2.443
 267   1 H      0.046  0.954  0.000  0.000     2.370     2.407
 268   1 H      0.226  0.774  0.000  0.000     0.982     1.552
 269   7 N     -0.149  1.232  3.917  0.000    24.219     7.309
 270   6 C     -0.005  1.071  2.935  0.000    20.698     6.482
 271   6 C      0.196  1.078  2.725  0.000    23.811     7.991
 272   8 O     -0.329  1.763  4.566  0.000    20.322     6.044
 273   6 C     -0.154  1.044  3.110  0.000    23.548     6.920
 274   1 H      0.314  0.686  0.000  0.000     0.674     1.286
 275   1 H      0.306  0.694  0.000  0.000     0.696     1.307
 276   1 H      0.290  0.710  0.000  0.000     0.744     1.352
 277   1 H      0.138  0.862  0.000  0.000     1.474     1.899
 278   1 H      0.090  0.910  0.000  0.000     1.880     2.144
 279   1 H      0.101  0.899  0.000  0.000     1.773     2.082
 280   1 H      0.095  0.905  0.000  0.000     1.832     2.116
 281   7 N     -0.383  1.308  4.075  0.000    29.909     8.122
 282   6 C      0.030  1.059  2.911  0.000    20.081     6.382
 283   6 C      0.197  1.093  2.710  0.000    23.790     7.988
 284   8 O     -0.355  1.744  4.612  0.000    20.809     6.116
 285   6 C     -0.036  1.068  2.968  0.000    21.178     6.545
 286   6 C     -0.066  1.050  3.016  0.000    21.755     6.640
 287   6 C     -0.130  1.043  3.088  0.000    23.049     6.844
 288   6 C     -0.120  1.035  3.085  0.000    22.853     6.817
 289   1 H      0.162  0.838  0.000  0.000     1.321     1.800
 290   1 H      0.065  0.935  0.000  0.000     2.140     2.287
 291   1 H      0.049  0.951  0.000  0.000     2.337     2.390
 292   1 H      0.050  0.950  0.000  0.000     2.322     2.383
 293   1 H      0.034  0.966  0.000  0.000     2.525     2.485
 294   1 H      0.047  0.953  0.000  0.000     2.360     2.402
 295   1 H      0.042  0.958  0.000  0.000     2.418     2.432
 296   1 H      0.065  0.935  0.000  0.000     2.136     2.285
 297   1 H      0.037  0.963  0.000  0.000     2.491     2.468
 298   1 H      0.048  0.952  0.000  0.000     2.349     2.397
 299   1 H      0.045  0.955  0.000  0.000     2.386     2.416
 300   7 N     -0.392  1.312  4.080  0.000    30.147     8.155
 301   6 C      0.031  1.063  2.906  0.000    20.060     6.379
 302   6 C      0.273  1.047  2.680  0.000    22.394     7.750
 303   8 O     -0.543  1.762  4.781  0.000    24.764     6.672
 304   6 C     -0.020  1.065  2.955  0.000    20.892     6.501
 305   6 C     -0.072  1.051  3.021  0.000    21.873     6.658
 306   6 C     -0.111  1.035  3.075  0.000    22.676     6.790
 307   6 C     -0.111  1.035  3.076  0.000    22.683     6.792
 308   1 H      0.164  0.836  0.000  0.000     1.312     1.794
 309   1 H      0.029  0.971  0.000  0.000     2.604     2.524
 310   1 H      0.021  0.979  0.000  0.000     2.715     2.577
 311   1 H      0.054  0.946  0.000  0.000     2.265     2.354
 312   1 H      0.034  0.966  0.000  0.000     2.530     2.488
 313   1 H      0.049  0.951  0.000  0.000     2.333     2.389
 314   1 H      0.030  0.970  0.000  0.000     2.590     2.517
 315   1 H      0.049  0.951  0.000  0.000     2.336     2.390
 316   1 H      0.050  0.950  0.000  0.000     2.326     2.385
 317   1 H      0.033  0.967  0.000  0.000     2.550     2.497
 318   1 H      0.044  0.956  0.000  0.000     2.402     2.424
 319   7 N     -0.185  1.245  3.941  0.000    25.021     7.429
 320   6 C      0.035  1.052  2.913  0.000    19.986     6.365
 321   6 C      0.204  1.087  2.709  0.000    23.665     7.968
 322   8 O     -0.390  1.758  4.632  0.000    21.485     6.215
 323   6 C     -0.069  1.060  3.009  0.000    21.798     6.643
 324   6 C     -0.015  1.054  2.961  0.000    20.809     6.488
 325   6 C     -0.123  1.042  3.082  0.000    22.917     6.825
 326   6 C     -0.147  1.043  3.104  0.000    23.383     6.894
 327   1 H      0.258  0.742  0.000  0.000     0.852     1.446
 328   1 H      0.081  0.919  0.000  0.000     1.971     2.196
 329   1 H      0.048  0.952  0.000  0.000     2.346     2.395
 330   1 H      0.058  0.942  0.000  0.000     2.227     2.333
 331   1 H      0.051  0.949  0.000  0.000     2.305     2.374
 332   1 H      0.047  0.953  0.000  0.000     2.355     2.400
 333   1 H      0.031  0.969  0.000  0.000     2.574     2.509
 334   1 H      0.049  0.951  0.000  0.000     2.334     2.389
 335   1 H      0.084  0.916  0.000  0.000     1.940     2.178
 336   1 H      0.029  0.971  0.000  0.000     2.602     2.523
 337   1 H      0.058  0.942  0.000  0.000     2.222     2.331
 338   7 N     -0.401  1.324  4.077  0.000    30.399     8.189
 339   6 C      0.041  1.052  2.907  0.000    19.899     6.353
 340   6 C      0.203  1.090  2.707  0.000    23.680     7.970
 341   8 O     -0.397  1.762  4.635  0.000    21.625     6.235
 342   6 C     -0.025  1.065  2.960  0.000    20.974     6.512
 343   6 C     -0.083  1.051  3.032  0.000    22.076     6.689
 344   6 C     -0.112  1.037  3.076  0.000    22.701     6.793
 345   6 C     -0.124  1.039  3.085  0.000    22.939     6.829
 346   1 H      0.169  0.831  0.000  0.000     1.277     1.770
 347   1 H      0.053  0.947  0.000  0.000     2.282     2.362
 348   1 H      0.039  0.961  0.000  0.000     2.462     2.454
 349   1 H      0.043  0.957  0.000  0.000     2.410     2.428
 350   1 H      0.072  0.928  0.000  0.000     2.069     2.249
 351   1 H      0.059  0.941  0.000  0.000     2.213     2.326
 352   1 H      0.015  0.985  0.000  0.000     2.805     2.619
 353   1 H      0.049  0.951  0.000  0.000     2.334     2.389
 354   1 H      0.064  0.936  0.000  0.000     2.153     2.295
 355   1 H      0.056  0.944  0.000  0.000     2.243     2.342
 356   1 H      0.036  0.964  0.000  0.000     2.503     2.474
 357   7 N     -0.391  1.314  4.077  0.000    30.119     8.151
 358   6 C      0.034  1.056  2.909  0.000    20.013     6.373
 359   6 C      0.195  1.092  2.714  0.000    23.843     7.997
 360   8 O     -0.351  1.741  4.611  0.000    20.728     6.104
 361   6 C     -0.075  1.060  3.015  0.000    21.913     6.662
 362   6 C     -0.021  1.055  2.966  0.000    20.921     6.506
 363   6 C     -0.155  1.046  3.110  0.000    23.548     6.917
 364   6 C     -0.115  1.041  3.075  0.000    22.757     6.801
 365   1 H      0.162  0.838  0.000  0.000     1.322     1.801
 366   1 H      0.058  0.942  0.000  0.000     2.224     2.332
 367   1 H      0.047  0.953  0.000  0.000     2.358     2.401
 368   1 H      0.043  0.957  0.000  0.000     2.405     2.425
 369   1 H      0.038  0.962  0.000  0.000     2.473     2.459
 370   1 H      0.064  0.936  0.000  0.000     2.147     2.292
 371   1 H      0.047  0.953  0.000  0.000     2.358     2.401
 372   1 H      0.060  0.940  0.000  0.000     2.194     2.316
 373   1 H      0.044  0.956  0.000  0.000     2.390     2.418
 374   1 H      0.037  0.963  0.000  0.000     2.483     2.464
 375   1 H      0.030  0.970  0.000  0.000     2.587     2.515
 376   7 N     -0.384  1.312  4.073  0.000    29.943     8.127
 377   6 C      0.019  1.061  2.920  0.000    20.279     6.414
 378   6 C      0.276  1.043  2.681  0.000    22.325     7.737
 379   8 O     -0.498  1.747  4.751  0.000    23.737     6.532
 380   6 C      0.077  1.040  2.882  0.000    19.497     6.325
 381   8 O     -0.466  1.714  4.751  0.000    22.165     6.355
 382   1 H      0.166  0.834  0.000  0.000     1.298     1.785
 383   1 H      0.037  0.963  0.000  0.000     2.495     2.470
 384   1 H      0.025  0.975  0.000  0.000     2.660     2.551
 385   1 H      0.029  0.971  0.000  0.000     2.606     2.524
 386   1 H      0.339  0.661  0.000  0.000     0.615     1.232
 387   7 N     -0.178  1.240  3.938  0.000    24.851     7.404
 388   6 C      0.002  1.066  2.932  0.000    20.555     6.457
 389   6 C      0.280  1.040  2.680  0.000    22.270     7.728
 390   8 O     -0.492  1.766  4.727  0.000    23.617     6.516
 391   6 C     -0.109  1.068  3.041  0.000    22.569     6.762
 392   6 C     -0.025  1.058  2.967  0.000    20.988     6.516
 393   6 C     -0.113  1.039  3.074  0.000    22.719     6.796
 394   6 C     -0.124  1.040  3.084  0.000    22.920     6.826
 395   1 H      0.246  0.754  0.000  0.000     0.898     1.484
 396   1 H      0.079  0.921  0.000  0.000     1.985     2.204
 397   1 H      0.089  0.911  0.000  0.000     1.890     2.150
 398   1 H      0.087  0.913  0.000  0.000     1.907     2.160
 399   1 H      0.066  0.934  0.000  0.000     2.127     2.281
 400   1 H      0.036  0.964  0.000  0.000     2.499     2.472
 401   1 H      0.053  0.947  0.000  0.000     2.280     2.362
 402   1 H      0.022  0.978  0.000  0.000     2.707     2.573
 403   1 H      0.041  0.959  0.000  0.000     2.437     2.441
 404   1 H      0.038  0.962  0.000  0.000     2.474     2.460
 405   1 H      0.042  0.958  0.000  0.000     2.421     2.433
 406   7 N     -0.179  1.248  3.931  0.000    24.884     7.409
 407   6 C      0.027  1.056  2.916  0.000    20.118     6.387
 408   6 C      0.204  1.093  2.702  0.000    23.656     7.965
 409   8 O     -0.363  1.756  4.607  0.000    20.950     6.137
 410   6 C     -0.089  1.061  3.029  0.000    22.201     6.707
 411   6 C     -0.088  1.052  3.036  0.000    22.179     6.705
 412   6 C     -0.022  1.053  2.969  0.000    21.050     6.547
 413   7 N     -0.167  1.233  3.934  0.000    24.622     7.370
 414   6 C      0.238  1.023  2.739  0.000    23.012     7.854
 415   7 N     -0.257  1.266  3.990  0.000    26.666     7.669
 416   7 N     -0.265  1.266  4.000  0.000    26.877     7.700
 417   1 H      0.233  0.767  0.000  0.000     0.951     1.528
 418   1 H      0.074  0.926  0.000  0.000     2.044     2.236
 419   1 H      0.089  0.911  0.000  0.000     1.891     2.150
 420   1 H      0.093  0.907  0.000  0.000     1.853     2.129
 421   1 H      0.098  0.902  0.000  0.000     1.799     2.098
 422   1 H      0.072  0.928  0.000  0.000     2.065     2.247
 423   1 H      0.075  0.925  0.000  0.000     2.036     2.232
 424   1 H      0.094  0.906  0.000  0.000     1.844     2.123
 425   1 H      0.242  0.758  0.000  0.000     0.916     1.499
 426   1 H      0.237  0.763  0.000  0.000     0.934     1.514
 427   1 H      0.246  0.754  0.000  0.000     0.898     1.485
 428   1 H      0.236  0.764  0.000  0.000     0.940     1.519
 429   1 H      0.231  0.769  0.000  0.000     0.962     1.537
 430   1 H      0.178  0.822  0.000  0.000     1.225     1.733
 431   1 H      0.061  0.939  0.000  0.000     2.182     2.310
 432   1 H      0.188  0.812  0.000  0.000     1.167     1.692
 433   1 H      0.065  0.935  0.000  0.000     2.140     2.287
 434   1 H      0.108  0.892  0.000  0.000     1.710     2.045
 435   1 H      0.188  0.812  0.000  0.000     1.170     1.694
 436   1 H      0.080  0.920  0.000  0.000     1.976     2.198
 437   1 H      0.178  0.822  0.000  0.000     1.225     1.733
 438   1 H      0.067  0.933  0.000  0.000     2.117     2.275
 439   1 H      0.189  0.811  0.000  0.000     1.161     1.688
 440   1 H      0.061  0.939  0.000  0.000     2.192     2.315
 441   1 H      0.175  0.825  0.000  0.000     1.241     1.745
 442   1 H      0.071  0.929  0.000  0.000     2.076     2.253
 443   1 H      0.188  0.812  0.000  0.000     1.167     1.692
 444   1 H      0.091  0.909  0.000  0.000     1.867     2.137

 Mol. C6AA /au·bohr⁶  :    1745692.845786
 Mol. C8AA /au·bohr⁸  :   38851845.539817
 Mol. α(0) /au        :       1978.378541

 
molecular dipole:
                 x           y           z       tot (Debye)
 q only:       62.474      30.892      30.591
   full:       62.232      30.810      30.934     193.227
molecular quadrupole (traceless):
                xx          xy          yy          xz          yz          zz
 q only:     3325.493    2159.026   -2119.382    2630.639    1970.435   -1206.110
  q+dip:     3279.190    2091.588   -2119.110    2616.954    1968.710   -1160.080
   full:     3280.656    2087.298   -2115.257    2615.456    1972.543   -1165.399
speedup  1.00
cpu  time for grad   10.45 s
wall time for grad   10.45 s

SCC energy    :    -664.2794390
rep           :       8.2122428
ES            :       1.8933903
AES           :      -0.0498227
AXC           :       0.2361178
disp          :      -0.5964848
XB            :       0.0000000
fix           :       0.0000000
Gborn         :       0.0000000
Gsasa         :       0.0000000
Ghb           :       0.0000000
Gshift        :       0.0000000
Gsolv         :      -0.4884038     -306.48
Etot ala COSMO:    -664.2794390
grad norm     :       0.5974050
total E       :    -656.0034774
atomizationE  :     121.5546606    76276.70
(atE without considering molecular charge,
 total energy contains solvation terms)
H-L gap (eV)  :          0.8314

------------------------------------------------------------------------
 * finished run on 2019/03/14 at 15:08:31.801     
------------------------------------------------------------------------
 total:
 * wall-time:     0 d,  0 h,  0 min, 11.261 sec
 *  cpu-time:     0 d,  0 h,  0 min, 11.097 sec
 * ratio c/w:     0.986 speedup
 SCF:
 * wall-time:     0 d,  0 h,  0 min, 10.929 sec
 *  cpu-time:     0 d,  0 h,  0 min, 10.929 sec
 * ratio c/w:     1.000 speedup

