      -----------------------------------------------------------      
     |                   =====================                   |     
     |                           x T B                           |     
     |                   =====================                   |     
     |                         S. Grimme                         |     
     |          Mulliken Center for Theoretical Chemistry        |     
     |                    University of Bonn                     |     
     |                Version 6.1 RC1 (SAW190329)                |     
      -----------------------------------------------------------      

   This program is distributed in the hope that it will be useful,
   but WITHOUT ANY WARRANTY; without even the implied warranty of
   MERCHANTABILITY or FITNESS FOR A PARTICULAR PURPOSE.
   
   FOR NON-COMMERCIAL, ACADEMIA USE ONLY.
   
   Cite this work as:
   S. Grimme, C. Bannwarth, P. Shushkov, J. Comput. Theory Chem., 2017,
   13, 1989-2009. DOI: 10.1021/acs.jctc.7b00118
   C. Bannwarth, S. Ehlert and S. Grimme., J. Comput. Theory Chem., 2019,
   just accepted. DOI: 10.1021/acs.jctc.8b01176
   
   for sTDA-xTB:
   S. Grimme and C. Bannwarth, J. Chem. Phys., 2016, 145, 054103.
   DOI: 10.1063/1.4959605
   
   in the mass-spec context:
   V. Asgeirsson, C. Bauer and S. Grimme, Chem. Sci., 2017, 8, 4879.
   DOI: 10.1039/c7sc00601b
   
   for metadynamics refer to:
   S. Grimme, ChemRxiv, Preprint. DOI: 10.26434/chemrxiv.7660532.v1
   
   with help from (in alphabetical order)
   C. Bannwarth, F. Bohle, G. Brandenburg, E. Caldeweyher, M. Checinski,
   S. Dohm, S. Ehlert, S. Ehrlich, F. März, H. Neugebauer, J. Pisarek,
   P. Pracht, P. Shushkov, and S. Spicher.
   
 * started run on 2019/05/31 at 02:07:13.144     

           -------------------------------------------------
          |                Calculation Setup                |
           -------------------------------------------------

          program call               : /home/lum/qr/xtb-190329/bin/xtb xtb_tmp.xyz --chrg 1 --grad --gfn 2 --etemp 500 --acc 0.1 --gbsa h2o --parallel 4
          hostname                   : cu39
          coordinate file            : xtb_tmp.xyz
          omp threads                :                     4
          number of atoms            :                   413
          number of electrons        :                  1076
          charge                     :                     1
          spin                       :                   0.0
          first test random number   :      0.77634720643494


molecular fragmentation (1/2 indicates fragments):
111111111111111111112222222222222222222222222222222222222222222222222222
222222222222222222222222222222222222222222222222222222222222222222222222
222222222222222222222222222222222222222222222222222222222222222222222222
222222222222222222222222222222222222222222222222222222222222222222222222
222222222222222222222222222222222222222222222222222222222222222222222222
22222222222222222222222222222222211222222222222222222
# atoms in fragment 1/2:    22   391
 fragment masses (1/2) :      149.19     2545.16
CMA distance (Bohr)    :  19.088
constraining FC (au)   :  0.0500

########################################################################
# WARNING! Please study the warnings concerning your input carefully
#  - XTBPATH is not set, using XTBHOME instead
#  - Process number higher than OMP_NUM_THREADS, I hope you know what you are doing.
########################################################################

           ------------------------------------------------- 
          |                 G F N 2 - x T B                 |
          | Geometry, Frequencies, Noncovalent interactions |
          |            JCTC 2018 parametrisation            |
           ------------------------------------------------- 
 
             k(s)              :                1.8500
             k(p)              :                2.2300
             k(d)              :                2.2300
             k(f)              :                2.0000
             kEN (H0ij)        :               -2.0000
             D4 a1             :                0.5200
             D4 a2             :                5.0000
             D4 s6             :                1.0000
             D4 s8             :                2.7000
             D4 s9             :                5.0000
             alphaj            :                2.0000

  Z AO/shell   Hii/eV     exponent
  1     Wed Apr 25 08:07:45 CEST 2018   EN: 2.200 GM2: 0.406  GM3: 0.0800  RAES: 1.40
     1s    -10.707211    1.230000
  6     Wed Apr 25 08:07:45 CEST 2018   EN: 2.550 GM2: 0.538  GM3: 0.1500  RAES: 3.00
     2s    -13.970922    2.096432
     2p    -10.063292    1.800000
  7     Wed Apr 25 08:07:45 CEST 2018   EN: 3.040 GM2: 0.461  GM3:-0.0640  RAES: 1.90
     2s    -16.686243    2.339881
     2p    -12.523956    2.014332
  8     Wed Apr 25 08:07:45 CEST 2018   EN: 3.440 GM2: 0.452  GM3:-0.0517  RAES: 1.80
     2s    -20.229985    2.439742
     2p    -15.503117    2.137023

 Solvent             : h2o
 Using internal parameter file: .param_gbsa2_h2o
 Gsolv ref. state (COSMO-RS): gsolv [1 M gas/solution]
 temperature (mdtemp)       :    298.150000000000     
 dielectric constant        :    80.2000000000000     
 rho                        :    1.00000000000000     
 mass                       :    18.0000000000000     
 surface tension            :    15.5689454083859     
 probe radius               :   0.975313790000000     
 vdW radii scaling          :    1.00000000000000     
 Gshift (Eh)                :   1.857443126794793E-003
 c1                         :    1.55243817000000     
 soset                      :   0.130326360000000     
 HB correction              :  T
 Number of grid points      :          230

            Z     q(EN)     CN     RAES       Cart. coordinates
     1  N   5.0   -0.71    3.00    1.93    72.66507    82.14923    37.80957
     2  C   4.0    0.07    3.98    3.59    70.03476    82.77690    38.27921
     3  C   4.0    0.07    3.00    3.02    69.43827    85.59772    38.06216
     4  O   6.0   -0.48    1.00    1.80    67.24533    86.28783    37.90736
     5  C   4.0   -0.12    3.99    3.60    69.19326    81.79973    40.87051
     6  C   4.0   -0.04    3.03    3.02    69.04192    78.96278    40.89585
     7  C   4.0   -0.11    3.03    3.02    67.38735    77.74114    39.26184
     8  C   4.0   -0.10    3.03    3.02    70.55159    77.52588    42.48390
     9  C   4.0   -0.12    3.03    3.02    67.26634    75.13381    39.19061
    10  C   4.0   -0.11    3.03    3.02    70.40932    74.91481    42.44041
    11  C   4.0   -0.11    3.03    3.02    68.78016    73.71457    40.78663
    12  H   1.0    0.27    1.00    1.43    73.56120    81.04421    39.10059
    13  H   1.0    0.11    0.99    1.43    68.86088    81.88651    36.81904
    14  H   1.0    0.11    0.99    1.43    70.50529    82.48042    42.30170
    15  H   1.0    0.11    0.99    1.43    67.33334    82.60327    41.25747
    16  H   1.0    0.10    1.00    1.43    66.18599    78.83531    38.02765
    17  H   1.0    0.11    1.00    1.43    71.82881    78.44121    43.77945
    18  H   1.0    0.10    1.00    1.43    66.00349    74.20742    37.88595
    19  H   1.0    0.11    1.00    1.43    71.58551    73.79205    43.66423
    20  H   1.0    0.10    1.00    1.43    68.70529    71.67702    40.73391
    21  N   5.0   -0.71    3.00    1.93    63.32396    79.58950    32.80621
    22  C   4.0    0.05    3.98    3.58    61.12759    79.36501    34.43734
    23  C   4.0    0.08    3.00    3.02    59.13424    77.67742    33.17585
    24  O   6.0   -0.46    1.00    1.80    58.20346    75.85214    34.25422
    25  C   4.0   -0.13    3.98    3.59    60.02191    81.96690    35.05300
    26  C   4.0   -0.14    3.98    3.58    61.77966    83.52623    36.74358
    27  C   4.0   -0.03    3.98    3.59    60.41411    85.76059    37.98819
    28  N   5.0   -0.47    3.02    1.93    59.66630    87.71337    36.20832
    29  C   4.0    0.38    3.00    3.02    61.14424    89.59575    35.42178
    30  N   5.0   -0.64    3.01    1.93    63.57431    89.72436    36.02558
    31  N   5.0   -0.63    3.02    1.93    60.13821    91.34322    33.91149
    32  H   1.0    0.26    1.00    1.43    64.02574    81.34044    32.47640
    33  H   1.0    0.10    0.99    1.43    61.68558    78.37613    36.17406
    34  H   1.0    0.14    0.99    1.43    59.66009    82.96234    33.28790
    35  H   1.0    0.12    0.99    1.43    58.22408    81.68349    36.02207
    36  H   1.0    0.09    0.99    1.43    62.50224    82.33896    38.26463
    37  H   1.0    0.14    0.99    1.43    63.39476    84.21687    35.66977
    38  H   1.0    0.13    0.99    1.43    58.68710    85.08223    38.88614
    39  H   1.0    0.11    0.99    1.43    61.64744    86.56498    39.43660
    40  H   1.0    0.29    1.00    1.43    57.78289    87.97131    35.93431
    41  H   1.0    0.31    1.00    1.43    64.47567    88.34553    37.00235
    42  H   1.0    0.27    1.00    1.43    64.69936    91.08447    35.29225
    43  H   1.0    0.30    1.00    1.43    58.26618    91.28763    33.48672
    44  H   1.0    0.27    1.00    1.43    61.16433    92.85214    33.37953
    45  N   5.0   -0.69    3.00    1.93    60.91193    70.49468    31.74567
    46  C   4.0    0.08    3.99    3.60    61.16977    68.92762    33.97065
    47  C   4.0    0.29    3.01    3.02    58.60316    68.52412    35.21955
    48  O   6.0   -0.46    1.00    1.80    57.94199    66.43211    35.98417
    49  C   4.0   -0.09    3.98    3.59    63.16181    70.04327    35.75582
    50  C   4.0   -0.23    3.99    3.60    63.38142    68.41825    38.11937
    51  C   4.0   -0.23    3.99    3.59    65.70867    70.14692    34.39595
    52  H   1.0    0.27    1.00    1.43    61.70609    72.23821    31.78537
    53  H   1.0    0.12    0.99    1.43    61.82024    67.04635    33.38063
    54  H   1.0    0.12    0.99    1.43    62.54519    71.94789    36.28543
    55  H   1.0    0.09    0.99    1.43    64.73836    69.23795    39.42362
    56  H   1.0    0.11    0.99    1.43    61.56862    68.26612    39.06742
    57  H   1.0    0.11    0.99    1.43    64.00973    66.52807    37.61065
    58  H   1.0    0.10    0.99    1.43    67.22373    70.51692    35.73158
    59  H   1.0    0.11    0.99    1.43    66.08058    68.33273    33.50703
    60  H   1.0    0.11    0.99    1.43    65.71726    71.61628    32.96601
    61  N   5.0   -0.48    3.01    1.93    57.10164    70.54908    35.37052
    62  C   4.0    0.06    3.99    3.61    54.55675    70.29961    36.35634
    63  C   4.0    0.10    3.00    3.02    53.21391    68.12070    34.99599
    64  O   6.0   -0.46    1.00    1.80    52.09544    66.44397    36.14133
    65  C   4.0   -0.13    3.99    3.60    53.12054    72.77549    35.99516
    66  C   4.0   -0.12    3.98    3.59    50.54226    72.73805    37.29653
    67  C   4.0    0.28    3.00    3.02    48.97403    74.99996    36.46464
    68  O   6.0   -0.36    1.00    1.80    48.65452    75.52149    34.24211
    69  N   5.0   -0.65    3.00    1.93    47.95674    76.36501    38.34276
    70  H   1.0    0.30    1.00    1.43    57.66044    72.30502    34.83596
    71  H   1.0    0.13    0.99    1.43    54.64315    69.81221    38.37303
    72  H   1.0    0.14    0.99    1.43    54.26477    74.30112    36.77421
    73  H   1.0    0.15    0.99    1.43    52.85133    73.13159    33.98198
    74  H   1.0    0.13    0.99    1.43    49.52160    71.03384    36.73447
    75  H   1.0    0.10    0.99    1.43    50.75644    72.72081    39.34172
    76  H   1.0    0.30    1.00    1.43    48.27121    75.98903    40.18540
    77  H   1.0    0.30    1.00    1.43    46.88398    77.87626    37.89972
    78  N   5.0   -0.69    3.00    1.93    55.67740    61.24328    36.36633
    79  C   4.0    0.08    3.98    3.59    54.57020    60.23628    38.66183
    80  C   4.0    0.28    3.01    3.02    51.86058    59.36663    38.18013
    81  O   6.0   -0.39    1.00    1.80    51.16787    57.21180    38.66400
    82  C   4.0   -0.13    3.99    3.60    54.61249    62.17973    40.81304
    83  C   4.0   -0.04    3.03    3.02    57.10028    62.16255    42.18817
    84  C   4.0   -0.10    3.03    3.02    57.63118    60.24333    43.90211
    85  C   4.0   -0.10    3.03    3.02    58.90181    64.01628    41.75320
    86  C   4.0   -0.11    3.03    3.02    59.92013    60.18048    45.16073
    87  C   4.0   -0.12    3.03    3.02    61.19363    63.96138    43.01591
    88  C   4.0   -0.11    3.03    3.02    61.70072    62.04637    44.72135
    89  H   1.0    0.32    1.00    1.43    56.26135    63.06717    36.32828
    90  H   1.0    0.12    0.99    1.43    55.61859    58.52852    39.20496
    91  H   1.0    0.13    0.99    1.43    54.22085    64.03752    40.00952
    92  H   1.0    0.10    0.99    1.43    53.10397    61.69009    42.13388
    93  H   1.0    0.11    0.99    1.43    56.24114    58.78453    44.23053
    94  H   1.0    0.13    1.00    1.43    58.50480    65.48715    40.39638
    95  H   1.0    0.11    1.00    1.43    60.31691    58.67544    46.47632
    96  H   1.0    0.10    1.00    1.43    62.59012    65.40488    42.66293
    97  H   1.0    0.11    1.00    1.43    63.48578    62.01306    45.70805
    98  N   5.0   -0.49    3.01    1.93    50.26826    61.14392    37.35760
    99  C   4.0    0.07    3.99    3.60    47.61434    60.56072    37.02689
   100  C   4.0    0.12    3.00    3.02    47.21301    57.99378    35.73488
   101  O   6.0   -0.37    1.00    1.80    45.49654    56.57964    36.37894
   102  C   4.0   -0.01    3.98    3.58    46.28811    62.68394    35.55325
   103  O   6.0   -0.44    1.99    1.82    46.74081    62.67893    32.94741
   104  H   1.0    0.29    1.00    1.43    50.90827    62.88092    36.85670
   105  H   1.0    0.12    0.99    1.43    46.71236    60.41614    38.89322
   106  H   1.0    0.13    0.99    1.43    44.24546    62.48050    35.77692
   107  H   1.0    0.12    0.99    1.43    46.89053    64.49246    36.38938
   108  H   1.0    0.27    0.99    1.43    48.56803    62.53330    32.65765
   109  N   5.0   -0.71    3.00    1.93    43.32541    47.85119    52.78546
   110  C   4.0    0.06    3.98    3.58    42.92982    50.56049    52.61981
   111  C   4.0    0.08    3.00    3.02    41.58593    51.63610    54.93377
   112  O   6.0   -0.46    1.00    1.80    42.00551    53.78466    55.67677
   113  C   4.0   -0.15    3.98    3.59    41.34754    51.11251    50.24231
   114  C   4.0   -0.14    3.98    3.58    40.44055    53.84094    49.98803
   115  C   4.0   -0.04    3.99    3.59    42.61646    55.74996    49.90126
   116  N   5.0   -0.49    3.02    1.93    41.70689    58.31593    49.62883
   117  C   4.0    0.37    3.00    3.02    40.93928    59.80207    51.52662
   118  N   5.0   -0.64    3.01    1.93    40.96645    59.02007    53.89656
   119  N   5.0   -0.65    3.02    1.93    40.15367    62.13103    50.98881
   120  H   1.0    0.26    1.00    1.43    42.87265    46.81415    51.21919
   121  H   1.0    0.11    0.99    1.43    44.76001    51.52590    52.50344
   122  H   1.0    0.11    0.99    1.43    42.48839    50.62460    48.59564
   123  H   1.0    0.12    0.99    1.43    39.68488    49.89615    50.29298
   124  H   1.0    0.12    0.99    1.43    39.35547    53.99270    48.24347
   125  H   1.0    0.14    0.99    1.43    39.17380    54.30959    51.54470
   126  H   1.0    0.12    0.99    1.43    43.73701    55.64230    51.62826
   127  H   1.0    0.10    0.99    1.43    43.84553    55.34609    48.29363
   128  H   1.0    0.23    1.00    1.43    41.42242    58.94217    47.85176
   129  H   1.0    0.30    1.00    1.43    41.38232    57.21050    54.34682
   130  H   1.0    0.26    1.00    1.43    40.29434    60.15120    55.32624
   131  H   1.0    0.26    1.00    1.43    40.29725    62.80979    49.21506
   132  H   1.0    0.30    1.00    1.43    39.89645    63.39535    52.40583
   133  N   5.0   -0.54    3.03    1.93    43.85198    62.42853    62.90477
   134  C   4.0    0.06    4.02    3.66    44.25486    65.12724    63.25025
   135  C   4.0    0.27    3.01    3.02    46.60446    66.04044    61.86504
   136  O   6.0   -0.47    1.00    1.80    46.65436    68.09862    60.79958
   137  C   4.0   -0.13    4.01    3.64    44.41798    65.44838    66.11772
   138  C   4.0   -0.15    4.02    3.65    42.64320    63.37624    67.04677
   139  C   4.0   -0.05    4.02    3.66    43.24844    61.18940    65.27195
   140  H   1.0    0.10    0.99    1.43    42.62625    66.16477    62.48200
   141  H   1.0    0.11    0.99    1.43    46.33950    65.06917    66.76103
   142  H   1.0    0.10    0.99    1.43    43.85241    67.33029    66.71173
   143  H   1.0    0.10    0.99    1.43    42.94673    62.85900    69.00932
   144  H   1.0    0.11    0.99    1.43    40.68176    63.94459    66.77753
   145  H   1.0    0.11    0.99    1.43    44.88498    60.12993    65.95341
   146  H   1.0    0.10    0.99    1.43    41.65307    59.91189    65.07181
   147  N   5.0   -0.49    3.01    1.93    48.62376    64.54112    62.06789
   148  C   4.0    0.07    3.99    3.61    51.03396    65.17409    60.94126
   149  C   4.0    0.28    3.01    3.02    50.90076    65.26914    58.05080
   150  O   6.0   -0.46    1.00    1.80    51.87032    67.01978    56.87757
   151  C   4.0   -0.15    3.99    3.60    53.03421    63.25032    61.74283
   152  C   4.0   -0.10    3.98    3.58    53.52847    63.19884    64.59883
   153  C   4.0   -0.23    3.98    3.59    55.37391    61.06152    65.20082
   154  C   4.0   -0.22    3.98    3.59    54.56500    65.72116    65.54079
   155  H   1.0    0.24    1.00    1.43    48.42174    62.75849    62.72118
   156  H   1.0    0.13    0.99    1.43    51.54613    67.08553    61.55433
   157  H   1.0    0.10    0.99    1.43    52.39172    61.38493    61.14252
   158  H   1.0    0.10    0.99    1.43    54.79057    63.67954    60.74990
   159  H   1.0    0.11    0.99    1.43    51.75752    62.77968    65.58398
   160  H   1.0    0.11    0.99    1.43    55.67815    60.90878    67.22849
   161  H   1.0    0.10    0.99    1.43    54.63074    59.25859    64.54851
   162  H   1.0    0.10    0.99    1.43    57.20099    61.37209    64.31073
   163  H   1.0    0.11    0.99    1.43    55.19356    65.53653    67.48803
   164  H   1.0    0.11    0.99    1.43    56.16030    66.28777    64.37769
   165  H   1.0    0.11    0.99    1.43    53.13195    67.18968    65.46914
   166  N   5.0   -0.49    3.01    1.93    49.79363    63.30489    56.94162
   167  C   4.0    0.07    4.00    3.63    49.51029    63.20432    54.21783
   168  C   4.0    0.29    3.01    3.02    48.08661    65.54732    53.30192
   169  O   6.0   -0.47    1.00    1.80    48.86135    66.86133    51.56454
   170  C   4.0   -0.09    3.98    3.59    48.13342    60.79074    53.38512
   171  C   4.0   -0.22    3.98    3.59    47.48883    60.97043    50.57726
   172  C   4.0   -0.23    3.98    3.59    49.76917    58.47520    53.91432
   173  H   1.0    0.23    1.00    1.43    48.93879    61.96197    58.00603
   174  H   1.0    0.11    0.99    1.43    51.39889    63.28131    53.35963
   175  H   1.0    0.13    0.99    1.43    46.38740    60.65309    54.48832
   176  H   1.0    0.11    0.99    1.43    46.80884    59.16585    49.88516
   177  H   1.0    0.12    0.99    1.43    46.05566    62.40270    50.25565
   178  H   1.0    0.10    0.99    1.43    49.16131    61.48792    49.50598
   179  H   1.0    0.10    0.99    1.43    48.75453    56.77371    53.37862
   180  H   1.0    0.10    0.99    1.43    51.51268    58.57555    52.83446
   181  H   1.0    0.10    0.99    1.43    50.22816    58.35215    55.91328
   182  N   5.0   -0.47    3.01    1.93    45.91097    65.95979    54.50439
   183  C   4.0    0.10    3.99    3.61    44.31864    68.10184    53.92306
   184  C   4.0    0.29    3.01    3.02    45.84378    70.55704    54.08649
   185  O   6.0   -0.43    1.00    1.80    45.84026    72.07882    52.33802
   186  C   4.0    0.03    3.98    3.58    41.97879    68.02023    55.65544
   187  O   6.0   -0.51    1.99    1.82    40.57675    65.84969    54.95589
   188  C   4.0   -0.20    3.98    3.59    40.36459    70.39194    55.34737
   189  H   1.0    0.25    1.00    1.43    45.37551    64.83837    55.96003
   190  H   1.0    0.13    0.99    1.43    43.66986    67.95804    51.95485
   191  H   1.0    0.12    0.99    1.43    42.63406    67.86511    57.61586
   192  H   1.0    0.24    0.99    1.43    40.12153    64.81303    56.40249
   193  H   1.0    0.11    0.99    1.43    38.71022    70.25937    56.55631
   194  H   1.0    0.12    0.99    1.43    41.44302    72.05929    55.86329
   195  H   1.0    0.12    0.99    1.43    39.76244    70.56755    53.39287
   196  N   5.0   -0.47    3.01    1.93    47.19756    70.87730    56.18921
   197  C   4.0    0.08    4.00    3.61    48.73890    73.12185    56.53305
   198  C   4.0    0.30    3.01    3.02    50.48478    73.49597    54.25108
   199  O   6.0   -0.44    1.00    1.80    50.63390    75.54015    53.16335
   200  C   4.0   -0.21    3.98    3.59    50.29128    72.87619    58.94308
   201  H   1.0    0.30    1.00    1.43    47.05443    69.71258    57.71206
   202  H   1.0    0.13    0.99    1.43    47.51892    74.79985    56.62714
   203  H   1.0    0.10    0.99    1.43    51.40654    74.57373    59.23767
   204  H   1.0    0.12    0.99    1.43    49.03762    72.60963    60.54764
   205  H   1.0    0.13    0.99    1.43    51.55510    71.26353    58.79630
   206  N   5.0   -0.47    3.01    1.93    51.83605    71.47012    53.62455
   207  C   4.0    0.07    3.99    3.61    53.71688    71.48734    51.62553
   208  C   4.0    0.29    3.01    3.02    52.53083    72.36274    49.13724
   209  O   6.0   -0.43    1.00    1.80    53.41623    74.10321    47.89695
   210  C   4.0   -0.14    3.99    3.60    54.82767    68.82804    51.40690
   211  C   4.0   -0.10    3.98    3.58    56.56294    68.41744    49.12642
   212  C   4.0   -0.22    3.98    3.59    58.72883    70.31707    49.05776
   213  C   4.0   -0.23    3.99    3.59    57.59643    65.72412    49.20286
   214  H   1.0    0.30    1.00    1.43    51.68756    69.86126    54.65998
   215  H   1.0    0.11    0.99    1.43    55.18828    72.87303    52.09096
   216  H   1.0    0.11    0.99    1.43    55.86406    68.42677    53.14734
   217  H   1.0    0.14    0.99    1.43    53.25010    67.50714    51.28784
   218  H   1.0    0.12    0.99    1.43    55.43996    68.64346    47.40289
   219  H   1.0    0.09    0.99    1.43    60.02650    69.83507    47.54273
   220  H   1.0    0.12    0.99    1.43    58.02844    72.21724    48.71211
   221  H   1.0    0.11    0.99    1.43    59.75275    70.29312    50.83767
   222  H   1.0    0.11    0.99    1.43    58.77407    65.35265    47.56312
   223  H   1.0    0.10    0.99    1.43    58.72495    65.45462    50.89885
   224  H   1.0    0.10    0.99    1.43    56.06887    64.35209    49.20679
   225  N   5.0   -0.48    3.01    1.93    50.49583    71.05523    48.41425
   226  C   4.0    0.07    4.00    3.62    49.22873    71.64527    46.06164
   227  C   4.0    0.30    3.01    3.02    48.64615    74.47253    45.90874
   228  O   6.0   -0.46    1.00    1.80    49.04984    75.70979    43.98742
   229  C   4.0   -0.14    3.99    3.60    46.79252    70.11699    45.79243
   230  C   4.0   -0.10    3.98    3.58    47.24009    67.27828    45.37931
   231  C   4.0   -0.23    3.98    3.59    44.71212    65.89268    45.54313
   232  C   4.0   -0.23    3.98    3.59    48.49308    66.74696    42.83416
   233  H   1.0    0.30    1.00    1.43    49.76503    69.68546    49.53638
   234  H   1.0    0.11    0.99    1.43    50.51431    71.23197    44.48734
   235  H   1.0    0.13    0.99    1.43    45.68173    70.40892    47.50707
   236  H   1.0    0.11    0.99    1.43    45.71914    70.88137    44.20369
   237  H   1.0    0.13    0.99    1.43    48.47045    66.58422    46.88753
   238  H   1.0    0.10    0.99    1.43    45.00532    63.87565    45.30502
   239  H   1.0    0.11    0.99    1.43    43.83811    66.24666    47.36784
   240  H   1.0    0.11    0.99    1.43    43.44597    66.55809    44.06798
   241  H   1.0    0.10    0.99    1.43    48.63645    64.72330    42.51951
   242  H   1.0    0.11    0.99    1.43    47.38868    67.56405    41.30513
   243  H   1.0    0.10    0.99    1.43    50.39122    67.52415    42.74740
   244  N   5.0   -0.47    3.00    1.93    47.58014    75.43076    47.98961
   245  C   4.0    0.03    3.99    3.61    46.87072    78.05907    48.16798
   246  C   4.0    0.29    3.00    3.02    49.11999    79.85324    47.89053
   247  O   6.0   -0.42    1.00    1.80    48.98247    81.76749    46.58218
   248  H   1.0    0.30    1.00    1.43    47.30419    74.31534    49.52048
   249  H   1.0    0.14    0.99    1.43    45.52823    78.54715    46.66892
   250  H   1.0    0.12    0.99    1.43    45.99416    78.38762    50.00282
   251  N   5.0   -0.47    3.01    1.93    51.18400    79.18582    49.16466
   252  C   4.0    0.08    3.99    3.60    53.43263    80.74356    49.28554
   253  C   4.0    0.29    3.01    3.02    54.34284    81.62171    46.68375
   254  O   6.0   -0.41    1.00    1.80    55.45620    83.62668    46.42516
   255  C   4.0   -0.20    3.99    3.60    55.54159    79.24976    50.56018
   256  H   1.0    0.31    1.00    1.43    51.13651    77.66270    50.33551
   257  H   1.0    0.13    0.99    1.43    53.02443    82.47148    50.36467
   258  H   1.0    0.11    0.99    1.43    57.24870    80.38328    50.64915
   259  H   1.0    0.12    0.99    1.43    54.96464    78.73208    52.46261
   260  H   1.0    0.14    0.99    1.43    55.89426    77.53969    49.47833
   261  N   5.0   -0.48    3.01    1.93    54.00614    79.97697    44.78890
   262  C   4.0    0.08    4.00    3.61    54.80300    80.56115    42.24928
   263  C   4.0    0.29    3.01    3.02    53.32685    82.68399    40.95753
   264  O   6.0   -0.46    1.00    1.80    54.29975    83.78261    39.14982
   265  C   4.0   -0.12    4.00    3.61    54.48900    78.23644    40.53946
   266  C   4.0   -0.03    3.03    3.02    56.32718    76.16634    41.17130
   267  C   4.0   -0.09    3.03    3.02    58.88057    76.46845    40.65187
   268  C   4.0   -0.08    3.03    3.02    55.50212    73.92292    42.24330
   269  C   4.0   -0.11    3.03    3.02    60.58132    74.56601    41.20378
   270  C   4.0   -0.10    3.03    3.02    57.19858    72.00430    42.77396
   271  C   4.0   -0.11    3.03    3.02    59.74226    72.33090    42.27233
   272  H   1.0    0.29    1.00    1.43    53.03330    78.36196    45.08739
   273  H   1.0    0.12    0.99    1.43    56.78870    81.15314    42.31326
   274  H   1.0    0.13    0.99    1.43    52.54869    77.56982    40.74315
   275  H   1.0    0.13    0.99    1.43    54.75365    78.84187    38.58180
   276  H   1.0    0.10    1.00    1.43    59.50624    78.21674    39.81700
   277  H   1.0    0.13    1.00    1.43    53.52333    73.70659    42.68567
   278  H   1.0    0.10    1.00    1.43    62.56547    74.82067    40.81695
   279  H   1.0    0.11    1.00    1.43    56.53873    70.25623    43.59133
   280  H   1.0    0.09    1.00    1.43    61.06828    70.85146    42.72541
   281  N   5.0   -0.47    3.00    1.93    50.96295    83.05118    41.71897
   282  C   4.0    0.09    4.00    3.61    49.10130    84.46414    40.28345
   283  C   4.0    0.31    3.01    3.02    49.40165    87.34334    40.55332
   284  O   6.0   -0.36    1.00    1.80    47.87768    88.69759    41.62750
   285  C   4.0   -0.08    3.98    3.59    46.45734    83.66944    41.03057
   286  C   4.0    0.33    2.99    3.02    44.44448    84.60999    39.07176
   287  O   6.0   -0.34    1.00    1.80    45.24209    85.47211    37.03519
   288  O   6.0   -0.34    1.00    1.80    42.19626    84.35525    39.71670
   289  H   1.0    0.31    1.00    1.43    50.35133    82.35621    43.40008
   290  H   1.0    0.16    0.99    1.43    49.38295    84.04301    38.26742
   291  H   1.0    0.13    0.99    1.43    46.32088    81.61381    41.13773
   292  H   1.0    0.16    0.99    1.43    45.95287    84.43696    42.87558
   293  N   5.0   -0.44    3.01    1.93    51.48766    88.18648    39.38301
   294  C   4.0    0.10    3.99    3.60    52.31845    90.78436    39.51874
   295  C   4.0    0.07    3.00    3.02    53.15961    91.54990    36.86059
   296  O   6.0   -0.43    1.00    1.80    54.86614    90.44154    35.77464
   297  C   4.0    0.04    3.98    3.58    54.53348    91.11689    41.40063
   298  O   6.0   -0.42    1.99    1.82    53.75106    90.04547    43.72067
   299  C   4.0   -0.22    3.98    3.59    55.22065    93.91125    41.63980
   300  H   1.0    0.31    1.00    1.43    52.78187    86.86316    38.83283
   301  H   1.0    0.15    0.99    1.43    50.69621    91.86550    40.20514
   302  H   1.0    0.14    0.99    1.43    56.16473    90.03826    40.68423
   303  H   1.0    0.25    0.99    1.43    54.61591    90.88082    45.08624
   304  H   1.0    0.10    0.99    1.43    56.78806    94.15070    42.95225
   305  H   1.0    0.12    0.99    1.43    55.77982    94.66765    39.81545
   306  H   1.0    0.12    0.99    1.43    53.61054    94.97003    42.35342
   307  N   5.0   -0.71    3.00    1.93    62.12355    91.56785    49.74410
   308  C   4.0    0.06    3.98    3.58    61.19010    89.27718    48.55547
   309  C   4.0    0.08    3.00    3.02    63.28981    87.29078    48.55576
   310  O   6.0   -0.47    1.00    1.80    62.96415    85.17200    49.43295
   311  C   4.0   -0.21    3.98    3.59    60.29096    89.83719    45.88294
   312  H   1.0    0.26    1.00    1.43    62.04893    93.19387    48.73428
   313  H   1.0    0.12    0.99    1.43    59.63574    88.51260    49.69925
   314  H   1.0    0.12    0.99    1.43    59.22462    88.23432    45.16762
   315  H   1.0    0.10    0.99    1.43    59.09797    91.50621    45.93968
   316  H   1.0    0.11    0.99    1.43    61.90187    90.22067    44.66913
   317  N   5.0   -0.68    3.00    1.93    64.46415    84.57560    54.87910
   318  C   4.0    0.07    3.98    3.59    62.32629    83.03684    55.63599
   319  C   4.0    0.29    3.01    3.02    62.48755    80.41669    54.41042
   320  O   6.0   -0.46    1.00    1.80    62.30253    78.48722    55.68688
   321  C   4.0   -0.21    3.98    3.59    59.87246    84.34130    54.89561
   322  H   1.0    0.28    1.00    1.43    64.08307    86.32053    54.17831
   323  H   1.0    0.12    0.99    1.43    62.39170    82.73938    57.69180
   324  H   1.0    0.10    0.99    1.43    58.26260    83.20686    55.47431
   325  H   1.0    0.11    0.99    1.43    59.76748    86.18383    55.79799
   326  H   1.0    0.13    0.99    1.43    59.81382    84.60640    52.86024
   327  N   5.0   -0.49    3.01    1.93    62.79366    80.42743    51.92035
   328  C   4.0    0.06    3.99    3.61    62.91793    78.12139    50.43931
   329  C   4.0    0.09    3.00    3.02    64.83218    76.33237    51.64365
   330  O   6.0   -0.48    1.00    1.80    64.29703    74.16714    52.25445
   331  C   4.0   -0.09    3.98    3.59    63.66122    78.73221    47.69197
   332  C   4.0   -0.15    3.98    3.59    61.45743    80.01707    46.31798
   333  C   4.0   -0.23    3.98    3.59    64.47160    76.33282    46.30765
   334  C   4.0   -0.23    3.98    3.59    62.30472    81.36341    43.91845
   335  H   1.0    0.30    1.00    1.43    62.95538    82.09505    50.98666
   336  H   1.0    0.12    0.99    1.43    61.07793    77.16354    50.48857
   337  H   1.0    0.12    0.99    1.43    65.24995    80.05480    47.76903
   338  H   1.0    0.12    0.99    1.43    60.02551    78.60345    45.86201
   339  H   1.0    0.14    0.99    1.43    60.58739    81.41567    47.55811
   340  H   1.0    0.11    0.99    1.43    64.99618    76.77597    44.37748
   341  H   1.0    0.11    0.99    1.43    66.08606    75.45799    47.21895
   342  H   1.0    0.11    0.99    1.43    62.92636    74.97896    46.28749
   343  H   1.0    0.10    0.99    1.43    60.70354    82.32994    43.07193
   344  H   1.0    0.11    0.99    1.43    63.72398    82.77686    44.37757
   345  H   1.0    0.10    0.99    1.43    63.08545    80.03545    42.56439
   346  N   5.0   -0.69    3.00    1.93    63.49394    73.76641    57.98036
   347  C   4.0    0.08    3.98    3.59    61.51328    71.88901    57.79616
   348  C   4.0    0.29    3.01    3.02    62.58868    69.37611    56.83872
   349  O   6.0   -0.46    1.00    1.80    61.96781    67.37360    57.84132
   350  C   4.0   -0.20    3.98    3.59    59.43227    72.84420    56.05634
   351  H   1.0    0.33    1.00    1.43    63.26219    75.37682    56.95947
   352  H   1.0    0.11    0.99    1.43    60.76370    71.51130    59.69505
   353  H   1.0    0.10    0.99    1.43    57.93695    71.44591    55.92261
   354  H   1.0    0.12    0.99    1.43    58.66517    74.59849    56.79750
   355  H   1.0    0.13    0.99    1.43    60.21504    73.20401    54.19328
   356  N   5.0   -0.49    3.01    1.93    64.14516    69.52820    54.86775
   357  C   4.0    0.07    4.00    3.62    65.29276    67.25982    53.85254
   358  C   4.0    0.09    3.00    3.02    66.65653    65.87429    55.99601
   359  O   6.0   -0.42    1.00    1.80    66.40371    63.59963    56.32810
   360  C   4.0   -0.09    3.98    3.59    67.10293    67.82577    51.65007
   361  C   4.0   -0.16    3.98    3.59    65.64680    68.90415    49.38799
   362  C   4.0   -0.22    3.98    3.59    68.48346    65.39671    50.92760
   363  C   4.0   -0.24    3.98    3.58    67.38103    69.82842    47.28011
   364  H   1.0    0.30    1.00    1.43    64.52764    71.21922    54.03842
   365  H   1.0    0.12    0.99    1.43    63.79242    65.97516    53.20587
   366  H   1.0    0.12    0.99    1.43    68.47653    69.22250    52.31052
   367  H   1.0    0.09    0.99    1.43    64.37971    67.45206    48.65298
   368  H   1.0    0.13    0.99    1.43    64.49115    70.48609    50.01995
   369  H   1.0    0.10    0.99    1.43    69.77587    65.70524    49.36707
   370  H   1.0    0.13    0.99    1.43    69.56241    64.66839    52.51168
   371  H   1.0    0.11    0.99    1.43    67.12517    63.95488    50.37504
   372  H   1.0    0.09    0.99    1.43    66.26135    70.65326    45.76908
   373  H   1.0    0.11    0.99    1.43    68.66886    71.26006    47.99313
   374  H   1.0    0.10    0.99    1.43    68.49037    68.29295    46.49378
   375  N   5.0   -0.69    3.00    1.93    62.33626    62.59804    60.59254
   376  C   4.0    0.07    3.98    3.58    61.35187    60.28933    59.49082
   377  C   4.0    0.09    3.00    3.02    63.35629    58.20928    59.64260
   378  O   6.0   -0.40    1.00    1.80    62.87347    56.11086    60.51810
   379  C   4.0   -0.13    3.99    3.60    60.51367    60.80597    56.77852
   380  C   4.0   -0.10    3.98    3.58    59.46288    58.48556    55.39554
   381  C   4.0   -0.22    3.98    3.59    57.23697    57.30891    56.80823
   382  C   4.0   -0.23    3.98    3.59    58.64551    59.25404    52.73586
   383  H   1.0    0.33    1.00    1.43    62.40563    64.17530    59.50560
   384  H   1.0    0.11    0.99    1.43    59.75635    59.63897    60.64812
   385  H   1.0    0.11    0.99    1.43    59.07201    62.28296    56.84072
   386  H   1.0    0.14    0.99    1.43    62.14127    61.54484    55.74753
   387  H   1.0    0.13    0.99    1.43    60.96607    57.07110    55.25225
   388  H   1.0    0.10    0.99    1.43    56.36906    55.84344    55.66003
   389  H   1.0    0.12    0.99    1.43    57.85052    56.44686    58.57053
   390  H   1.0    0.10    0.99    1.43    55.81400    58.73090    57.23298
   391  H   1.0    0.10    0.99    1.43    58.03978    57.60826    51.66884
   392  H   1.0    0.10    0.99    1.43    57.08379    60.58410    52.83456
   393  H   1.0    0.10    0.99    1.43    60.19214    60.14460    51.72212
   394  H   1.0    0.30    1.00    1.43    72.79404    81.30965    36.33612
   395  H   1.0    0.15    1.00    1.43    70.84264    86.86208    38.04792
   396  H   1.0    0.29    1.00    1.43    64.61983    78.71453    33.47532
   397  H   1.0    0.15    1.00    1.43    58.55472    78.05290    31.41681
   398  H   1.0    0.30    1.00    1.43    61.62367    69.71165    30.41419
   399  H   1.0    0.15    1.00    1.43    53.23043    68.03208    33.10842
   400  H   1.0    0.31    1.00    1.43    57.06697    60.34804    35.96610
   401  H   1.0    0.16    1.00    1.43    48.36425    57.44823    34.33914
   402  H   1.0    0.30    1.00    1.43    44.96832    47.53496    53.09105
   403  H   1.0    0.15    1.00    1.43    40.33376    50.57942    55.87534
   404  H   1.0    0.27    1.00    1.43    42.34464    62.17023    62.16063
   405  H   1.0    0.14    1.00    1.43    52.30657    92.98575    35.97644
   406  H   1.0    0.30    1.00    1.43    61.22779    91.88060    51.15561
   407  H   1.0    0.14    1.00    1.43    64.98321    87.70578    47.82689
   408  H   1.0    0.30    1.00    1.43    65.47878    84.83613    56.21894
   409  H   1.0    0.14    1.00    1.43    66.60118    76.91611    51.96139
   410  H   1.0    0.30    1.00    1.43    63.65205    74.26805    59.59774
   411  H   1.0    0.15    1.00    1.43    67.78887    66.82992    57.16889
   412  H   1.0    0.29    1.00    1.43    61.38592    63.03774    61.93271
   413  H   1.0    0.16    1.00    1.43    65.10994    58.53982    59.02089

           ------------------------------------------------- 
          |        Self-Consistent Charge Iterations        |
           ------------------------------------------------- 

          ...................................................
          :                      SETUP                      :
          :.................................................:
          :  # basis functions                 983          :
          :  # atomic orbitals                 983          :
          :  # shells                          603          :
          :  # electrons                      1076          :
          :  max. iterations                   250          :
          :  Hamiltonian                  GFN2-xTB          :
          :  restarted?                      false          :
          :  GBSA solvation                   true          :
          :  PC potential                    false          :
          :  electronic temp.          500.0000000     K    :
          :  accuracy                    0.1000000          :
          :  -> integral cutoff          0.3500000E+02      :
          :  -> integral neglect         0.1000000E-08      :
          :  -> SCF convergence          0.1000000E-06 Eh   :
          :  -> wf. convergence          0.1000000E-04 e    :
          :  Broyden damping             0.4000000          :
          ...................................................

 iter      E             dE          RMSdq      gap      omega  full diag
   1   -611.5451358 -0.611545E+03  0.406E+00    1.78       0.0  T
   2   -612.8794009 -0.133427E+01  0.214E+00    1.28       1.0  T
   3   -612.9338510 -0.544501E-01  0.113E+00    1.57       1.0  T
   4   -612.9661825 -0.323315E-01  0.248E-01    1.11       1.0  T
   5   -612.9794206 -0.132381E-01  0.107E-01    1.26       1.0  T
   6   -612.9800812 -0.660583E-03  0.460E-02    1.27       1.0  T
   7   -612.9801554 -0.741650E-04  0.228E-02    1.27       1.0  T
   8   -612.9802091 -0.537436E-04  0.902E-03    1.28       1.0  T
   9   -612.9802160 -0.692779E-05  0.420E-03    1.28       1.2  T
  10   -612.9802173 -0.127138E-05  0.196E-03    1.28       2.5  T
  11   -612.9802176 -0.302987E-06  0.810E-04    1.28       6.1  T
  12   -612.9802177 -0.690752E-07  0.420E-04    1.28      11.7  T
  13   -612.9802177 -0.230141E-07  0.192E-04    1.28      25.6  T
  14   -612.9802177 -0.342914E-08  0.893E-05    1.28      55.1  T
  15   -612.9802177 -0.997147E-09  0.354E-05    1.28     139.0  T

   *** convergence criteria satisfied after 15 iterations ***

         #    Occupation            Energy/Eh            Energy/eV
      -------------------------------------------------------------
         1        2.0000           -0.7464044             -20.3107
       ...           ...                  ...                  ...
       532        2.0000           -0.3659523              -9.9581
       533        2.0000           -0.3657257              -9.9519
       534        2.0000           -0.3617144              -9.8428
       535        2.0000           -0.3583299              -9.7507
       536        2.0000           -0.3545826              -9.6487
       537        2.0000           -0.3531007              -9.6084
       538        2.0000           -0.3529821              -9.6051 (HOMO)
       539        0.0000           -0.3059496              -8.3253 (LUMO)
       540                         -0.2894844              -7.8773
       541                         -0.2889470              -7.8626
       542                         -0.2877092              -7.8290
       543                         -0.2850525              -7.7567
       ...                                ...                  ...
       983                          0.6785927              18.4654
      -------------------------------------------------------------
                  HL-Gap            0.0470326 Eh            1.2798 eV
             Fermi-level           -0.3287960 Eh           -8.9470 eV

 SCC (total)                   0 d,  0 h,  0 min,  9.688 sec
 SCC setup                      ...        0 min,  0.128 sec (  1.319%)
 Dispersion                     ...        0 min,  0.062 sec (  0.643%)
 integral evaluation            ...        0 min,  0.169 sec (  1.740%)
 zeroth order Hamiltonian       ...        0 min,  0.018 sec (  0.182%)
 iterations                     ...        0 min,  7.750 sec ( 79.997%)
 molecular gradient             ...        0 min,  1.517 sec ( 15.658%)
 printout                       ...        0 min,  0.045 sec (  0.460%)

         :::::::::::::::::::::::::::::::::::::::::::::::::::::
         ::                     SUMMARY                     ::
         :::::::::::::::::::::::::::::::::::::::::::::::::::::
         :: total energy             -605.069443092344 Eh   ::
         :: total w/o Gsasa/hb       -605.003462285546 Eh   ::
         :: gradient norm               0.694668954163 Eh/α ::
         :: HOMO-LUMO gap               1.279820852237 eV   ::
         ::.................................................::
         :: SCC energy               -613.001758183319 Eh   ::
         :: -> isotropic ES             1.599179202478 Eh   ::
         :: -> anisotropic ES          -0.060907385672 Eh   ::
         :: -> anisotropic XC           0.241837168025 Eh   ::
         :: -> dispersion              -0.524968413766 Eh   ::
         :: -> Gsolv                   -0.406744222435 Eh   ::
         ::    -> Gborn                -0.340763415638 Eh   ::
         ::    -> Gsasa                -0.023397925722 Eh   ::
         ::    -> Ghb                  -0.044440324202 Eh   ::
         ::    -> Gshift                0.001857443127 Eh   ::
         :: repulsion energy            7.879341793491 Eh   ::
         :: add. restraining            0.000000000000 Eh   ::
         :::::::::::::::::::::::::::::::::::::::::::::::::::::

           -------------------------------------------------
          |                Property Printout                |
           -------------------------------------------------

    * Orbital Energies and Occupations

         #    Occupation            Energy/Eh            Energy/eV
      -------------------------------------------------------------
         1        2.0000           -0.7464044             -20.3107
       ...           ...                  ...                  ...
       526        2.0000           -0.3908278             -10.6350
       527        2.0000           -0.3818680             -10.3912
       528        2.0000           -0.3771735             -10.2634
       529        2.0000           -0.3713493             -10.1049
       530        2.0000           -0.3695589             -10.0562
       531        2.0000           -0.3680740             -10.0158
       532        2.0000           -0.3659523              -9.9581
       533        2.0000           -0.3657257              -9.9519
       534        2.0000           -0.3617144              -9.8428
       535        2.0000           -0.3583299              -9.7507
       536        2.0000           -0.3545826              -9.6487
       537        2.0000           -0.3531007              -9.6084
       538        2.0000           -0.3529821              -9.6051 (HOMO)
       539        0.0000           -0.3059496              -8.3253 (LUMO)
       540                         -0.2894844              -7.8773
       541                         -0.2889470              -7.8626
       542                         -0.2877092              -7.8290
       543                         -0.2850525              -7.7567
       544                         -0.2846868              -7.7467
       545                         -0.2836902              -7.7196
       546                         -0.2783184              -7.5734
       547                         -0.2778608              -7.5610
       548                         -0.2761167              -7.5135
       549                         -0.2492924              -6.7836
       ...                                ...                  ...
       983                          0.6785927              18.4654
      -------------------------------------------------------------
                  HL-Gap            0.0470326 Eh            1.2798 eV
             Fermi-level           -0.3287960 Eh           -8.9470 eV

   #   Z        covCN         q      C6AA      α(0)
   1   7 N      2.633    -0.392    30.157     8.156
   2   6 C      3.784     0.039    19.932     6.359
   3   6 C      2.765     0.194    23.862     8.000
   4   8 O      0.856    -0.361    20.924     6.133
   5   6 C      3.813    -0.073    21.888     6.659
   6   6 C      2.972     0.012    27.734     8.638
   7   6 C      2.926    -0.045    29.130     8.851
   8   6 C      2.925    -0.040    28.983     8.829
   9   6 C      2.919    -0.038    28.937     8.821
  10   6 C      2.920    -0.031    28.783     8.798
  11   6 C      2.921    -0.034    28.846     8.808
  12   1 H      0.860     0.162     1.323     1.802
  13   1 H      0.924     0.064     2.151     2.293
  14   1 H      0.925     0.057     2.233     2.337
  15   1 H      0.924     0.069     2.094     2.263
  16   1 H      0.926     0.041     2.430     2.438
  17   1 H      0.926     0.035     2.510     2.477
  18   1 H      0.926     0.043     2.408     2.427
  19   1 H      0.926     0.032     2.552     2.498
  20   1 H      0.926     0.029     2.597     2.520
  21   7 N      2.635    -0.387    30.011     8.136
  22   6 C      3.782     0.037    19.966     6.365
  23   6 C      2.765     0.195    23.844     7.997
  24   8 O      0.856    -0.374    21.165     6.168
  25   6 C      3.805    -0.078    21.983     6.675
  26   6 C      3.801    -0.079    22.002     6.678
  27   6 C      3.738    -0.027    21.132     6.560
  28   7 N      2.699    -0.147    24.172     7.302
  29   6 C      2.736     0.231    23.157     7.879
  30   7 N      2.649    -0.248    26.468     7.641
  31   7 N      2.655    -0.264    26.853     7.696
  32   1 H      0.860     0.176     1.234     1.740
  33   1 H      0.923     0.053     2.279     2.361
  34   1 H      0.925     0.067     2.122     2.278
  35   1 H      0.924     0.047     2.362     2.403
  36   1 H      0.924     0.068     2.106     2.270
  37   1 H      0.925     0.077     2.015     2.220
  38   1 H      0.924     0.077     2.007     2.215
  39   1 H      0.924     0.081     1.964     2.192
  40   1 H      0.860     0.224     0.991     1.559
  41   1 H      0.860     0.259     0.850     1.445
  42   1 H      0.860     0.245     0.903     1.488
  43   1 H      0.860     0.239     0.928     1.509
  44   1 H      0.860     0.250     0.882     1.471
  45   7 N      2.636    -0.395    30.220     8.164
  46   6 C      3.792     0.030    20.084     6.382
  47   6 C      2.759     0.270    22.448     7.759
  48   8 O      0.859    -0.497    23.727     6.531
  49   6 C      3.853    -0.018    20.856     6.495
  50   6 C      3.758    -0.111    22.678     6.789
  51   6 C      3.758    -0.112    22.702     6.793
  52   1 H      0.860     0.158     1.350     1.820
  53   1 H      0.923     0.040     2.450     2.448
  54   1 H      0.924     0.038     2.480     2.463
  55   1 H      0.925     0.050     2.324     2.384
  56   1 H      0.925     0.037     2.485     2.465
  57   1 H      0.925     0.040     2.452     2.449
  58   1 H      0.925     0.054     2.265     2.353
  59   1 H      0.925     0.036     2.500     2.472
  60   1 H      0.925     0.042     2.422     2.434
  61   7 N      2.691    -0.171    24.709     7.383
  62   6 C      3.796     0.032    20.043     6.375
  63   6 C      2.766     0.208    23.583     7.953
  64   8 O      0.856    -0.358    20.857     6.123
  65   6 C      3.809    -0.068    21.804     6.647
  66   6 C      3.806    -0.096    22.322     6.726
  67   6 C      2.745     0.294    22.014     7.683
  68   8 O      0.859    -0.502    23.824     6.544
  69   7 N      2.638    -0.280    27.234     7.751
  70   1 H      0.860     0.236     0.939     1.518
  71   1 H      0.923     0.079     1.994     2.209
  72   1 H      0.925     0.075     2.027     2.226
  73   1 H      0.924     0.074     2.040     2.234
  74   1 H      0.924     0.074     2.048     2.238
  75   1 H      0.925     0.065     2.136     2.286
  76   1 H      0.860     0.225     0.988     1.557
  77   1 H      0.860     0.190     1.158     1.685
  78   7 N      2.635    -0.405    30.509     8.203
  79   6 C      3.788     0.040    19.910     6.355
  80   6 C      2.761     0.272    22.407     7.752
  81   8 O      0.859    -0.500    23.774     6.537
  82   6 C      3.812    -0.077    21.953     6.669
  83   6 C      2.971     0.015    27.681     8.630
  84   6 C      2.926    -0.042    29.045     8.838
  85   6 C      2.924    -0.038    28.941     8.822
  86   6 C      2.919    -0.034    28.849     8.808
  87   6 C      2.919    -0.035    28.869     8.811
  88   6 C      2.921    -0.037    28.923     8.819
  89   1 H      0.860     0.182     1.203     1.718
  90   1 H      0.923     0.034     2.536     2.490
  91   1 H      0.924     0.061     2.188     2.313
  92   1 H      0.924     0.049     2.337     2.391
  93   1 H      0.926     0.034     2.535     2.490
  94   1 H      0.926     0.037     2.489     2.467
  95   1 H      0.926     0.035     2.523     2.484
  96   1 H      0.926     0.038     2.477     2.461
  97   1 H      0.926     0.032     2.557     2.500
  98   7 N      2.689    -0.175    24.792     7.395
  99   6 C      3.793     0.014    20.355     6.425
 100   6 C      2.763     0.219    23.378     7.918
 101   8 O      0.856    -0.375    21.197     6.173
 102   6 C      3.677     0.070    19.628     6.347
 103   8 O      1.654    -0.473    22.323     6.378
 104   1 H      0.860     0.232     0.955     1.531
 105   1 H      0.923     0.094     1.841     2.122
 106   1 H      0.924     0.077     2.010     2.217
 107   1 H      0.923     0.060     2.194     2.316
 108   1 H      0.803     0.336     0.623     1.240
 109   7 N      2.635    -0.394    30.193     8.161
 110   6 C      3.781     0.035    20.013     6.373
 111   6 C      2.766     0.200    23.742     7.980
 112   8 O      0.856    -0.367    21.025     6.148
 113   6 C      3.807    -0.074    21.914     6.664
 114   6 C      3.801    -0.085    22.115     6.695
 115   6 C      3.738    -0.030    21.196     6.569
 116   7 N      2.700    -0.146    24.155     7.299
 117   6 C      2.736     0.226    23.254     7.895
 118   7 N      2.650    -0.233    26.105     7.588
 119   7 N      2.654    -0.255    26.636     7.665
 120   1 H      0.859     0.164     1.312     1.795
 121   1 H      0.924     0.057     2.234     2.337
 122   1 H      0.924     0.063     2.160     2.298
 123   1 H      0.924     0.064     2.158     2.297
 124   1 H      0.925     0.068     2.106     2.270
 125   1 H      0.924     0.058     2.225     2.333
 126   1 H      0.924     0.089     1.891     2.150
 127   1 H      0.924     0.086     1.917     2.165
 128   1 H      0.860     0.227     0.978     1.549
 129   1 H      0.860     0.252     0.876     1.466
 130   1 H      0.859     0.241     0.920     1.502
 131   1 H      0.860     0.229     0.968     1.541
 132   1 H      0.860     0.255     0.864     1.456
 133   7 N      2.706    -0.316    28.112     7.875
 134   6 C      3.826     0.022    20.180     6.392
 135   6 C      2.755     0.264    22.554     7.777
 136   8 O      0.859    -0.503    23.851     6.548
 137   6 C      3.835    -0.061    21.640     6.618
 138   6 C      3.839    -0.067    21.746     6.634
 139   6 C      3.773     0.004    20.546     6.459
 140   1 H      0.923     0.036     2.503     2.474
 141   1 H      0.924     0.045     2.378     2.411
 142   1 H      0.925     0.040     2.445     2.445
 143   1 H      0.925     0.041     2.441     2.443
 144   1 H      0.925     0.040     2.446     2.446
 145   1 H      0.924     0.039     2.459     2.452
 146   1 H      0.925     0.042     2.422     2.434
 147   7 N      2.691    -0.171    24.693     7.380
 148   6 C      3.796     0.014    20.352     6.424
 149   6 C      2.759     0.269    22.463     7.761
 150   8 O      0.859    -0.490    23.572     6.509
 151   6 C      3.812    -0.077    21.956     6.670
 152   6 C      3.849    -0.013    20.778     6.484
 153   6 C      3.757    -0.114    22.727     6.797
 154   6 C      3.755    -0.116    22.767     6.803
 155   1 H      0.860     0.226     0.982     1.552
 156   1 H      0.924     0.078     2.002     2.213
 157   1 H      0.924     0.063     2.167     2.302
 158   1 H      0.924     0.057     2.234     2.337
 159   1 H      0.924     0.046     2.369     2.407
 160   1 H      0.925     0.042     2.427     2.436
 161   1 H      0.925     0.048     2.349     2.397
 162   1 H      0.925     0.032     2.561     2.503
 163   1 H      0.925     0.044     2.402     2.424
 164   1 H      0.925     0.037     2.489     2.467
 165   1 H      0.925     0.037     2.488     2.467
 166   7 N      2.690    -0.175    24.783     7.394
 167   6 C      3.806     0.008    20.438     6.436
 168   6 C      2.758     0.276    22.324     7.737
 169   8 O      0.858    -0.471    23.143     6.450
 170   6 C      3.853    -0.035    21.157     6.542
 171   6 C      3.757    -0.134    23.136     6.858
 172   6 C      3.756    -0.129    23.023     6.841
 173   1 H      0.860     0.221     1.005     1.571
 174   1 H      0.923     0.084     1.940     2.178
 175   1 H      0.924     0.065     2.137     2.286
 176   1 H      0.925     0.076     2.019     2.222
 177   1 H      0.925     0.050     2.317     2.381
 178   1 H      0.925     0.052     2.299     2.371
 179   1 H      0.925     0.068     2.104     2.269
 180   1 H      0.925     0.054     2.272     2.357
 181   1 H      0.925     0.050     2.316     2.380
 182   7 N      2.693    -0.175    24.794     7.395
 183   6 C      3.797     0.006    20.487     6.445
 184   6 C      2.757     0.275    22.348     7.741
 185   8 O      0.859    -0.499    23.773     6.537
 186   6 C      3.726     0.106    18.938     6.213
 187   8 O      1.655    -0.456    21.963     6.326
 188   6 C      3.753    -0.134    23.128     6.858
 189   1 H      0.860     0.212     1.048     1.603
 190   1 H      0.923     0.094     1.845     2.124
 191   1 H      0.924     0.040     2.448     2.447
 192   1 H      0.804     0.346     0.598     1.215
 193   1 H      0.925     0.074     2.039     2.233
 194   1 H      0.925     0.036     2.505     2.475
 195   1 H      0.925     0.068     2.103     2.268
 196   7 N      2.690    -0.190    25.111     7.442
 197   6 C      3.798     0.028    20.106     6.385
 198   6 C      2.755     0.279    22.286     7.730
 199   8 O      0.858    -0.511    24.026     6.572
 200   6 C      3.757    -0.132    23.095     6.852
 201   1 H      0.860     0.236     0.938     1.517
 202   1 H      0.923     0.057     2.231     2.336
 203   1 H      0.925     0.058     2.223     2.331
 204   1 H      0.925     0.078     1.997     2.210
 205   1 H      0.925     0.071     2.073     2.252
 206   7 N      2.692    -0.184    24.978     7.423
 207   6 C      3.795     0.025    20.163     6.394
 208   6 C      2.758     0.279    22.270     7.728
 209   8 O      0.859    -0.494    23.645     6.520
 210   6 C      3.812    -0.079    22.002     6.677
 211   6 C      3.849    -0.008    20.680     6.468
 212   6 C      3.756    -0.116    22.772     6.804
 213   6 C      3.758    -0.114    22.738     6.798
 214   1 H      0.860     0.234     0.950     1.526
 215   1 H      0.924     0.061     2.191     2.315
 216   1 H      0.924     0.054     2.271     2.357
 217   1 H      0.924     0.068     2.105     2.269
 218   1 H      0.924     0.026     2.646     2.544
 219   1 H      0.925     0.053     2.281     2.362
 220   1 H      0.925     0.031     2.574     2.509
 221   1 H      0.925     0.043     2.412     2.429
 222   1 H      0.925     0.047     2.359     2.402
 223   1 H      0.925     0.041     2.436     2.441
 224   1 H      0.925     0.042     2.418     2.432
 225   7 N      2.691    -0.189    25.109     7.442
 226   6 C      3.800     0.027    20.120     6.386
 227   6 C      2.758     0.279    22.278     7.729
 228   8 O      0.858    -0.509    23.976     6.565
 229   6 C      3.810    -0.079    22.004     6.677
 230   6 C      3.849    -0.019    20.874     6.499
 231   6 C      3.758    -0.127    22.986     6.835
 232   6 C      3.755    -0.119    22.829     6.813
 233   1 H      0.860     0.237     0.937     1.516
 234   1 H      0.924     0.067     2.119     2.276
 235   1 H      0.924     0.059     2.214     2.327
 236   1 H      0.924     0.049     2.329     2.387
 237   1 H      0.924     0.057     2.233     2.337
 238   1 H      0.925     0.064     2.153     2.294
 239   1 H      0.925     0.044     2.396     2.420
 240   1 H      0.925     0.047     2.352     2.398
 241   1 H      0.925     0.054     2.273     2.358
 242   1 H      0.925     0.038     2.482     2.464
 243   1 H      0.925     0.033     2.550     2.497
 244   7 N      2.687    -0.172    24.730     7.386
 245   6 C      3.747    -0.024    21.074     6.548
 246   6 C      2.751     0.279    22.279     7.729
 247   8 O      0.858    -0.516    24.139     6.587
 248   1 H      0.860     0.225     0.987     1.556
 249   1 H      0.924     0.075     2.035     2.231
 250   1 H      0.925     0.085     1.926     2.170
 251   7 N      2.690    -0.181    24.930     7.416
 252   6 C      3.794     0.030    20.084     6.382
 253   6 C      2.758     0.279    22.284     7.730
 254   8 O      0.859    -0.477    23.284     6.470
 255   6 C      3.759    -0.123    22.902     6.822
 256   1 H      0.860     0.238     0.932     1.512
 257   1 H      0.923     0.059     2.217     2.328
 258   1 H      0.925     0.069     2.101     2.267
 259   1 H      0.925     0.063     2.170     2.304
 260   1 H      0.925     0.075     2.028     2.227
 261   7 N      2.689    -0.175    24.786     7.394
 262   6 C      3.799     0.031    20.059     6.377
 263   6 C      2.759     0.270    22.446     7.758
 264   8 O      0.858    -0.482    23.396     6.485
 265   6 C      3.819    -0.069    21.805     6.646
 266   6 C      2.971     0.009    27.815     8.651
 267   6 C      2.926    -0.041    29.009     8.833
 268   6 C      2.925    -0.034    28.852     8.809
 269   6 C      2.920    -0.033    28.825     8.804
 270   6 C      2.920    -0.029    28.724     8.789
 271   6 C      2.922    -0.035    28.863     8.810
 272   1 H      0.860     0.202     1.098     1.642
 273   1 H      0.924     0.093     1.846     2.125
 274   1 H      0.924     0.044     2.392     2.419
 275   1 H      0.924     0.059     2.206     2.323
 276   1 H      0.926     0.054     2.276     2.359
 277   1 H      0.926     0.024     2.676     2.558
 278   1 H      0.926     0.057     2.230     2.335
 279   1 H      0.926     0.032     2.554     2.499
 280   1 H      0.926     0.046     2.373     2.409
 281   7 N      2.688    -0.188    25.077     7.437
 282   6 C      3.798     0.041    19.893     6.351
 283   6 C      2.753     0.288    22.110     7.700
 284   8 O      0.858    -0.500    23.784     6.539
 285   6 C      3.803    -0.090    22.218     6.711
 286   6 C      2.683     0.376    20.631     7.433
 287   8 O      0.856    -0.641    27.147     6.986
 288   8 O      0.856    -0.646    27.289     7.004
 289   1 H      0.860     0.217     1.025     1.586
 290   1 H      0.923     0.056     2.246     2.344
 291   1 H      0.924     0.025     2.666     2.553
 292   1 H      0.924     0.033     2.542     2.493
 293   7 N      2.695    -0.190    25.125     7.445
 294   6 C      3.792     0.022    20.219     6.404
 295   6 C      2.769     0.193    23.879     8.003
 296   8 O      0.856    -0.326    20.255     6.034
 297   6 C      3.725     0.118    18.755     6.184
 298   8 O      1.656    -0.493    22.733     6.436
 299   6 C      3.752    -0.146    23.379     6.895
 300   1 H      0.860     0.236     0.939     1.518
 301   1 H      0.924     0.076     2.018     2.222
 302   1 H      0.923     0.054     2.266     2.354
 303   1 H      0.805     0.337     0.619     1.236
 304   1 H      0.925     0.077     2.007     2.216
 305   1 H      0.925     0.070     2.080     2.255
 306   1 H      0.925     0.060     2.197     2.318
 307   7 N      2.637    -0.392    30.164     8.157
 308   6 C      3.781     0.044    19.856     6.348
 309   6 C      2.767     0.196    23.824     7.994
 310   8 O      0.856    -0.360    20.901     6.129
 311   6 C      3.756    -0.128    23.004     6.839
 312   1 H      0.860     0.175     1.243     1.747
 313   1 H      0.923     0.037     2.489     2.467
 314   1 H      0.925     0.060     2.195     2.317
 315   1 H      0.925     0.055     2.259     2.351
 316   1 H      0.925     0.075     2.029     2.228
 317   7 N      2.636    -0.391    30.116     8.150
 318   6 C      3.786     0.037    19.966     6.365
 319   6 C      2.756     0.267    22.500     7.768
 320   8 O      0.858    -0.509    23.986     6.566
 321   6 C      3.757    -0.121    22.872     6.819
 322   1 H      0.860     0.162     1.325     1.803
 323   1 H      0.923     0.026     2.647     2.545
 324   1 H      0.925     0.039     2.468     2.457
 325   1 H      0.925     0.053     2.283     2.363
 326   1 H      0.925     0.060     2.199     2.319
 327   7 N      2.691    -0.177    24.830     7.401
 328   6 C      3.795     0.024    20.171     6.395
 329   6 C      2.767     0.210    23.544     7.947
 330   8 O      0.856    -0.355    20.796     6.114
 331   6 C      3.854    -0.030    21.068     6.528
 332   6 C      3.804    -0.065    21.739     6.638
 333   6 C      3.756    -0.120    22.853     6.816
 334   6 C      3.752    -0.113    22.724     6.798
 335   1 H      0.860     0.249     0.889     1.477
 336   1 H      0.923     0.068     2.104     2.268
 337   1 H      0.924     0.068     2.108     2.271
 338   1 H      0.924     0.036     2.498     2.472
 339   1 H      0.924     0.038     2.479     2.462
 340   1 H      0.925     0.068     2.112     2.273
 341   1 H      0.925     0.045     2.378     2.412
 342   1 H      0.925     0.050     2.321     2.382
 343   1 H      0.925     0.039     2.458     2.452
 344   1 H      0.925     0.048     2.346     2.395
 345   1 H      0.925     0.056     2.246     2.344
 346   7 N      2.636    -0.413    30.744     8.235
 347   6 C      3.785     0.043    19.866     6.349
 348   6 C      2.761     0.267    22.500     7.768
 349   8 O      0.858    -0.515    24.117     6.584
 350   6 C      3.757    -0.113    22.722     6.796
 351   1 H      0.860     0.185     1.185     1.705
 352   1 H      0.923     0.020     2.729     2.584
 353   1 H      0.925     0.038     2.480     2.462
 354   1 H      0.925     0.045     2.381     2.413
 355   1 H      0.925     0.061     2.186     2.312
 356   7 N      2.690    -0.178    24.850     7.404
 357   6 C      3.801     0.029    20.094     6.382
 358   6 C      2.766     0.210    23.543     7.946
 359   8 O      0.856    -0.365    20.985     6.142
 360   6 C      3.853    -0.022    20.924     6.506
 361   6 C      3.804    -0.070    21.834     6.652
 362   6 C      3.757    -0.114    22.735     6.798
 363   6 C      3.752    -0.110    22.655     6.788
 364   1 H      0.860     0.245     0.904     1.489
 365   1 H      0.923     0.074     2.042     2.235
 366   1 H      0.924     0.052     2.296     2.370
 367   1 H      0.924     0.048     2.342     2.393
 368   1 H      0.925     0.057     2.236     2.338
 369   1 H      0.925     0.062     2.172     2.305
 370   1 H      0.925     0.030     2.588     2.516
 371   1 H      0.925     0.048     2.346     2.395
 372   1 H      0.925     0.049     2.338     2.391
 373   1 H      0.925     0.037     2.485     2.465
 374   1 H      0.925     0.045     2.385     2.415
 375   7 N      2.637    -0.400    30.374     8.185
 376   6 C      3.782     0.048    19.789     6.337
 377   6 C      2.765     0.205    23.640     7.963
 378   8 O      0.856    -0.391    21.511     6.218
 379   6 C      3.810    -0.066    21.757     6.639
 380   6 C      3.849    -0.010    20.717     6.474
 381   6 C      3.755    -0.118    22.806     6.809
 382   6 C      3.758    -0.113    22.720     6.796
 383   1 H      0.860     0.178     1.225     1.734
 384   1 H      0.923     0.045     2.385     2.415
 385   1 H      0.924     0.049     2.337     2.391
 386   1 H      0.924     0.049     2.336     2.390
 387   1 H      0.924     0.015     2.808     2.621
 388   1 H      0.925     0.050     2.314     2.379
 389   1 H      0.925     0.035     2.522     2.484
 390   1 H      0.925     0.047     2.357     2.401
 391   1 H      0.925     0.046     2.375     2.410
 392   1 H      0.925     0.046     2.367     2.406
 393   1 H      0.925     0.035     2.519     2.482
 394   1 H      0.862     0.179     1.219     1.730
 395   1 H      0.930     0.079     1.991     2.207
 396   1 H      0.862     0.178     1.227     1.735
 397   1 H      0.930     0.073     2.048     2.238
 398   1 H      0.862     0.182     1.201     1.716
 399   1 H      0.930     0.073     2.047     2.237
 400   1 H      0.862     0.173     1.257     1.756
 401   1 H      0.930     0.067     2.113     2.273
 402   1 H      0.862     0.181     1.210     1.723
 403   1 H      0.930     0.074     2.043     2.235
 404   1 H      0.865     0.200     1.107     1.648
 405   1 H      0.930     0.093     1.850     2.127
 406   1 H      0.862     0.175     1.243     1.746
 407   1 H      0.930     0.089     1.889     2.149
 408   1 H      0.862     0.180     1.211     1.724
 409   1 H      0.930     0.074     2.042     2.235
 410   1 H      0.862     0.169     1.280     1.772
 411   1 H      0.930     0.060     2.192     2.315
 412   1 H      0.862     0.170     1.273     1.767
 413   1 H      0.930     0.065     2.143     2.289

 Mol. C6AA /au·bohr⁶  :    1507669.953617
 Mol. C8AA /au·bohr⁸  :   33276034.844356
 Mol. α(0) /au        :       1844.863759


Wiberg/Mayer (AO) data.
largest (>0.10) Wiberg bond orders for each atom
          total WBO             WBO to atom ...
     1  N   2.994        C    2 1.021    H  394 0.957    H   12 0.955
     2  C   3.986        N    1 1.021    C    3 0.984    C    5 0.950    H   13 0.934
     3  C   3.891        O    4 1.871    C    2 0.984    H  395 0.952
     4  O   2.055        C    3 1.871
     5  C   3.990        C    6 1.009    H   14 0.973    H   15 0.957    C    2 0.950
     6  C   3.989        C    8 1.418    C    7 1.404    C    5 1.009    C   11 0.110
     7  C   3.991        C    9 1.451    C    6 1.404    H   16 0.962    C   10 0.112
     8  C   3.989        C   10 1.437    C    6 1.418    H   17 0.969    C    9 0.109
     9  C   3.991        C    7 1.451    C   11 1.430    H   18 0.963    C    8 0.109
    10  C   3.992        C   11 1.445    C    8 1.437    H   19 0.971    C    7 0.112
    11  C   3.991        C   10 1.445    C    9 1.430    H   20 0.970    C    6 0.110
    12  H   0.974        N    1 0.955
    13  H   0.996        C    2 0.934
    14  H   0.996        C    5 0.973
    15  H   0.995        C    5 0.957
    16  H   0.998        C    7 0.962
    17  H   0.999        C    8 0.969
    18  H   0.998        C    9 0.963
    19  H   0.998        C   10 0.971
    20  H   0.999        C   11 0.970
    21  N   3.001        C   22 1.010    H  396 0.957    H   32 0.948
    22  C   3.983        N   21 1.010    C   23 0.969    C   25 0.968    H   33 0.955
    23  C   3.881        O   24 1.879    C   22 0.969    H  397 0.954
    24  O   2.048        C   23 1.879
    25  C   3.989        C   26 1.003    H   34 0.973    H   35 0.971    C   22 0.968
    26  C   3.990        C   25 1.003    C   27 0.994    H   37 0.968    H   36 0.967
    27  C   3.955        C   26 0.994    N   28 0.986    H   38 0.966    H   39 0.961
    28  N   3.463        C   29 1.308    C   27 0.986    H   40 0.903    N   30 0.103
    29  C   3.977        N   30 1.335    N   28 1.308    N   31 1.304
    30  N   3.402        C   29 1.335    H   42 0.920    H   41 0.883    N   31 0.103    N   28 0.103
    31  N   3.382        C   29 1.304    H   44 0.918    H   43 0.915    N   30 0.103
    32  H   0.969        N   21 0.948
    33  H   0.997        C   22 0.955
    34  H   0.995        C   25 0.973
    35  H   0.998        C   25 0.971
    36  H   0.995        C   26 0.967
    37  H   0.994        C   26 0.968
    38  H   0.994        C   27 0.966
    39  H   0.992        C   27 0.961
    40  H   0.950        N   28 0.903
    41  H   0.933        N   30 0.883
    42  H   0.940        N   30 0.920
    43  H   0.943        N   31 0.915
    44  H   0.937        N   31 0.918
    45  N   2.995        C   46 1.013    H  398 0.956    H   52 0.954
    46  C   3.982        N   45 1.013    C   49 0.962    H   53 0.960    C   47 0.941
    47  C   3.940        O   48 1.601    N   61 1.313    C   46 0.941
    48  O   1.959        C   47 1.601    N   61 0.194
    49  C   3.993        C   50 1.009    C   51 1.007    H   54 0.963    C   46 0.962
    50  C   3.995        C   49 1.009    H   57 0.986    H   55 0.983    H   56 0.978
    51  C   3.994        C   49 1.007    H   59 0.986    H   60 0.984    H   58 0.980
    52  H   0.975        N   45 0.954
    53  H   0.998        C   46 0.960
    54  H   0.999        C   49 0.963
    55  H   0.998        C   50 0.983
    56  H   0.999        C   50 0.978
    57  H   0.998        C   50 0.986
    58  H   0.996        C   51 0.980
    59  H   0.999        C   51 0.986
    60  H   0.998        C   51 0.984
    61  N   3.474        C   47 1.313    C   62 0.981    H   70 0.889    O   48 0.194
    62  C   3.972        N   61 0.981    C   63 0.973    C   65 0.971    H   71 0.948
    63  C   3.899        O   64 1.878    C   62 0.973    H  399 0.955
    64  O   2.051        C   63 1.878
    65  C   3.985        C   66 0.997    C   62 0.971    H   73 0.970    H   72 0.963
    66  C   3.993        C   65 0.997    H   75 0.969    C   67 0.965    H   74 0.954
    67  C   3.938        O   68 1.648    N   69 1.298    C   66 0.965
    68  O   1.948        C   67 1.648    N   69 0.199
    69  N   3.398        C   67 1.298    H   77 0.941    H   76 0.912    O   68 0.199
    70  H   0.944        N   61 0.889
    71  H   0.994        C   62 0.948
    72  H   0.994        C   65 0.963
    73  H   0.994        C   65 0.970
    74  H   0.995        C   66 0.954
    75  H   0.996        C   66 0.969
    76  H   0.949        N   69 0.912
    77  H   0.963        N   69 0.941
    78  N   2.992        C   79 1.016    H  400 0.959    H   89 0.931
    79  C   3.982        N   78 1.016    H   90 0.965    C   82 0.959    C   80 0.935
    80  C   3.939        O   81 1.621    N   98 1.304    C   79 0.935
    81  O   1.966        C   80 1.621    N   98 0.192
    82  C   3.993        C   83 1.011    H   91 0.967    H   92 0.966    C   79 0.959
    83  C   3.988        C   85 1.417    C   84 1.406    C   82 1.011    C   88 0.109
    84  C   3.991        C   86 1.452    C   83 1.406    H   93 0.969    C   87 0.112
    85  C   3.990        C   87 1.438    C   83 1.417    H   94 0.962    C   86 0.110
    86  C   3.992        C   84 1.452    C   88 1.432    H   95 0.971    C   85 0.110
    87  C   3.992        C   88 1.442    C   85 1.438    H   96 0.969    C   84 0.112
    88  C   3.990        C   87 1.442    C   86 1.432    H   97 0.971    C   83 0.109
    89  H   0.967        N   78 0.931
    90  H   0.998        C   79 0.965
    91  H   0.996        C   82 0.967
    92  H   0.997        C   82 0.966
    93  H   0.999        C   84 0.969
    94  H   0.999        C   85 0.962
    95  H   0.998        C   86 0.971
    96  H   0.998        C   87 0.969
    97  H   0.998        C   88 0.971
    98  N   3.464        C   80 1.304    C   99 0.985    H  104 0.896    O   81 0.192
    99  C   3.971        N   98 0.985    C  100 0.973    C  102 0.956    H  105 0.943
   100  C   3.906        O  101 1.880    C   99 0.973    H  401 0.956
   101  O   2.031        C  100 1.880
   102  C   3.953        O  103 1.013    H  106 0.968    H  107 0.957    C   99 0.956
   103  O   1.946        C  102 1.013    H  108 0.871
   104  H   0.946        N   98 0.896
   105  H   0.991        C   99 0.943
   106  H   0.993        C  102 0.968
   107  H   0.996        C  102 0.957
   108  H   0.887        O  103 0.871
   109  N   2.994        C  110 1.015    H  402 0.956    H  120 0.954
   110  C   3.985        N  109 1.015    C  111 0.986    C  113 0.954    H  121 0.950
   111  C   3.891        O  112 1.869    C  110 0.986    H  403 0.954
   112  O   2.043        C  111 1.869
   113  C   3.988        C  114 1.007    H  123 0.972    H  122 0.970    C  110 0.954
   114  C   3.992        C  113 1.007    C  115 0.994    H  125 0.973    H  124 0.972
   115  C   3.955        C  114 0.994    N  116 0.989    H  127 0.967    H  126 0.957
   116  N   3.457        C  117 1.294    C  115 0.989    H  128 0.919    N  118 0.100
   117  C   3.978        N  118 1.337    N  119 1.315    N  116 1.294
   118  N   3.413        C  117 1.337    H  130 0.919    H  129 0.891    N  119 0.106    N  116 0.100
   119  N   3.389        C  117 1.315    H  131 0.926    H  132 0.888    N  118 0.106
   120  H   0.973        N  109 0.954
   121  H   0.997        C  110 0.950
   122  H   0.996        C  113 0.970
   123  H   0.995        C  113 0.972
   124  H   0.995        C  114 0.972
   125  H   0.997        C  114 0.973
   126  H   0.992        C  115 0.957
   127  H   0.993        C  115 0.967
   128  H   0.948        N  116 0.919
   129  H   0.937        N  118 0.891
   130  H   0.942        N  118 0.919
   131  H   0.947        N  119 0.926
   132  H   0.935        N  119 0.888
   133  N   3.028        C  139 0.996    C  134 0.996    H  404 0.941
   134  C   3.987        N  133 0.996    C  137 0.970    H  140 0.964    C  135 0.951
   135  C   3.943        O  136 1.599    N  147 1.309    C  134 0.951
   136  O   1.955        C  135 1.599    N  147 0.192
   137  C   3.994        C  138 1.005    H  142 0.979    H  141 0.977    C  134 0.970
   138  C   3.996        C  137 1.005    C  139 1.000    H  144 0.979    H  143 0.978
   139  C   3.985        C  138 1.000    N  133 0.996    H  146 0.978    H  145 0.975
   140  H   0.998        C  134 0.964
   141  H   0.998        C  137 0.977
   142  H   0.998        C  137 0.979
   143  H   0.998        C  138 0.978
   144  H   0.998        C  138 0.979
   145  H   0.998        C  139 0.975
   146  H   0.998        C  139 0.978
   147  N   3.477        C  135 1.309    C  148 0.982    H  155 0.911    O  136 0.192
   148  C   3.966        N  147 0.982    C  151 0.979    H  156 0.949    C  149 0.932
   149  C   3.948        O  150 1.616    N  166 1.311    C  148 0.932
   150  O   1.971        C  149 1.616    N  166 0.195
   151  C   3.987        C  152 0.992    C  148 0.979    H  158 0.971    H  157 0.969
   152  C   3.995        C  154 1.010    C  153 1.007    C  151 0.992    H  159 0.966
   153  C   3.993        C  152 1.007    H  160 0.985    H  161 0.985    H  162 0.985
   154  C   3.995        C  152 1.010    H  164 0.986    H  163 0.985    H  165 0.984
   155  H   0.949        N  147 0.911
   156  H   0.994        C  148 0.949
   157  H   0.996        C  151 0.969
   158  H   0.996        C  151 0.971
   159  H   0.998        C  152 0.966
   160  H   0.997        C  153 0.985
   161  H   0.998        C  153 0.985
   162  H   0.999        C  153 0.985
   163  H   0.998        C  154 0.985
   164  H   0.999        C  154 0.986
   165  H   0.999        C  154 0.984
   166  N   3.470        C  149 1.311    C  167 0.971    H  173 0.913    O  150 0.195
   167  C   3.954        N  166 0.971    C  170 0.964    H  174 0.949    C  168 0.934
   168  C   3.944        O  169 1.632    N  182 1.287    C  167 0.934
   169  O   1.994        C  168 1.632    N  182 0.191
   170  C   3.983        C  172 1.008    C  171 1.006    C  167 0.964    H  175 0.960
   171  C   3.988        C  170 1.006    H  178 0.985    H  177 0.982    H  176 0.979
   172  C   3.990        C  170 1.008    H  180 0.985    H  181 0.982    H  179 0.980
   173  H   0.951        N  166 0.913
   174  H   0.993        C  167 0.949
   175  H   0.996        C  170 0.960
   176  H   0.994        C  171 0.979
   177  H   0.997        C  171 0.982
   178  H   0.997        C  171 0.985
   179  H   0.994        C  172 0.980
   180  H   0.997        C  172 0.985
   181  H   0.997        C  172 0.982
   182  N   3.458        C  168 1.287    C  183 0.982    H  189 0.918    O  169 0.191
   183  C   3.965        N  182 0.982    C  186 0.962    H  190 0.946    C  184 0.932
   184  C   3.946        O  185 1.612    N  196 1.320    C  183 0.932
   185  O   1.959        C  184 1.612    N  196 0.200
   186  C   3.961        C  188 1.003    O  187 0.985    C  183 0.962    H  191 0.962
   187  O   1.967        C  186 0.985    H  192 0.867
   188  C   3.989        C  186 1.003    H  195 0.983    H  194 0.982    H  193 0.981
   189  H   0.955        N  182 0.918
   190  H   0.991        C  183 0.946
   191  H   0.998        C  186 0.962
   192  H   0.880        O  187 0.867
   193  H   0.994        C  188 0.981
   194  H   0.998        C  188 0.982
   195  H   0.995        C  188 0.983
   196  N   3.473        C  184 1.320    C  197 0.978    H  201 0.878    O  185 0.200
   197  C   3.970        C  200 0.997    N  196 0.978    H  202 0.955    C  198 0.934
   198  C   3.947        O  199 1.594    N  206 1.335    C  197 0.934
   199  O   1.949        C  198 1.594    N  206 0.198
   200  C   3.984        C  197 0.997    H  203 0.983    H  204 0.977    H  205 0.977
   201  H   0.944        N  196 0.878
   202  H   0.996        C  197 0.955
   203  H   0.996        C  200 0.983
   204  H   0.993        C  200 0.977
   205  H   0.995        C  200 0.977
   206  N   3.482        C  198 1.335    C  207 0.971    H  214 0.884    O  199 0.198
   207  C   3.961        C  210 0.981    N  206 0.971    H  215 0.952    C  208 0.935
   208  C   3.948        O  209 1.625    N  225 1.310    C  207 0.935
   209  O   1.958        C  208 1.625    N  225 0.197
   210  C   3.985        C  211 0.994    C  207 0.981    H  216 0.969    H  217 0.963
   211  C   3.994        C  212 1.010    C  213 1.008    C  210 0.994    H  218 0.964
   212  C   3.995        C  211 1.010    H  220 0.984    H  221 0.982    H  219 0.982
   213  C   3.994        C  211 1.008    H  224 0.986    H  223 0.985    H  222 0.982
   214  H   0.945        N  206 0.884
   215  H   0.996        C  207 0.952
   216  H   0.997        C  210 0.969
   217  H   0.995        C  210 0.963
   218  H   0.999        C  211 0.964
   219  H   0.997        C  212 0.982
   220  H   0.999        C  212 0.984
   221  H   0.998        C  212 0.982
   222  H   0.997        C  213 0.982
   223  H   0.998        C  213 0.985
   224  H   0.998        C  213 0.986
   225  N   3.467        C  208 1.310    C  226 0.981    H  233 0.883    O  209 0.197
   226  C   3.967        N  225 0.981    C  229 0.977    H  234 0.944    C  227 0.938
   227  C   3.940        O  228 1.605    N  244 1.306    C  226 0.938
   228  O   1.939        C  227 1.605    N  244 0.187
   229  C   3.982        C  230 0.990    C  226 0.977    H  236 0.972    H  235 0.969
   230  C   3.991        C  232 1.011    C  231 1.007    C  229 0.990    H  237 0.962
   231  C   3.992        C  230 1.007    H  240 0.986    H  239 0.984    H  238 0.983
   232  C   3.994        C  230 1.011    H  242 0.986    H  241 0.983    H  243 0.982
   233  H   0.944        N  225 0.883
   234  H   0.995        C  226 0.944
   235  H   0.996        C  229 0.969
   236  H   0.997        C  229 0.972
   237  H   0.997        C  230 0.962
   238  H   0.995        C  231 0.983
   239  H   0.998        C  231 0.984
   240  H   0.998        C  231 0.986
   241  H   0.997        C  232 0.983
   242  H   0.998        C  232 0.986
   243  H   0.999        C  232 0.982
   244  N   3.473        C  227 1.306    C  245 1.001    H  248 0.903    O  228 0.187
   245  C   3.971        N  244 1.001    H  249 0.962    H  250 0.956    C  246 0.946
   246  C   3.949        O  247 1.588    N  251 1.338    C  245 0.946
   247  O   1.943        C  246 1.588    N  251 0.197
   248  H   0.949        N  244 0.903
   249  H   0.994        C  245 0.962
   250  H   0.992        C  245 0.956
   251  N   3.486        C  246 1.338    C  252 0.976    H  256 0.880    O  247 0.197
   252  C   3.963        C  255 0.991    N  251 0.976    H  257 0.951    C  253 0.939
   253  C   3.952        O  254 1.646    N  261 1.290    C  252 0.939
   254  O   1.955        C  253 1.646    N  261 0.195
   255  C   3.983        C  252 0.991    H  259 0.980    H  258 0.979    H  260 0.977
   256  H   0.943        N  251 0.880
   257  H   0.996        C  252 0.951
   258  H   0.995        C  255 0.979
   259  H   0.996        C  255 0.980
   260  H   0.994        C  255 0.977
   261  N   3.468        C  253 1.290    C  262 0.985    H  272 0.921    O  254 0.195
   262  C   3.961        N  261 0.985    C  265 0.959    C  263 0.940    H  273 0.939
   263  C   3.942        O  264 1.577    N  281 1.331    C  262 0.940
   264  O   1.957        C  263 1.577    N  281 0.187
   265  C   3.984        C  266 1.003    H  274 0.969    H  275 0.961    C  262 0.959
   266  C   3.985        C  268 1.417    C  267 1.406    C  265 1.003    C  271 0.109
   267  C   3.989        C  269 1.450    C  266 1.406    H  276 0.961    C  270 0.112
   268  C   3.990        C  270 1.438    C  266 1.417    H  277 0.961    C  269 0.110
   269  C   3.989        C  267 1.450    C  271 1.432    H  278 0.962    C  268 0.110
   270  C   3.991        C  271 1.442    C  268 1.438    H  279 0.966    C  267 0.112
   271  C   3.990        C  270 1.442    C  269 1.432    H  280 0.967    C  266 0.109
   272  H   0.959        N  261 0.921
   273  H   0.991        C  262 0.939
   274  H   0.998        C  265 0.969
   275  H   0.996        C  265 0.961
   276  H   0.997        C  267 0.961
   277  H   0.999        C  268 0.961
   278  H   0.996        C  269 0.962
   279  H   0.999        C  270 0.966
   280  H   0.997        C  271 0.967
   281  N   3.482        C  263 1.331    C  282 0.974    H  289 0.885    O  264 0.187
   282  C   3.969        C  285 1.005    N  281 0.974    H  290 0.947    C  283 0.920
   283  C   3.945        O  284 1.651    N  293 1.296    C  282 0.920
   284  O   1.964        C  283 1.651    N  293 0.196
   285  C   3.985        C  282 1.005    H  292 0.970    H  291 0.965    C  286 0.903
   286  C   3.934        O  287 1.505    O  288 1.503    C  285 0.903
   287  O   1.800        C  286 1.505    O  288 0.216
   288  O   1.793        C  286 1.503    O  287 0.216
   289  H   0.953        N  281 0.885
   290  H   0.996        C  282 0.947
   291  H   0.998        C  285 0.965
   292  H   0.999        C  285 0.970
   293  N   3.450        C  283 1.296    C  294 0.974    H  300 0.868    O  284 0.196
   294  C   3.961        N  293 0.974    C  295 0.974    H  301 0.959    C  297 0.936
   295  C   3.898        O  296 1.897    C  294 0.974    H  405 0.951
   296  O   2.076        C  295 1.897
   297  C   3.947        C  299 1.002    O  298 0.989    H  302 0.954    C  294 0.936
   298  O   1.932        C  297 0.989    H  303 0.865
   299  C   3.987        C  297 1.002    H  306 0.984    H  305 0.979    H  304 0.977
   300  H   0.944        N  293 0.868
   301  H   0.994        C  294 0.959
   302  H   0.997        C  297 0.954
   303  H   0.886        O  298 0.865
   304  H   0.993        C  299 0.977
   305  H   0.995        C  299 0.979
   306  H   0.996        C  299 0.984
   307  N   2.997        C  308 1.005    H  406 0.958    H  312 0.950
   308  C   3.985        N  307 1.005    C  311 0.982    C  309 0.974    H  313 0.964
   309  C   3.885        O  310 1.880    C  308 0.974    H  407 0.951
   310  O   2.068        C  309 1.880
   311  C   3.989        H  314 0.984    H  316 0.982    C  308 0.982    H  315 0.974
   312  H   0.969        N  307 0.950
   313  H   0.999        C  308 0.964
   314  H   0.996        C  311 0.984
   315  H   0.997        C  311 0.974
   316  H   0.994        C  311 0.982
   317  N   2.993        C  318 1.012    H  408 0.957    H  322 0.954
   318  C   3.987        N  317 1.012    C  321 0.996    H  323 0.966    C  319 0.932
   319  C   3.945        O  320 1.594    N  327 1.336    C  318 0.932
   320  O   1.953        C  319 1.594    N  327 0.198
   321  C   3.993        C  318 0.996    H  324 0.986    H  325 0.982    H  326 0.978
   322  H   0.974        N  317 0.954
   323  H   0.999        C  318 0.966
   324  H   0.999        C  321 0.986
   325  H   0.997        C  321 0.982
   326  H   0.996        C  321 0.978
   327  N   3.482        C  319 1.336    C  328 0.972    H  335 0.871    O  320 0.198
   328  C   3.964        C  329 0.977    N  327 0.972    C  331 0.952    H  336 0.950
   329  C   3.899        O  330 1.864    C  328 0.977    H  409 0.954
   330  O   2.070        C  329 1.864
   331  C   3.983        C  333 1.008    C  332 0.995    H  337 0.961    C  328 0.952
   332  C   3.994        C  334 1.017    C  331 0.995    H  338 0.975    H  339 0.969
   333  C   3.991        C  331 1.008    H  342 0.983    H  341 0.977    H  340 0.976
   334  C   3.993        C  332 1.017    H  344 0.984    H  345 0.980    H  343 0.980
   335  H   0.938        N  327 0.871
   336  H   0.995        C  328 0.950
   337  H   0.995        C  331 0.961
   338  H   0.999        C  332 0.975
   339  H   0.998        C  332 0.969
   340  H   0.995        C  333 0.976
   341  H   0.998        C  333 0.977
   342  H   0.997        C  333 0.983
   343  H   0.998        C  334 0.980
   344  H   0.998        C  334 0.984
   345  H   0.997        C  334 0.980
   346  N   2.985        C  347 1.015    H  410 0.961    H  351 0.921
   347  C   3.988        N  346 1.015    C  350 0.992    H  352 0.965    C  348 0.936
   348  C   3.943        O  349 1.593    N  356 1.331    C  347 0.936
   349  O   1.938        C  348 1.593    N  356 0.196
   350  C   3.993        C  347 0.992    H  353 0.983    H  354 0.983    H  355 0.977
   351  H   0.966        N  346 0.921
   352  H   0.999        C  347 0.965
   353  H   0.999        C  350 0.983
   354  H   0.998        C  350 0.983
   355  H   0.996        C  350 0.977
   356  N   3.480        C  348 1.331    C  357 0.979    H  364 0.873    O  349 0.196
   357  C   3.965        N  356 0.979    C  358 0.971    C  360 0.953    H  365 0.948
   358  C   3.902        O  359 1.891    C  357 0.971    H  411 0.955
   359  O   2.041        C  358 1.891
   360  C   3.984        C  362 1.008    C  361 0.993    H  366 0.965    C  357 0.953
   361  C   3.992        C  363 1.018    C  360 0.993    H  367 0.975    H  368 0.963
   362  C   3.993        C  360 1.008    H  371 0.985    H  370 0.983    H  369 0.979
   363  C   3.994        C  361 1.018    H  373 0.987    H  372 0.984    H  374 0.983
   364  H   0.940        N  356 0.873
   365  H   0.994        C  357 0.948
   366  H   0.997        C  360 0.965
   367  H   0.998        C  361 0.975
   368  H   0.997        C  361 0.963
   369  H   0.996        C  362 0.979
   370  H   0.999        C  362 0.983
   371  H   0.998        C  362 0.985
   372  H   0.997        C  363 0.984
   373  H   0.999        C  363 0.987
   374  H   0.998        C  363 0.983
   375  N   2.998        C  376 1.007    H  412 0.959    H  383 0.928
   376  C   3.983        N  375 1.007    C  377 0.975    C  379 0.965    H  384 0.958
   377  C   3.885        O  378 1.882    C  376 0.975    H  413 0.956
   378  O   2.018        C  377 1.882
   379  C   3.990        C  380 0.994    H  386 0.970    H  385 0.970    C  376 0.965
   380  C   3.995        C  381 1.009    C  382 1.008    C  379 0.994    H  387 0.969
   381  C   3.995        C  380 1.009    H  390 0.985    H  389 0.985    H  388 0.985
   382  C   3.995        C  380 1.008    H  393 0.986    H  391 0.986    H  392 0.985
   383  H   0.968        N  375 0.928
   384  H   0.998        C  376 0.958
   385  H   0.998        C  379 0.970
   386  H   0.998        C  379 0.970
   387  H   1.000        C  380 0.969
   388  H   0.997        C  381 0.985
   389  H   0.999        C  381 0.985
   390  H   0.998        C  381 0.985
   391  H   0.997        C  382 0.986
   392  H   0.998        C  382 0.985
   393  H   0.999        C  382 0.986
   394  H   0.968        N    1 0.957
   395  H   0.993        C    3 0.952
   396  H   0.968        N   21 0.957
   397  H   0.994        C   23 0.954
   398  H   0.967        N   45 0.956
   399  H   0.995        C   63 0.955
   400  H   0.970        N   78 0.959
   401  H   0.995        C  100 0.956
   402  H   0.967        N  109 0.956
   403  H   0.995        C  111 0.954
   404  H   0.960        N  133 0.941
   405  H   0.991        C  295 0.951
   406  H   0.969        N  307 0.958
   407  H   0.992        C  309 0.951
   408  H   0.967        N  317 0.957
   409  H   0.994        C  329 0.954
   410  H   0.971        N  346 0.961
   411  H   0.996        C  358 0.955
   412  H   0.971        N  375 0.959
   413  H   0.996        C  377 0.956
 
molecular dipole:
                 x           y           z       tot (Debye)
 q only:       61.631      64.037      53.052
   full:       60.992      65.252      55.894     267.820
molecular quadrupole (traceless):
                xx          xy          yy          xz          yz          zz
 q only:      346.361    6861.342     931.662    4243.938    4872.392   -1278.024
  q+dip:       51.134    6871.154     992.280    4399.510    5295.301   -1043.415
   full:       48.417    6868.852     989.014    4399.540    5301.479   -1037.431


           -------------------------------------------------
          | TOTAL ENERGY             -605.069443092344 Eh   |
          | GRADIENT NORM               0.694668954163 Eh/α |
          | HOMO-LUMO GAP               1.279820852237 eV   |
           -------------------------------------------------

------------------------------------------------------------------------
 * finished run on 2019/05/31 at 02:07:23.490     
------------------------------------------------------------------------
 total:
 * wall-time:     0 d,  0 h,  0 min, 10.346 sec
 *  cpu-time:     0 d,  0 h,  0 min, 38.726 sec
 * ratio c/w:     3.743 speedup
 SCF:
 * wall-time:     0 d,  0 h,  0 min,  9.692 sec
 *  cpu-time:     0 d,  0 h,  0 min, 36.409 sec
 * ratio c/w:     3.756 speedup

