[Molden Format]
[Title]
[Atoms] AU
N      1     7  0.38958800392519E+02  0.59442784016267E+02  0.47200827633636E+02
C      2     6  0.37296557343942E+02  0.60877247814844E+02  0.48824311230607E+02
C      3     6  0.38655248598740E+02  0.61810226569449E+02  0.51217340373054E+02
O      4     8  0.40362155619650E+02  0.60624357141688E+02  0.52232328537511E+02
C      5     6  0.35086327247887E+02  0.59251391284085E+02  0.49729217685204E+02
C      6     6  0.33328253285676E+02  0.58408025259060E+02  0.47603695045588E+02
C      7     6  0.30976201702431E+02  0.57180236735418E+02  0.48729247923465E+02
N      8     7  0.29312318745707E+02  0.56332650565521E+02  0.46714635863794E+02
C      9     6  0.27143023375192E+02  0.55121467796065E+02  0.47046814167336E+02
N     10     7  0.26283974272439E+02  0.54645094916966E+02  0.49365370528204E+02
N     11     7  0.25757256718854E+02  0.54406138753203E+02  0.45063191749018E+02
H     12     1  0.39123403871890E+02  0.57577859453182E+02  0.47567369507715E+02
H     13     1  0.36636669846509E+02  0.62525259239976E+02  0.47761914921854E+02
H     14     1  0.35855466857552E+02  0.57600091543238E+02  0.50696094164742E+02
H     15     1  0.34028795400808E+02  0.60360119137206E+02  0.51113064198942E+02
H     16     1  0.32792481339051E+02  0.60057968252642E+02  0.46492107330727E+02
H     17     1  0.34292692848139E+02  0.57059465177888E+02  0.46380385696846E+02
H     18     1  0.31540599406142E+02  0.55552782844637E+02  0.49877645052246E+02
H     19     1  0.30018195535840E+02  0.58570739618139E+02  0.49922918124071E+02
H     20     1  0.29940974100815E+02  0.56641105793737E+02  0.44939225805546E+02
H     21     1  0.27094228439824E+02  0.55426076835766E+02  0.50895198321258E+02
H     22     1  0.24551828366737E+02  0.53872283470004E+02  0.49541327621485E+02
H     23     1  0.26432908914680E+02  0.54669217770242E+02  0.43304414364102E+02
H     24     1  0.24575839382441E+02  0.52885789340041E+02  0.45235336459847E+02
N     25     7  0.37758920325677E+02  0.63997641736155E+02  0.52104525515136E+02
C     26     6  0.38517624668150E+02  0.65026246099464E+02  0.54519406326719E+02
C     27     6  0.37920027654250E+02  0.63163740314162E+02  0.56672835017514E+02
O     28     8  0.36232197163763E+02  0.61605944266955E+02  0.56567157052629E+02
C     29     6  0.37173928944339E+02  0.67561756834751E+02  0.54904746343031E+02
C     30     6  0.34297569206016E+02  0.67312551213746E+02  0.54993068404527E+02
C     31     6  0.33100892961274E+02  0.66807998190247E+02  0.52340915079193E+02
O     32     8  0.33879313365053E+02  0.68131557239251E+02  0.50540410446775E+02
O     33     8  0.31465381619006E+02  0.65118567697146E+02  0.52211107413043E+02
H     34     1  0.36249866824398E+02  0.64809049372227E+02  0.51271349845608E+02
H     35     1  0.40574933247699E+02  0.65304600988523E+02  0.54455906878727E+02
H     36     1  0.37866425091660E+02  0.68462756663429E+02  0.56624963414717E+02
H     37     1  0.37653451720318E+02  0.68765057759096E+02  0.53296154211162E+02
H     38     1  0.33687016904128E+02  0.65801811020375E+02  0.56255414110009E+02
H     39     1  0.33486469639115E+02  0.69088995523353E+02  0.55659432809906E+02
N     40     7  0.39430085601184E+02  0.63437460866705E+02  0.58715662823077E+02
C     41     6  0.39201050307037E+02  0.61861730931144E+02  0.60939645118159E+02
C     42     6  0.40335311717287E+02  0.59202820605141E+02  0.60684399432243E+02
O     43     8  0.40059784889850E+02  0.57621151574049E+02  0.62344184755785E+02
H     44     1  0.40827831871876E+02  0.64730601341222E+02  0.58680839268490E+02
H     45     1  0.40133589310697E+02  0.62781927031218E+02  0.62531584012510E+02
H     46     1  0.37204548343404E+02  0.61630278689224E+02  0.61416074750831E+02
N     47     7  0.41690096869809E+02  0.58838523733049E+02  0.58592370796319E+02
C     48     6  0.42924837196897E+02  0.56506213618287E+02  0.57914186974134E+02
C     49     6  0.45563446371448E+02  0.57175691639320E+02  0.56913104093513E+02
O     50     8  0.46172417981264E+02  0.59354410831637E+02  0.56454648215042E+02
C     51     6  0.41386345152095E+02  0.55116484206634E+02  0.55869177666100E+02
C     52     6  0.38831376159096E+02  0.54318099510172E+02  0.56827342407344E+02
C     53     6  0.38577464965709E+02  0.52422291707319E+02  0.58630914606384E+02
C     54     6  0.36653087342982E+02  0.55467446102465E+02  0.55924856767466E+02
C     55     6  0.36227878765992E+02  0.51675267919865E+02  0.59473029348427E+02
C     56     6  0.34288957002801E+02  0.54722027129813E+02  0.56740429173393E+02
C     57     6  0.34055314865760E+02  0.52812767953030E+02  0.58525605768094E+02
O     58     8  0.31762315514276E+02  0.51977692203176E+02  0.59351229993897E+02
H     59     1  0.41767809407570E+02  0.60208724388875E+02  0.57264427919673E+02
H     60     1  0.43051114536743E+02  0.55364117639144E+02  0.59635283573977E+02
H     61     1  0.41146764611541E+02  0.56424322399266E+02  0.54291537520339E+02
H     62     1  0.42452611817636E+02  0.53469097259962E+02  0.55236785015668E+02
H     63     1  0.40232445455801E+02  0.51521931168773E+02  0.59410542031606E+02
H     64     1  0.36799854649272E+02  0.57010525711933E+02  0.54601881530964E+02
H     65     1  0.36045720564977E+02  0.50215340318290E+02  0.60882737063569E+02
H     66     1  0.32629462185696E+02  0.55653462784096E+02  0.56004454073669E+02
H     67     1  0.30452285113688E+02  0.53117331634772E+02  0.58773725294810E+02
H     68     1  0.38412371362481E+02  0.59547799513721E+02  0.45593672061607E+02
H     69     1  0.46837009595046E+02  0.55810798445874E+02  0.56619561168218E+02
[GTO]
           1 0
 s           4   1.00000000000000     
   63.5940244669410      -0.192343884147216     
   10.9514172315237      -0.234781079249537     
  0.879993102573770       0.375937539017009     
  0.335387152965211       0.149828892718628     
 p           4   1.00000000000000     
   7.29650404814951       0.976586663156674     
   1.89187454507126       0.903722267303458     
  0.666944321108241       0.474049584615364     
  0.265522026741309       7.151606771501186E-002
 
           2 0
 s           4   1.00000000000000     
   51.0493630955799      -0.163120632101274     
   8.79112274068875      -0.199110245810007     
  0.706404222589298       0.318820477536558     
  0.269228134134116       0.127065041842404     
 p           4   1.00000000000000     
   5.82636561408000       0.737164515452096     
   1.51068960187200       0.682163716148503     
  0.532564832880000       0.357830539292537     
  0.212023236906000       5.398303027584788E-002
 
           3 0
 s           4   1.00000000000000     
   51.0493630955799      -0.163120632101274     
   8.79112274068875      -0.199110245810007     
  0.706404222589298       0.318820477536558     
  0.269228134134116       0.127065041842404     
 p           4   1.00000000000000     
   5.82636561408000       0.737164515452096     
   1.51068960187200       0.682163716148503     
  0.532564832880000       0.357830539292537     
  0.212023236906000       5.398303027584788E-002
 
           4 0
 s           4   1.00000000000000     
   69.1379619061966      -0.204787563700778     
   11.9061291327073      -0.249970231368273     
  0.956708277443407       0.400258802406396     
  0.364625204960737       0.159522066676936     
 p           4   1.00000000000000     
   8.21241932577816        1.13215567991868     
   2.12935769970981        1.04768407822548     
  0.750664482023609       0.549565082171590     
  0.298852465432831       8.290848659276662E-002
 
           5 0
 s           4   1.00000000000000     
   51.0493630955799      -0.163120632101274     
   8.79112274068875      -0.199110245810007     
  0.706404222589298       0.318820477536558     
  0.269228134134116       0.127065041842404     
 p           4   1.00000000000000     
   5.82636561408000       0.737164515452096     
   1.51068960187200       0.682163716148503     
  0.532564832880000       0.357830539292537     
  0.212023236906000       5.398303027584788E-002
 
           6 0
 s           4   1.00000000000000     
   51.0493630955799      -0.163120632101274     
   8.79112274068875      -0.199110245810007     
  0.706404222589298       0.318820477536558     
  0.269228134134116       0.127065041842404     
 p           4   1.00000000000000     
   5.82636561408000       0.737164515452096     
   1.51068960187200       0.682163716148503     
  0.532564832880000       0.357830539292537     
  0.212023236906000       5.398303027584788E-002
 
           7 0
 s           4   1.00000000000000     
   51.0493630955799      -0.163120632101274     
   8.79112274068875      -0.199110245810007     
  0.706404222589298       0.318820477536558     
  0.269228134134116       0.127065041842404     
 p           4   1.00000000000000     
   5.82636561408000       0.737164515452096     
   1.51068960187200       0.682163716148503     
  0.532564832880000       0.357830539292537     
  0.212023236906000       5.398303027584788E-002
 
           8 0
 s           4   1.00000000000000     
   63.5940244669410      -0.192343884147216     
   10.9514172315237      -0.234781079249537     
  0.879993102573770       0.375937539017009     
  0.335387152965211       0.149828892718628     
 p           4   1.00000000000000     
   7.29650404814951       0.976586663156674     
   1.89187454507126       0.903722267303458     
  0.666944321108241       0.474049584615364     
  0.265522026741309       7.151606771501186E-002
 
           9 0
 s           4   1.00000000000000     
   51.0493630955799      -0.163120632101274     
   8.79112274068875      -0.199110245810007     
  0.706404222589298       0.318820477536558     
  0.269228134134116       0.127065041842404     
 p           4   1.00000000000000     
   5.82636561408000       0.737164515452096     
   1.51068960187200       0.682163716148503     
  0.532564832880000       0.357830539292537     
  0.212023236906000       5.398303027584788E-002
 
          10 0
 s           4   1.00000000000000     
   63.5940244669410      -0.192343884147216     
   10.9514172315237      -0.234781079249537     
  0.879993102573770       0.375937539017009     
  0.335387152965211       0.149828892718628     
 p           4   1.00000000000000     
   7.29650404814951       0.976586663156674     
   1.89187454507126       0.903722267303458     
  0.666944321108241       0.474049584615364     
  0.265522026741309       7.151606771501186E-002
 
          11 0
 s           4   1.00000000000000     
   63.5940244669410      -0.192343884147216     
   10.9514172315237      -0.234781079249537     
  0.879993102573770       0.375937539017009     
  0.335387152965211       0.149828892718628     
 p           4   1.00000000000000     
   7.29650404814951       0.976586663156674     
   1.89187454507126       0.903722267303458     
  0.666944321108241       0.474049584615364     
  0.265522026741309       7.151606771501186E-002
 
          12 0
 s           3   1.00000000000000     
   3.37022769753360       0.273591105889083     
  0.613891182214980       0.264605406538605     
  0.166142911484160       8.246594753408232E-002
 
          13 0
 s           3   1.00000000000000     
   3.37022769753360       0.273591105889083     
  0.613891182214980       0.264605406538605     
  0.166142911484160       8.246594753408232E-002
 
          14 0
 s           3   1.00000000000000     
   3.37022769753360       0.273591105889083     
  0.613891182214980       0.264605406538605     
  0.166142911484160       8.246594753408232E-002
 
          15 0
 s           3   1.00000000000000     
   3.37022769753360       0.273591105889083     
  0.613891182214980       0.264605406538605     
  0.166142911484160       8.246594753408232E-002
 
          16 0
 s           3   1.00000000000000     
   3.37022769753360       0.273591105889083     
  0.613891182214980       0.264605406538605     
  0.166142911484160       8.246594753408232E-002
 
          17 0
 s           3   1.00000000000000     
   3.37022769753360       0.273591105889083     
  0.613891182214980       0.264605406538605     
  0.166142911484160       8.246594753408232E-002
 
          18 0
 s           3   1.00000000000000     
   3.37022769753360       0.273591105889083     
  0.613891182214980       0.264605406538605     
  0.166142911484160       8.246594753408232E-002
 
          19 0
 s           3   1.00000000000000     
   3.37022769753360       0.273591105889083     
  0.613891182214980       0.264605406538605     
  0.166142911484160       8.246594753408232E-002
 
          20 0
 s           3   1.00000000000000     
   3.37022769753360       0.273591105889083     
  0.613891182214980       0.264605406538605     
  0.166142911484160       8.246594753408232E-002
 
          21 0
 s           3   1.00000000000000     
   3.37022769753360       0.273591105889083     
  0.613891182214980       0.264605406538605     
  0.166142911484160       8.246594753408232E-002
 
          22 0
 s           3   1.00000000000000     
   3.37022769753360       0.273591105889083     
  0.613891182214980       0.264605406538605     
  0.166142911484160       8.246594753408232E-002
 
          23 0
 s           3   1.00000000000000     
   3.37022769753360       0.273591105889083     
  0.613891182214980       0.264605406538605     
  0.166142911484160       8.246594753408232E-002
 
          24 0
 s           3   1.00000000000000     
   3.37022769753360       0.273591105889083     
  0.613891182214980       0.264605406538605     
  0.166142911484160       8.246594753408232E-002
 
          25 0
 s           4   1.00000000000000     
   63.5940244669410      -0.192343884147216     
   10.9514172315237      -0.234781079249537     
  0.879993102573770       0.375937539017009     
  0.335387152965211       0.149828892718628     
 p           4   1.00000000000000     
   7.29650404814951       0.976586663156674     
   1.89187454507126       0.903722267303458     
  0.666944321108241       0.474049584615364     
  0.265522026741309       7.151606771501186E-002
 
          26 0
 s           4   1.00000000000000     
   51.0493630955799      -0.163120632101274     
   8.79112274068875      -0.199110245810007     
  0.706404222589298       0.318820477536558     
  0.269228134134116       0.127065041842404     
 p           4   1.00000000000000     
   5.82636561408000       0.737164515452096     
   1.51068960187200       0.682163716148503     
  0.532564832880000       0.357830539292537     
  0.212023236906000       5.398303027584788E-002
 
          27 0
 s           4   1.00000000000000     
   51.0493630955799      -0.163120632101274     
   8.79112274068875      -0.199110245810007     
  0.706404222589298       0.318820477536558     
  0.269228134134116       0.127065041842404     
 p           4   1.00000000000000     
   5.82636561408000       0.737164515452096     
   1.51068960187200       0.682163716148503     
  0.532564832880000       0.357830539292537     
  0.212023236906000       5.398303027584788E-002
 
          28 0
 s           4   1.00000000000000     
   69.1379619061966      -0.204787563700778     
   11.9061291327073      -0.249970231368273     
  0.956708277443407       0.400258802406396     
  0.364625204960737       0.159522066676936     
 p           4   1.00000000000000     
   8.21241932577816        1.13215567991868     
   2.12935769970981        1.04768407822548     
  0.750664482023609       0.549565082171590     
  0.298852465432831       8.290848659276662E-002
 
          29 0
 s           4   1.00000000000000     
   51.0493630955799      -0.163120632101274     
   8.79112274068875      -0.199110245810007     
  0.706404222589298       0.318820477536558     
  0.269228134134116       0.127065041842404     
 p           4   1.00000000000000     
   5.82636561408000       0.737164515452096     
   1.51068960187200       0.682163716148503     
  0.532564832880000       0.357830539292537     
  0.212023236906000       5.398303027584788E-002
 
          30 0
 s           4   1.00000000000000     
   51.0493630955799      -0.163120632101274     
   8.79112274068875      -0.199110245810007     
  0.706404222589298       0.318820477536558     
  0.269228134134116       0.127065041842404     
 p           4   1.00000000000000     
   5.82636561408000       0.737164515452096     
   1.51068960187200       0.682163716148503     
  0.532564832880000       0.357830539292537     
  0.212023236906000       5.398303027584788E-002
 
          31 0
 s           4   1.00000000000000     
   51.0493630955799      -0.163120632101274     
   8.79112274068875      -0.199110245810007     
  0.706404222589298       0.318820477536558     
  0.269228134134116       0.127065041842404     
 p           4   1.00000000000000     
   5.82636561408000       0.737164515452096     
   1.51068960187200       0.682163716148503     
  0.532564832880000       0.357830539292537     
  0.212023236906000       5.398303027584788E-002
 
          32 0
 s           4   1.00000000000000     
   69.1379619061966      -0.204787563700778     
   11.9061291327073      -0.249970231368273     
  0.956708277443407       0.400258802406396     
  0.364625204960737       0.159522066676936     
 p           4   1.00000000000000     
   8.21241932577816        1.13215567991868     
   2.12935769970981        1.04768407822548     
  0.750664482023609       0.549565082171590     
  0.298852465432831       8.290848659276662E-002
 
          33 0
 s           4   1.00000000000000     
   69.1379619061966      -0.204787563700778     
   11.9061291327073      -0.249970231368273     
  0.956708277443407       0.400258802406396     
  0.364625204960737       0.159522066676936     
 p           4   1.00000000000000     
   8.21241932577816        1.13215567991868     
   2.12935769970981        1.04768407822548     
  0.750664482023609       0.549565082171590     
  0.298852465432831       8.290848659276662E-002
 
          34 0
 s           3   1.00000000000000     
   3.37022769753360       0.273591105889083     
  0.613891182214980       0.264605406538605     
  0.166142911484160       8.246594753408232E-002
 
          35 0
 s           3   1.00000000000000     
   3.37022769753360       0.273591105889083     
  0.613891182214980       0.264605406538605     
  0.166142911484160       8.246594753408232E-002
 
          36 0
 s           3   1.00000000000000     
   3.37022769753360       0.273591105889083     
  0.613891182214980       0.264605406538605     
  0.166142911484160       8.246594753408232E-002
 
          37 0
 s           3   1.00000000000000     
   3.37022769753360       0.273591105889083     
  0.613891182214980       0.264605406538605     
  0.166142911484160       8.246594753408232E-002
 
          38 0
 s           3   1.00000000000000     
   3.37022769753360       0.273591105889083     
  0.613891182214980       0.264605406538605     
  0.166142911484160       8.246594753408232E-002
 
          39 0
 s           3   1.00000000000000     
   3.37022769753360       0.273591105889083     
  0.613891182214980       0.264605406538605     
  0.166142911484160       8.246594753408232E-002
 
          40 0
 s           4   1.00000000000000     
   63.5940244669410      -0.192343884147216     
   10.9514172315237      -0.234781079249537     
  0.879993102573770       0.375937539017009     
  0.335387152965211       0.149828892718628     
 p           4   1.00000000000000     
   7.29650404814951       0.976586663156674     
   1.89187454507126       0.903722267303458     
  0.666944321108241       0.474049584615364     
  0.265522026741309       7.151606771501186E-002
 
          41 0
 s           4   1.00000000000000     
   51.0493630955799      -0.163120632101274     
   8.79112274068875      -0.199110245810007     
  0.706404222589298       0.318820477536558     
  0.269228134134116       0.127065041842404     
 p           4   1.00000000000000     
   5.82636561408000       0.737164515452096     
   1.51068960187200       0.682163716148503     
  0.532564832880000       0.357830539292537     
  0.212023236906000       5.398303027584788E-002
 
          42 0
 s           4   1.00000000000000     
   51.0493630955799      -0.163120632101274     
   8.79112274068875      -0.199110245810007     
  0.706404222589298       0.318820477536558     
  0.269228134134116       0.127065041842404     
 p           4   1.00000000000000     
   5.82636561408000       0.737164515452096     
   1.51068960187200       0.682163716148503     
  0.532564832880000       0.357830539292537     
  0.212023236906000       5.398303027584788E-002
 
          43 0
 s           4   1.00000000000000     
   69.1379619061966      -0.204787563700778     
   11.9061291327073      -0.249970231368273     
  0.956708277443407       0.400258802406396     
  0.364625204960737       0.159522066676936     
 p           4   1.00000000000000     
   8.21241932577816        1.13215567991868     
   2.12935769970981        1.04768407822548     
  0.750664482023609       0.549565082171590     
  0.298852465432831       8.290848659276662E-002
 
          44 0
 s           3   1.00000000000000     
   3.37022769753360       0.273591105889083     
  0.613891182214980       0.264605406538605     
  0.166142911484160       8.246594753408232E-002
 
          45 0
 s           3   1.00000000000000     
   3.37022769753360       0.273591105889083     
  0.613891182214980       0.264605406538605     
  0.166142911484160       8.246594753408232E-002
 
          46 0
 s           3   1.00000000000000     
   3.37022769753360       0.273591105889083     
  0.613891182214980       0.264605406538605     
  0.166142911484160       8.246594753408232E-002
 
          47 0
 s           4   1.00000000000000     
   63.5940244669410      -0.192343884147216     
   10.9514172315237      -0.234781079249537     
  0.879993102573770       0.375937539017009     
  0.335387152965211       0.149828892718628     
 p           4   1.00000000000000     
   7.29650404814951       0.976586663156674     
   1.89187454507126       0.903722267303458     
  0.666944321108241       0.474049584615364     
  0.265522026741309       7.151606771501186E-002
 
          48 0
 s           4   1.00000000000000     
   51.0493630955799      -0.163120632101274     
   8.79112274068875      -0.199110245810007     
  0.706404222589298       0.318820477536558     
  0.269228134134116       0.127065041842404     
 p           4   1.00000000000000     
   5.82636561408000       0.737164515452096     
   1.51068960187200       0.682163716148503     
  0.532564832880000       0.357830539292537     
  0.212023236906000       5.398303027584788E-002
 
          49 0
 s           4   1.00000000000000     
   51.0493630955799      -0.163120632101274     
   8.79112274068875      -0.199110245810007     
  0.706404222589298       0.318820477536558     
  0.269228134134116       0.127065041842404     
 p           4   1.00000000000000     
   5.82636561408000       0.737164515452096     
   1.51068960187200       0.682163716148503     
  0.532564832880000       0.357830539292537     
  0.212023236906000       5.398303027584788E-002
 
          50 0
 s           4   1.00000000000000     
   69.1379619061966      -0.204787563700778     
   11.9061291327073      -0.249970231368273     
  0.956708277443407       0.400258802406396     
  0.364625204960737       0.159522066676936     
 p           4   1.00000000000000     
   8.21241932577816        1.13215567991868     
   2.12935769970981        1.04768407822548     
  0.750664482023609       0.549565082171590     
  0.298852465432831       8.290848659276662E-002
 
          51 0
 s           4   1.00000000000000     
   51.0493630955799      -0.163120632101274     
   8.79112274068875      -0.199110245810007     
  0.706404222589298       0.318820477536558     
  0.269228134134116       0.127065041842404     
 p           4   1.00000000000000     
   5.82636561408000       0.737164515452096     
   1.51068960187200       0.682163716148503     
  0.532564832880000       0.357830539292537     
  0.212023236906000       5.398303027584788E-002
 
          52 0
 s           4   1.00000000000000     
   51.0493630955799      -0.163120632101274     
   8.79112274068875      -0.199110245810007     
  0.706404222589298       0.318820477536558     
  0.269228134134116       0.127065041842404     
 p           4   1.00000000000000     
   5.82636561408000       0.737164515452096     
   1.51068960187200       0.682163716148503     
  0.532564832880000       0.357830539292537     
  0.212023236906000       5.398303027584788E-002
 
          53 0
 s           4   1.00000000000000     
   51.0493630955799      -0.163120632101274     
   8.79112274068875      -0.199110245810007     
  0.706404222589298       0.318820477536558     
  0.269228134134116       0.127065041842404     
 p           4   1.00000000000000     
   5.82636561408000       0.737164515452096     
   1.51068960187200       0.682163716148503     
  0.532564832880000       0.357830539292537     
  0.212023236906000       5.398303027584788E-002
 
          54 0
 s           4   1.00000000000000     
   51.0493630955799      -0.163120632101274     
   8.79112274068875      -0.199110245810007     
  0.706404222589298       0.318820477536558     
  0.269228134134116       0.127065041842404     
 p           4   1.00000000000000     
   5.82636561408000       0.737164515452096     
   1.51068960187200       0.682163716148503     
  0.532564832880000       0.357830539292537     
  0.212023236906000       5.398303027584788E-002
 
          55 0
 s           4   1.00000000000000     
   51.0493630955799      -0.163120632101274     
   8.79112274068875      -0.199110245810007     
  0.706404222589298       0.318820477536558     
  0.269228134134116       0.127065041842404     
 p           4   1.00000000000000     
   5.82636561408000       0.737164515452096     
   1.51068960187200       0.682163716148503     
  0.532564832880000       0.357830539292537     
  0.212023236906000       5.398303027584788E-002
 
          56 0
 s           4   1.00000000000000     
   51.0493630955799      -0.163120632101274     
   8.79112274068875      -0.199110245810007     
  0.706404222589298       0.318820477536558     
  0.269228134134116       0.127065041842404     
 p           4   1.00000000000000     
   5.82636561408000       0.737164515452096     
   1.51068960187200       0.682163716148503     
  0.532564832880000       0.357830539292537     
  0.212023236906000       5.398303027584788E-002
 
          57 0
 s           4   1.00000000000000     
   51.0493630955799      -0.163120632101274     
   8.79112274068875      -0.199110245810007     
  0.706404222589298       0.318820477536558     
  0.269228134134116       0.127065041842404     
 p           4   1.00000000000000     
   5.82636561408000       0.737164515452096     
   1.51068960187200       0.682163716148503     
  0.532564832880000       0.357830539292537     
  0.212023236906000       5.398303027584788E-002
 
          58 0
 s           4   1.00000000000000     
   69.1379619061966      -0.204787563700778     
   11.9061291327073      -0.249970231368273     
  0.956708277443407       0.400258802406396     
  0.364625204960737       0.159522066676936     
 p           4   1.00000000000000     
   8.21241932577816        1.13215567991868     
   2.12935769970981        1.04768407822548     
  0.750664482023609       0.549565082171590     
  0.298852465432831       8.290848659276662E-002
 
          59 0
 s           3   1.00000000000000     
   3.37022769753360       0.273591105889083     
  0.613891182214980       0.264605406538605     
  0.166142911484160       8.246594753408232E-002
 
          60 0
 s           3   1.00000000000000     
   3.37022769753360       0.273591105889083     
  0.613891182214980       0.264605406538605     
  0.166142911484160       8.246594753408232E-002
 
          61 0
 s           3   1.00000000000000     
   3.37022769753360       0.273591105889083     
  0.613891182214980       0.264605406538605     
  0.166142911484160       8.246594753408232E-002
 
          62 0
 s           3   1.00000000000000     
   3.37022769753360       0.273591105889083     
  0.613891182214980       0.264605406538605     
  0.166142911484160       8.246594753408232E-002
 
          63 0
 s           3   1.00000000000000     
   3.37022769753360       0.273591105889083     
  0.613891182214980       0.264605406538605     
  0.166142911484160       8.246594753408232E-002
 
          64 0
 s           3   1.00000000000000     
   3.37022769753360       0.273591105889083     
  0.613891182214980       0.264605406538605     
  0.166142911484160       8.246594753408232E-002
 
          65 0
 s           3   1.00000000000000     
   3.37022769753360       0.273591105889083     
  0.613891182214980       0.264605406538605     
  0.166142911484160       8.246594753408232E-002
 
          66 0
 s           3   1.00000000000000     
   3.37022769753360       0.273591105889083     
  0.613891182214980       0.264605406538605     
  0.166142911484160       8.246594753408232E-002
 
          67 0
 s           3   1.00000000000000     
   3.37022769753360       0.273591105889083     
  0.613891182214980       0.264605406538605     
  0.166142911484160       8.246594753408232E-002
 
          68 0
 s           3   1.00000000000000     
   3.37022769753360       0.273591105889083     
  0.613891182214980       0.264605406538605     
  0.166142911484160       8.246594753408232E-002
 
          69 0
 s           3   1.00000000000000     
   3.37022769753360       0.273591105889083     
  0.613891182214980       0.264605406538605     
  0.166142911484160       8.246594753408232E-002
 
[MO]
Sym=     1a
Ene=  -0.733801313641354     
Spin= Alpha
Occup=     2.00000000
           1  4.464105165464528E-006