      -----------------------------------------------------------      
     |                   =====================                   |     
     |                           x T B                           |     
     |                   =====================                   |     
     |                         S. Grimme                         |     
     |          Mulliken Center for Theoretical Chemistry        |     
     |                    University of Bonn                     |     
     |                 Version 6.0.1 (SAW181210)                 |     
      -----------------------------------------------------------      

   This program is distributed in the hope that it will be useful,
   but WITHOUT ANY WARRANTY; without even the implied warranty of
   MERCHANTABILITY or FITNESS FOR A PARTICULAR PURPOSE.
   
   FOR NON-COMMERCIAL, ACADEMIA USE ONLY.
   
   Cite this work as:
   S. Grimme, C. Bannwarth, P. Shushkov, J. Comput. Theory Chem., 2017,
   13, 1989-2009.
   C. Bannwarth, S. Ehlert and S. Grimme., ChemRxiv, 2018, preprint.
   http://doi.org/10.26434/chemrxiv.7246238.v1
   
   for sTDA-xTB:
   S. Grimme and C. Bannwarth, J. Chem. Phys., 2016, 145, 054103.
   
   in the mass-spec context:
   V. Asgeirsson, C. Bauer and S. Grimme, Chem. Sci., 2017, 8, 4879.
   
   if GBSA is used:
   P. Shushkov, F. März and S. Grimme, unpublished.
   
   for ANC optimizer:
   S. Grimme, unpublished.
   Rational Function algorithm used in ANCopt:
   F. Eckert, P. Pulay, H.-J. Werner, J. Comput. Chem., 1997, 18, 1473.
   
   with help from (in alphabetical order)
   C. Bannwarth, F. Bohle, G. Brandenburg, E. Caldeweyher, M. Checinski,
   S. Dohm, S. Ehlert, S. Ehrlich, F. März, H. Neugebauer, J. Pisarek,
   P. Pracht, P. Shushkov, and S. Spicher.
   
 * started run on 2019/03/14 at 16:03:15.673     
========================================================================
 # omp threads = 1
========================================================================
number of atoms            : 69
number of electrons        : 198
charge                     : 0
spin                       : .0
first test random number   : .6276

########################################################################
# WARNING! Please study the warnings concerning your input carefully
#  - XTBPATH is not set, using XTBHOME instead
########################################################################

           ------------------------------------------------- 
          |                 G F N 2 - x T B                 |
          | Geometry, Frequencies, Noncovalent interactions |
          |            JCTC 2018 parametrisation            |
           ------------------------------------------------- 
 
      method parameters     
 k(s)        :  1.8500
 k(p)        :  2.2300
 k(d)        :  2.2300
 k(f)        :  2.0000
 kEN (H0ij)  : -2.0000
 D4 a1       :  0.5200
 D4 a2       :  5.0000
 D4 s6       :  1.0000
 D4 s8       :  2.7000
 D4 s9       :  5.0000
 alphaj      :  2.0000

 Solvent             : h2o
 Using internal parameter file: .param_gbsa2_h2o
 Gsolv ref. state (COSMO-RS): gsolv [1 M gas/solution]
 temperature (mdtemp)       :    298.150000000000     
 dielectric constant        :    80.2000000000000     
 rho                        :    1.00000000000000     
 mass                       :    18.0000000000000     
 surface tension            :    15.5689454083859     
 probe radius               :   0.975313790000000     
 vdW radii scaling          :    1.00000000000000     
 Gshift (Eh)                :   1.857443126794793E-003
 c1                         :    1.55243817000000     
 soset                      :   0.130326360000000     
 HB correction              :  T

            Z     q(EN)     CN     RAES       Cart. coordinates
     1  N   5.0   -0.19    3.22    1.96    38.95880    59.44278    47.20083
     2  C   4.0    0.03    4.32    4.23    37.29656    60.87725    48.82431
     3  C   4.0    0.16    3.43    3.09    38.65525    61.81023    51.21734
     4  O   6.0   -0.28    1.23    1.80    40.36216    60.62436    52.23233
     5  C   4.0   -0.04    4.30    4.20    35.08633    59.25139    49.72922
     6  C   4.0   -0.05    4.19    3.98    33.32825    58.40803    47.60370
     7  C   4.0   -0.01    4.22    4.05    30.97620    57.18024    48.72925
     8  N   5.0   -0.14    3.40    2.02    29.31232    56.33265    46.71464
     9  C   4.0    0.10    3.34    3.06    27.14302    55.12147    47.04681
    10  N   5.0   -0.18    3.26    1.97    26.28397    54.64509    49.36537
    11  N   5.0   -0.18    3.23    1.96    25.75726    54.40614    45.06319
    12  H   1.0    0.09    1.03    1.43    39.12340    57.57786    47.56737
    13  H   1.0    0.05    1.05    1.44    36.63667    62.52526    47.76191
    14  H   1.0    0.05    1.03    1.43    35.85547    57.60009    50.69609
    15  H   1.0    0.06    1.03    1.43    34.02880    60.36012    51.11306
    16  H   1.0    0.05    1.03    1.43    32.79248    60.05797    46.49211
    17  H   1.0    0.04    1.03    1.43    34.29269    57.05947    46.38039
    18  H   1.0    0.04    1.02    1.43    31.54060    55.55278    49.87765
    19  H   1.0    0.05    1.02    1.43    30.01820    58.57074    49.92292
    20  H   1.0    0.08    1.07    1.44    29.94097    56.64111    44.93923
    21  H   1.0    0.09    1.03    1.43    27.09423    55.42608    50.89520
    22  H   1.0    0.09    1.04    1.43    24.55183    53.87228    49.54133
    23  H   1.0    0.09    1.03    1.43    26.43291    54.66922    43.30441
    24  H   1.0    0.09    1.02    1.43    24.57584    52.88579    45.23534
    25  N   5.0   -0.13    3.51    2.09    37.75892    63.99764    52.10453
    26  C   4.0    0.04    4.41    4.39    38.51762    65.02625    54.51941
    27  C   4.0    0.16    3.42    3.09    37.92003    63.16374    56.67284
    28  O   6.0   -0.29    1.23    1.80    36.23220    61.60594    56.56716
    29  C   4.0   -0.04    4.26    4.12    37.17393    67.56176    54.90475
    30  C   4.0   -0.02    4.19    3.97    34.29757    67.31255    54.99307
    31  C   4.0    0.24    3.16    3.03    33.10089    66.80800    52.34092
    32  O   6.0   -0.28    1.18    1.80    33.87931    68.13156    50.54041
    33  O   6.0   -0.28    1.16    1.80    31.46538    65.11857    52.21111
    34  H   1.0    0.10    1.13    1.45    36.24987    64.80905    51.27135
    35  H   1.0    0.05    1.05    1.44    40.57493    65.30460    54.45591
    36  H   1.0    0.04    1.02    1.43    37.86643    68.46276    56.62496
    37  H   1.0    0.06    1.03    1.43    37.65345    68.76506    53.29615
    38  H   1.0    0.07    1.03    1.43    33.68702    65.80181    56.25541
    39  H   1.0    0.05    1.03    1.43    33.48647    69.08900    55.65943
    40  N   5.0   -0.15    3.38    2.01    39.43009    63.43746    58.71566
    41  C   4.0    0.02    4.24    4.08    39.20105    61.86173    60.93965
    42  C   4.0    0.16    3.29    3.05    40.33531    59.20282    60.68440
    43  O   6.0   -0.28    1.21    1.80    40.05978    57.62115    62.34418
    44  H   1.0    0.08    1.06    1.44    40.82783    64.73060    58.68084
    45  H   1.0    0.05    1.03    1.43    40.13359    62.78193    62.53158
    46  H   1.0    0.06    1.03    1.43    37.20455    61.63028    61.41607
    47  N   5.0   -0.12    3.54    2.11    41.69010    58.83852    58.59237
    48  C   4.0    0.04    4.31    4.22    42.92484    56.50621    57.91419
    49  C   4.0    0.08    3.21    3.04    45.56345    57.17569    56.91310
    50  O   6.0   -0.27    1.14    1.80    46.17242    59.35441    56.45465
    51  C   4.0   -0.03    4.31    4.21    41.38635    55.11648    55.86918
    52  C   4.0   -0.00    3.56    3.14    38.83138    54.31810    56.82734
    53  C   4.0   -0.03    3.47    3.10    38.57746    52.42229    58.63091
    54  C   4.0   -0.03    3.47    3.10    36.65309    55.46745    55.92486
    55  C   4.0   -0.02    3.44    3.09    36.22788    51.67527    59.47303
    56  C   4.0   -0.04    3.43    3.09    34.28896    54.72203    56.74043
    57  C   4.0    0.08    3.45    3.09    34.05531    52.81277    58.52561
    58  O   6.0   -0.23    2.11    1.84    31.76232    51.97769    59.35123
    59  H   1.0    0.11    1.09    1.44    41.76781    60.20872    57.26443
    60  H   1.0    0.06    1.05    1.44    43.05111    55.36412    59.63528
    61  H   1.0    0.07    1.04    1.43    41.14676    56.42432    54.29154
    62  H   1.0    0.04    1.03    1.43    42.45261    53.46910    55.23679
    63  H   1.0    0.06    1.03    1.43    40.23245    51.52193    59.41054
    64  H   1.0    0.07    1.03    1.43    36.79985    57.01053    54.60188
    65  H   1.0    0.07    1.03    1.43    36.04572    50.21534    60.88274
    66  H   1.0    0.06    1.03    1.43    32.62946    55.65346    56.00445
    67  H   1.0    0.12    1.04    1.43    30.45229    53.11733    58.77373
    68  H   1.0    0.09    1.07    1.44    38.41237    59.54780    45.59367
    69  H   1.0    0.06    1.05    1.44    46.83701    55.81080    56.61956

  Z AO/shell   Hii/eV     exponent
  1     Wed Apr 25 08:07:45 CEST 2018   EN: 2.200 GM2: 0.406  GM3: 0.0800  RAES: 1.40
     1s    -10.707211    1.230000
  6     Wed Apr 25 08:07:45 CEST 2018   EN: 2.550 GM2: 0.538  GM3: 0.1500  RAES: 3.00
     2s    -13.970922    2.096432
     2p    -10.063292    1.800000
  7     Wed Apr 25 08:07:45 CEST 2018   EN: 3.040 GM2: 0.461  GM3:-0.0640  RAES: 1.90
     2s    -16.686243    2.339881
     2p    -12.523956    2.014332
  8     Wed Apr 25 08:07:45 CEST 2018   EN: 3.440 GM2: 0.452  GM3:-0.0517  RAES: 1.80
     2s    -20.229985    2.439742
     2p    -15.503117    2.137023
 no old-style atom pair restraining (fixing) potential
           ------------------------------------------------- 
          |        Self-Consistent Charge Iterations        |
           ------------------------------------------------- 

 Ncao       : 177
 Nao        : 177
 Nshell     : 105
 Nel        : 198
 T(el)      :   500.0
 intcut     :    35.0
 scfconv/Eh :  0.100E-06
   qconv/e  :  0.100E-04
 intneglect :  0.100E-08
 broydamp   :      0.400
 iter      E             dE          RMSdq      gap      omega  full diag
   1   -114.0074019 -0.114007E+03  0.492E+00    3.51       0.0  T
   2   -114.2940425 -0.286641E+00  0.230E+00    2.21       1.0  T
   3   -114.3115989 -0.175563E-01  0.126E+00    2.35       1.0  T
   4   -114.3290635 -0.174646E-01  0.274E-01    1.82       1.0  T
   5   -114.3300583 -0.994857E-03  0.144E-01    1.92       1.0  T
   6   -114.3302900 -0.231687E-03  0.609E-02    1.96       1.0  T
   7   -114.3303655 -0.754626E-04  0.233E-02    1.97       1.0  T
   8   -114.3303712 -0.575943E-05  0.107E-02    1.99       1.1  T
   9   -114.3303728 -0.152511E-05  0.424E-03    1.99       2.8  T
  10   -114.3303730 -0.208088E-06  0.172E-03    1.99       7.0  T
  11   -114.3303730 -0.395067E-07  0.639E-04    1.99      18.9  T
  12   -114.3303730 -0.546648E-08  0.259E-04    1.99      46.5  T
  13   -114.3303730 -0.185480E-08  0.116E-04    1.99     103.7  T
  14   -114.3303730 -0.148759E-09  0.477E-05    1.99     252.2  T
  15   -114.3303730 -0.280238E-10  0.192E-05    1.99     626.0  T
speedup  1.00
cpu  time for SCC    0.08 s
wall time for SCC    0.08 s

   *** convergence criteria satisfied after 15 iterations ***

          eigenvalues
 #    :          87         88         89         90         91         92         93         94
 occ. :        2.000      2.000      2.000      2.000      2.000      2.000      2.000      2.000
 eps  :       -11.677    -11.561    -11.347    -11.159    -11.099    -10.936    -10.914    -10.893
 #    :          95         96         97         98         99        100        101        102
 occ. :        2.000      2.000      2.000      2.000      2.000      0.000      0.000      0.000
 eps  :       -10.827    -10.373    -10.261     -9.942     -9.861     -7.868     -6.333     -6.291
 #    :         103        104        105        106        107        108        109        110
 occ. :        0.000      0.000      0.000      0.000      0.000      0.000      0.000      0.000
 eps  :        -5.992     -5.945     -5.889     -5.712     -4.791     -2.405     -1.514     -0.915


   #   Z            q   n(s)   n(p)   n(d)      C6AA      α(0)
   1   7 N     -0.394  1.321  4.073  0.000    30.204     8.162
   2   6 C      0.038  1.055  2.907  0.000    19.949     6.361
   3   6 C      0.274  1.048  2.678  0.000    22.369     7.745
   4   8 O     -0.491  1.740  4.752  0.000    23.589     6.512
   5   6 C     -0.063  1.051  3.011  0.000    21.694     6.629
   6   6 C     -0.074  1.051  3.022  0.000    21.904     6.663
   7   6 C     -0.018  1.052  2.966  0.000    20.979     6.535
   8   7 N     -0.138  1.212  3.927  0.000    23.992     7.275
   9   6 C      0.235  1.018  2.748  0.000    23.081     7.866
  10   7 N     -0.247  1.232  4.015  0.000    26.442     7.637
  11   7 N     -0.265  1.257  4.009  0.000    26.871     7.699
  12   1 H      0.172  0.828  0.000  0.000     1.261     1.759
  13   1 H      0.025  0.975  0.000  0.000     2.661     2.551
  14   1 H      0.049  0.951  0.000  0.000     2.330     2.387
  15   1 H      0.030  0.970  0.000  0.000     2.585     2.514
  16   1 H      0.055  0.945  0.000  0.000     2.259     2.350
  17   1 H      0.071  0.929  0.000  0.000     2.077     2.254
  18   1 H      0.084  0.916  0.000  0.000     1.935     2.175
  19   1 H      0.072  0.928  0.000  0.000     2.063     2.246
  20   1 H      0.233  0.767  0.000  0.000     0.950     1.527
  21   1 H      0.239  0.761  0.000  0.000     0.925     1.507
  22   1 H      0.261  0.739  0.000  0.000     0.843     1.438
  23   1 H      0.245  0.755  0.000  0.000     0.901     1.487
  24   1 H      0.262  0.738  0.000  0.000     0.839     1.435
  25   7 N     -0.187  1.247  3.940  0.000    25.046     7.433
  26   6 C      0.029  1.061  2.910  0.000    20.085     6.382
  27   6 C      0.278  1.043  2.679  0.000    22.288     7.731
  28   8 O     -0.466  1.745  4.721  0.000    23.036     6.435
  29   6 C     -0.062  1.054  3.008  0.000    21.684     6.629
  30   6 C     -0.094  1.063  3.030  0.000    22.295     6.723
  31   6 C      0.371  1.025  2.604  0.000    20.719     7.449
  32   8 O     -0.652  1.777  4.874  0.000    27.422     7.021
  33   8 O     -0.636  1.768  4.868  0.000    27.029     6.970
  34   1 H      0.192  0.808  0.000  0.000     1.148     1.678
  35   1 H      0.056  0.944  0.000  0.000     2.249     2.345
  36   1 H      0.051  0.949  0.000  0.000     2.305     2.374
  37   1 H      0.059  0.941  0.000  0.000     2.217     2.328
  38   1 H      0.023  0.977  0.000  0.000     2.691     2.565
  39   1 H      0.026  0.974  0.000  0.000     2.637     2.540
  40   7 N     -0.187  1.243  3.944  0.000    25.058     7.435
  41   6 C     -0.035  1.053  2.982  0.000    21.267     6.579
  42   6 C      0.278  1.037  2.685  0.000    22.301     7.733
  43   8 O     -0.489  1.746  4.743  0.000    23.536     6.504
  44   1 H      0.212  0.788  0.000  0.000     1.049     1.604
  45   1 H      0.100  0.900  0.000  0.000     1.783     2.088
  46   1 H      0.094  0.906  0.000  0.000     1.838     2.120
  47   7 N     -0.155  1.225  3.930  0.000    24.349     7.329
  48   6 C      0.026  1.062  2.911  0.000    20.141     6.392
  49   6 C      0.197  1.085  2.717  0.000    23.796     7.989
  50   8 O     -0.363  1.757  4.606  0.000    20.959     6.138
  51   6 C     -0.075  1.056  3.019  0.000    21.926     6.665
  52   6 C      0.004  1.075  2.921  0.000    27.937     8.670
  53   6 C     -0.038  1.082  2.956  0.000    28.954     8.824
  54   6 C     -0.035  1.082  2.953  0.000    28.871     8.812
  55   6 C     -0.059  1.074  2.984  0.000    29.457     8.900
  56   6 C     -0.074  1.076  2.997  0.000    29.834     8.957
  57   6 C      0.143  1.046  2.811  0.000    24.878     8.174
  58   8 O     -0.437  1.721  4.716  0.000    21.580     6.271
  59   1 H      0.199  0.801  0.000  0.000     1.109     1.650
  60   1 H      0.102  0.898  0.000  0.000     1.763     2.076
  61   1 H      0.068  0.932  0.000  0.000     2.111     2.272
  62   1 H      0.075  0.925  0.000  0.000     2.033     2.230
  63   1 H      0.046  0.954  0.000  0.000     2.366     2.405
  64   1 H      0.032  0.968  0.000  0.000     2.561     2.503
  65   1 H      0.051  0.949  0.000  0.000     2.304     2.374
  66   1 H      0.042  0.958  0.000  0.000     2.419     2.432
  67   1 H      0.352  0.648  0.000  0.000     0.583     1.200
  68   1 H      0.190  0.810  0.000  0.000     1.156     1.684
  69   1 H      0.088  0.912  0.000  0.000     1.894     2.152

 Mol. C6AA /au·bohr⁶  :      48073.890072
 Mol. C8AA /au·bohr⁸  :    1086089.558268
 Mol. α(0) /au        :        331.479889

 
 Wiberg/Mayer (AO) data. WBOs > 0.1 written file <wbo>
 largest (>0.05) Wiberg bond orders for each atom
           total WBO             WBO to atom ...
     1  N   2.996    C    2 1.025    H   12 0.954    H   68 0.953
     2  C   3.988    N    1 1.025    C    5 0.968    H   13 0.961    C    3 0.935    O    4 0.054
     3  C   3.938    O    4 1.636    N   25 1.289    C    2 0.935
     4  O   1.943    C    3 1.636    N   25 0.190    C    2 0.054
     5  C   3.992    C    6 1.002    H   15 0.973    H   14 0.968    C    2 0.968
     6  C   3.991    C    7 1.007    C    5 1.002    H   16 0.974    H   17 0.972
     7  C   3.960    C    6 1.007    N    8 0.986    H   19 0.961    H   18 0.961
     8  N   3.481    C    9 1.326    C    7 0.986    H   20 0.913    N   10 0.105    N   11 0.099
     9  C   3.976    N    8 1.326    N   10 1.322    N   11 1.296
    10  N   3.398    C    9 1.322    H   21 0.920    H   22 0.913    N    8 0.105    N   11 0.094
    11  N   3.354    C    9 1.296    H   23 0.920    H   24 0.907    N    8 0.099    N   10 0.094
    12  H   0.970    N    1 0.954
    13  H   0.999    C    2 0.961
    14  H   0.998    C    5 0.968
    15  H   0.999    C    5 0.973
    16  H   0.997    C    6 0.974
    17  H   0.995    C    6 0.972
    18  H   0.993    C    7 0.961
    19  H   0.995    C    7 0.961
    20  H   0.945    N    8 0.913
    21  H   0.943    N   10 0.920
    22  H   0.932    N   10 0.913
    23  H   0.940    N   11 0.920
    24  H   0.931    N   11 0.907
    25  N   3.458    C    3 1.289    C   26 0.985    H   34 0.908    O    4 0.190
    26  C   3.971    N   25 0.985    C   29 0.980    H   35 0.951    C   27 0.931    O   28 0.053
    27  C   3.949    O   28 1.672    N   40 1.262    C   26 0.931
    28  O   1.986    C   27 1.672    N   40 0.195    C   26 0.053
    29  C   3.991    C   30 1.007    C   26 0.980    H   36 0.974    H   37 0.969
    30  C   3.989    C   29 1.007    H   38 0.979    H   39 0.966    C   31 0.914    O   32 0.053    O   33 0.052
    31  C   3.934    O   33 1.505    O   32 1.475    C   30 0.914
    32  O   1.789    C   31 1.475    O   33 0.218    C   30 0.053
    33  O   1.801    C   31 1.505    O   32 0.218    C   30 0.052
    34  H   0.963    N   25 0.908
    35  H   0.997    C   26 0.951
    36  H   0.997    C   29 0.974
    37  H   0.996    C   29 0.969
    38  H   0.999    C   30 0.979
    39  H   0.999    C   30 0.966
    40  N   3.448    C   27 1.262    C   41 0.997    H   44 0.928    O   28 0.195
    41  C   3.959    N   40 0.997    H   45 0.953    H   46 0.952    C   42 0.942    O   43 0.058
    42  C   3.953    O   43 1.634    N   47 1.309    C   41 0.942
    43  O   1.953    C   42 1.634    N   47 0.199    C   41 0.058
    44  H   0.955    N   40 0.928
    45  H   0.989    C   41 0.953
    46  H   0.991    C   41 0.952
    47  N   3.487    C   42 1.309    C   48 0.989    H   59 0.917    O   43 0.199
    48  C   3.964    N   47 0.989    C   49 0.984    C   51 0.937    H   60 0.933    O   50 0.064
    49  C   3.901    O   50 1.897    C   48 0.984    H   69 0.951
    50  O   2.046    C   49 1.897    C   48 0.064
    51  C   3.984    C   52 1.007    H   61 0.970    H   62 0.962    C   48 0.937
    52  C   3.987    C   54 1.413    C   53 1.399    C   51 1.007    C   57 0.095
    53  C   3.990    C   55 1.466    C   52 1.399    H   63 0.967    C   56 0.105
    54  C   3.989    C   56 1.446    C   52 1.413    H   64 0.962    C   55 0.106
    55  C   3.988    C   53 1.466    C   57 1.361    H   65 0.968    C   54 0.106
    56  C   3.986    C   54 1.446    C   57 1.377    H   66 0.965    C   53 0.105    O   58 0.060
    57  C   3.941    C   56 1.377    C   55 1.361    O   58 1.071    C   52 0.095
    58  O   2.083    C   57 1.071    H   67 0.856    C   56 0.060
    59  H   0.960    N   47 0.917
    60  H   0.989    C   48 0.933
    61  H   0.995    C   51 0.970
    62  H   0.993    C   51 0.962
    63  H   0.998    C   53 0.967
    64  H   0.999    C   54 0.962
    65  H   0.997    C   55 0.968
    66  H   0.998    C   56 0.965
    67  H   0.876    O   58 0.856
    68  H   0.963    N    1 0.953
    69  H   0.992    C   49 0.951
 MOs/occ written to file <molden.input>
 
molecular dipole:
                 x           y           z       tot (Debye)
 q only:       -5.954      -9.718      -5.449
   full:       -6.175      -8.944      -5.661      31.149
molecular quadrupole (traceless):
                xx          xy          yy          xz          yz          zz
 q only:      497.647    -964.903    -716.317    -692.482   -1177.684     218.670
  q+dip:      444.330    -945.359    -601.477    -720.525   -1129.378     157.147
   full:      443.975    -945.169    -601.809    -720.450   -1126.830     157.835
speedup  0.79
cpu  time for grad    0.18 s
wall time for grad    0.23 s

SCC energy    :    -114.3337423
rep           :       1.3972090
ES            :       0.4496740
AES           :      -0.0099364
AXC           :       0.0354113
disp          :      -0.0758397
XB            :       0.0000000
fix           :       0.0000000
Gborn         :       0.0000000
Gsasa         :       0.0000000
Ghb           :       0.0000000
Gshift        :       0.0000000
Gsolv         :      -0.1492751      -93.67
Etot ala COSMO:    -114.3337423
grad norm     :       0.2197191
total E       :    -112.9338689
atomizationE  :      20.1703050    12657.06
(atE without considering molecular charge,
 total energy contains solvation terms)
H-L gap (eV)  :          1.9929

------------------------------------------------------------------------
 * finished run on 2019/03/14 at 16:03:16.099     
------------------------------------------------------------------------
 total:
 * wall-time:     0 d,  0 h,  0 min,  0.425 sec
 *  cpu-time:     0 d,  0 h,  0 min,  0.227 sec
 * ratio c/w:     0.533 speedup
 SCF:
 * wall-time:     0 d,  0 h,  0 min,  0.264 sec
 *  cpu-time:     0 d,  0 h,  0 min,  0.213 sec
 * ratio c/w:     0.807 speedup

