      -----------------------------------------------------------      
     |                   =====================                   |     
     |                           x T B                           |     
     |                   =====================                   |     
     |                         S. Grimme                         |     
     |          Mulliken Center for Theoretical Chemistry        |     
     |                    University of Bonn                     |     
     |                Version 6.1 RC1 (SAW190329)                |     
      -----------------------------------------------------------      

   This program is distributed in the hope that it will be useful,
   but WITHOUT ANY WARRANTY; without even the implied warranty of
   MERCHANTABILITY or FITNESS FOR A PARTICULAR PURPOSE.
   
   FOR NON-COMMERCIAL, ACADEMIA USE ONLY.
   
   Cite this work as:
   S. Grimme, C. Bannwarth, P. Shushkov, J. Comput. Theory Chem., 2017,
   13, 1989-2009. DOI: 10.1021/acs.jctc.7b00118
   C. Bannwarth, S. Ehlert and S. Grimme., J. Comput. Theory Chem., 2019,
   just accepted. DOI: 10.1021/acs.jctc.8b01176
   
   for sTDA-xTB:
   S. Grimme and C. Bannwarth, J. Chem. Phys., 2016, 145, 054103.
   DOI: 10.1063/1.4959605
   
   in the mass-spec context:
   V. Asgeirsson, C. Bauer and S. Grimme, Chem. Sci., 2017, 8, 4879.
   DOI: 10.1039/c7sc00601b
   
   for metadynamics refer to:
   S. Grimme, ChemRxiv, Preprint. DOI: 10.26434/chemrxiv.7660532.v1
   
   with help from (in alphabetical order)
   C. Bannwarth, F. Bohle, G. Brandenburg, E. Caldeweyher, M. Checinski,
   S. Dohm, S. Ehlert, S. Ehrlich, F. März, H. Neugebauer, J. Pisarek,
   P. Pracht, P. Shushkov, and S. Spicher.
   
 * started run on 2019/05/31 at 07:35:53.042     

           -------------------------------------------------
          |                Calculation Setup                |
           -------------------------------------------------

          program call               : /home/lum/install/xtb/xtb-190329/bin/xtb xtb_tmp.xyz --chrg 1 --grad --gfn 2 --etemp 500 --acc 0.1 --gbsa h2o --parallel 1
          hostname                   : cu05
          coordinate file            : xtb_tmp.xyz
          omp threads                :                     1
          number of atoms            :                   205
          number of electrons        :                   548
          charge                     :                     1
          spin                       :                   0.0
          first test random number   :      0.82293138883503


molecular fragmentation (1/2 indicates fragments):
111111111111111111112222222222222222222222222222222222222222222222222222
222222222222222222222222222222222222222222222222222222222222222222222222
2222222222222222222222222222222222222222222222222222222222112
# atoms in fragment 1/2:    22   183
 fragment masses (1/2) :      149.19     1230.45
CMA distance (Bohr)    :  21.048
constraining FC (au)   :  0.0500

########################################################################
# WARNING! Please study the warnings concerning your input carefully
#  - XTBPATH is not set, using XTBHOME instead
########################################################################

           ------------------------------------------------- 
          |                 G F N 2 - x T B                 |
          | Geometry, Frequencies, Noncovalent interactions |
          |            JCTC 2018 parametrisation            |
           ------------------------------------------------- 
 
             k(s)              :                1.8500
             k(p)              :                2.2300
             k(d)              :                2.2300
             k(f)              :                2.0000
             kEN (H0ij)        :               -2.0000
             D4 a1             :                0.5200
             D4 a2             :                5.0000
             D4 s6             :                1.0000
             D4 s8             :                2.7000
             D4 s9             :                5.0000
             alphaj            :                2.0000

  Z AO/shell   Hii/eV     exponent
  1     Wed Apr 25 08:07:45 CEST 2018   EN: 2.200 GM2: 0.406  GM3: 0.0800  RAES: 1.40
     1s    -10.707211    1.230000
  6     Wed Apr 25 08:07:45 CEST 2018   EN: 2.550 GM2: 0.538  GM3: 0.1500  RAES: 3.00
     2s    -13.970922    2.096432
     2p    -10.063292    1.800000
  7     Wed Apr 25 08:07:45 CEST 2018   EN: 3.040 GM2: 0.461  GM3:-0.0640  RAES: 1.90
     2s    -16.686243    2.339881
     2p    -12.523956    2.014332
  8     Wed Apr 25 08:07:45 CEST 2018   EN: 3.440 GM2: 0.452  GM3:-0.0517  RAES: 1.80
     2s    -20.229985    2.439742
     2p    -15.503117    2.137023

 Solvent             : h2o
 Using internal parameter file: .param_gbsa2_h2o
 Gsolv ref. state (COSMO-RS): gsolv [1 M gas/solution]
 temperature (mdtemp)       :    298.150000000000     
 dielectric constant        :    80.2000000000000     
 rho                        :    1.00000000000000     
 mass                       :    18.0000000000000     
 surface tension            :    15.5689454083859     
 probe radius               :   0.975313790000000     
 vdW radii scaling          :    1.00000000000000     
 Gshift (Eh)                :   1.857443126794793E-003
 c1                         :    1.55243817000000     
 soset                      :   0.130326360000000     
 HB correction              :  T
 Number of grid points      :          230

            Z     q(EN)     CN     RAES       Cart. coordinates
     1  N   5.0   -0.70    3.00    1.93    59.93774    35.62734    73.73541
     2  C   4.0    0.07    3.98    3.59    62.00402    33.84441    73.54574
     3  C   4.0    0.09    3.00    3.02    60.96676    31.15544    73.30011
     4  O   6.0   -0.37    1.00    1.80    61.69603    29.72963    71.63345
     5  C   4.0   -0.13    3.99    3.60    63.75332    34.02122    75.84738
     6  C   4.0   -0.02    3.03    3.02    65.80384    32.06832    75.60690
     7  C   4.0   -0.07    3.03    3.02    65.53547    29.70786    76.72045
     8  C   4.0   -0.08    3.03    3.02    67.94394    32.55744    74.16702
     9  C   4.0   -0.08    3.03    3.02    67.36607    27.86693    76.39825
    10  C   4.0   -0.09    3.03    3.02    69.78253    30.72577    73.84935
    11  C   4.0   -0.10    3.03    3.02    69.49424    28.37191    74.95841
    12  H   1.0    0.26    1.00    1.43    60.09872    37.05709    75.01359
    13  H   1.0    0.13    0.99    1.43    63.07842    34.20697    71.80484
    14  H   1.0    0.11    0.99    1.43    64.54732    35.92358    75.91486
    15  H   1.0    0.12    0.99    1.43    62.62963    33.68398    77.54120
    16  H   1.0    0.13    1.00    1.43    63.88017    29.30271    77.84407
    17  H   1.0    0.12    1.00    1.43    68.16785    34.38816    73.29265
    18  H   1.0    0.14    0.99    1.43    67.10795    26.03995    77.27239
    19  H   1.0    0.12    1.00    1.43    71.43876    31.13282    72.73052
    20  H   1.0    0.11    1.00    1.43    70.93311    26.94531    74.71142
    21  N   5.0   -0.68    3.00    1.92    66.47589    22.73596    71.86499
    22  C   4.0    0.02    3.98    3.59    67.12599    20.36869    73.06034
    23  C   4.0    0.26    3.01    3.02    66.57828    20.38863    75.88947
    24  O   6.0   -0.39    1.00    1.80    64.89608    21.64486    76.84394
    25  H   1.0    0.28    1.00    1.43    67.10865    24.32734    72.70533
    26  H   1.0    0.13    0.99    1.43    65.95662    18.91387    72.16648
    27  H   1.0    0.13    0.99    1.43    69.12226    19.93537    72.73407
    28  N   5.0   -0.49    3.01    1.93    68.08955    18.83861    77.24611
    29  C   4.0    0.08    3.99    3.60    67.87602    18.69240    79.97329
    30  C   4.0    0.27    3.01    3.02    70.49131    18.96708    81.15661
    31  O   6.0   -0.46    1.00    1.80    72.30532    19.75647    79.93973
    32  C   4.0   -0.01    3.98    3.58    66.53031    16.20514    80.70815
    33  O   6.0   -0.52    1.99    1.82    68.03264    14.06929    80.19481
    34  H   1.0    0.27    1.00    1.43    69.71792    18.24435    76.43773
    35  H   1.0    0.13    0.99    1.43    66.68591    20.28550    80.57307
    36  H   1.0    0.10    0.99    1.43    66.08883    16.17482    82.72099
    37  H   1.0    0.12    0.99    1.43    64.74404    16.13998    79.67156
    38  H   1.0    0.27    0.99    1.43    68.04193    13.78278    78.38868
    39  N   5.0   -0.50    3.01    1.93    70.71979    18.11672    83.52012
    40  C   4.0    0.07    3.99    3.61    73.10051    18.14037    84.88411
    41  C   4.0    0.30    3.01    3.02    75.26327    17.26028    83.19361
    42  O   6.0   -0.48    1.00    1.80    77.31810    18.32525    83.24337
    43  C   4.0   -0.14    3.99    3.60    72.92291    16.35136    87.15817
    44  C   4.0   -0.11    3.98    3.58    71.38771    17.44651    89.36584
    45  C   4.0   -0.22    3.98    3.59    70.44145    15.29637    91.04385
    46  C   4.0   -0.22    3.98    3.59    72.98386    19.28916    90.90916
    47  H   1.0    0.22    1.00    1.43    69.16953    17.73023    84.56427
    48  H   1.0    0.11    0.99    1.43    73.56624    20.06125    85.50545
    49  H   1.0    0.12    0.99    1.43    72.07115    14.58553    86.52333
    50  H   1.0    0.12    0.99    1.43    74.83065    15.93233    87.82051
    51  H   1.0    0.11    0.99    1.43    69.75045    18.48025    88.63535
    52  H   1.0    0.11    0.99    1.43    69.38655    16.04956    92.63668
    53  H   1.0    0.11    0.99    1.43    69.20573    14.03716    89.99606
    54  H   1.0    0.11    0.99    1.43    72.02830    14.22022    91.78164
    55  H   1.0    0.11    0.99    1.43    71.86268    20.15371    92.39914
    56  H   1.0    0.11    0.99    1.43    74.56121    18.30788    91.78908
    57  H   1.0    0.10    0.99    1.43    73.74604    20.79529    89.73544
    58  N   5.0   -0.47    3.00    1.93    74.79266    15.22917    81.76840
    59  C   4.0    0.08    3.99    3.61    76.77514    13.96927    80.35841
    60  C   4.0    0.28    3.01    3.02    77.77019    15.55338    78.16285
    61  O   6.0   -0.48    1.00    1.80    79.81678    15.07221    77.17350
    62  C   4.0   -0.15    3.98    3.59    75.90878    11.37379    79.39578
    63  C   4.0   -0.15    3.98    3.59    74.91919     9.68725    81.54422
    64  C   4.0   -0.04    3.98    3.59    72.03967     9.38256    81.44816
    65  N   5.0   -0.48    3.02    1.93    71.17304     8.21927    83.77630
    66  C   4.0    0.37    3.00    3.02    68.92675     8.48948    84.86669
    67  N   5.0   -0.64    3.01    1.93    67.18638    10.05636    83.96518
    68  N   5.0   -0.65    3.02    1.93    68.43675     7.17146    86.96034
    69  H   1.0    0.26    1.00    1.43    73.04833    14.45132    81.77776
    70  H   1.0    0.15    0.99    1.43    78.36044    13.67357    81.66537
    71  H   1.0    0.12    0.99    1.43    74.45853    11.62484    77.95516
    72  H   1.0    0.11    0.99    1.43    77.56978    10.50053    78.54905
    73  H   1.0    0.11    0.99    1.43    75.78677     7.82692    81.39474
    74  H   1.0    0.15    0.99    1.43    75.50436    10.48899    83.35047
    75  H   1.0    0.13    0.99    1.43    71.11455    11.20900    81.21177
    76  H   1.0    0.12    0.99    1.43    71.52937     8.17870    79.84344
    77  H   1.0    0.24    1.00    1.43    72.38149     6.94802    84.53203
    78  H   1.0    0.30    1.00    1.43    67.46767    11.15267    82.41830
    79  H   1.0    0.27    1.00    1.43    65.49653    10.18358    84.83019
    80  H   1.0    0.27    1.00    1.43    69.71089     5.95977    87.68544
    81  H   1.0    0.27    1.00    1.43    66.75767     7.31016    87.84048
    82  N   5.0   -0.46    3.01    1.93    76.22462    17.34936    77.29020
    83  C   4.0    0.08    3.99    3.61    77.02562    19.19568    75.43528
    84  C   4.0    0.28    3.01    3.02    78.81088    21.13260    76.64120
    85  O   6.0   -0.45    1.00    1.80    80.82199    21.70223    75.64604
    86  C   4.0   -0.02    3.98    3.59    74.67509    20.49101    74.31947
    87  O   6.0   -0.50    1.99    1.82    72.97401    18.71412    73.34556
    88  H   1.0    0.31    1.00    1.43    74.63034    17.81933    78.25901
    89  H   1.0    0.13    0.99    1.43    78.09808    18.23410    73.94623
    90  H   1.0    0.14    0.99    1.43    73.67204    21.49037    75.82383
    91  H   1.0    0.10    0.99    1.43    75.27507    21.87142    72.89960
    92  H   1.0    0.26    0.99    1.43    73.62603    18.00567    71.79059
    93  N   5.0   -0.48    3.01    1.93    78.02979    22.05256    78.85969
    94  C   4.0    0.08    4.00    3.62    79.64549    23.69437    80.34886
    95  C   4.0    0.29    3.01    3.02    82.20423    22.36843    80.72615
    96  O   6.0   -0.41    1.00    1.80    84.22698    23.43890    80.40383
    97  C   4.0   -0.09    3.98    3.59    78.43714    24.33378    82.91524
    98  C   4.0   -0.15    3.98    3.59    75.92084    25.73298    82.55674
    99  C   4.0   -0.22    3.98    3.59    80.28503    25.90763    84.47860
   100  C   4.0   -0.23    3.98    3.58    74.56546    26.23253    85.05297
   101  H   1.0    0.27    1.00    1.43    76.33804    21.54808    79.59921
   102  H   1.0    0.12    0.99    1.43    80.03334    25.43837    79.29492
   103  H   1.0    0.14    0.99    1.43    78.08334    22.54815    83.89692
   104  H   1.0    0.11    0.99    1.43    76.27718    27.52534    81.59822
   105  H   1.0    0.12    0.99    1.43    74.67068    24.61733    81.35296
   106  H   1.0    0.10    0.99    1.43    79.59309    26.16655    86.39164
   107  H   1.0    0.13    0.99    1.43    82.12639    25.00108    84.58123
   108  H   1.0    0.11    0.99    1.43    80.55567    27.75682    83.62017
   109  H   1.0    0.11    0.99    1.43    72.67890    26.96160    84.69708
   110  H   1.0    0.10    0.99    1.43    74.41045    24.50376    86.15266
   111  H   1.0    0.11    0.99    1.43    75.57473    27.61976    86.17749
   112  N   5.0   -0.47    3.01    1.93    82.00520    19.94315    81.43352
   113  C   4.0    0.07    3.99    3.61    84.23595    18.46083    82.01721
   114  C   4.0    0.30    3.01    3.02    85.85833    18.24152    79.63246
   115  O   6.0   -0.46    1.00    1.80    88.11664    18.78061    79.65375
   116  C   4.0   -0.14    3.98    3.59    83.50696    15.87372    83.07538
   117  C   4.0   -0.12    3.98    3.59    82.34441    16.08095    85.72351
   118  C   4.0    0.27    3.00    3.02    81.30280    13.53505    86.55509
   119  O   6.0   -0.43    1.00    1.80    79.49764    12.55852    85.50086
   120  N   5.0   -0.65    3.00    1.93    82.46318    12.44919    88.52119
   121  H   1.0    0.30    1.00    1.43    80.28555    19.22483    81.92341
   122  H   1.0    0.13    0.99    1.43    85.40836    19.50455    83.37815
   123  H   1.0    0.14    0.99    1.43    82.16819    14.98113    81.78738
   124  H   1.0    0.12    0.99    1.43    85.20471    14.70799    83.14774
   125  H   1.0    0.10    0.99    1.43    83.74435    16.78689    87.05561
   126  H   1.0    0.14    0.99    1.43    80.76242    17.40315    85.65969
   127  H   1.0    0.26    1.00    1.43    83.98045    13.23015    89.35606
   128  H   1.0    0.28    1.00    1.43    81.86872    10.74191    89.12515
   129  N   5.0   -0.47    3.01    1.93    84.68482    17.45086    77.54779
   130  C   4.0    0.08    4.00    3.61    86.02104    17.38149    75.15015
   131  C   4.0    0.30    3.01    3.02    87.52443    19.83111    74.77113
   132  O   6.0   -0.45    1.00    1.80    89.72517    19.75284    74.05972
   133  C   4.0   -0.14    3.98    3.59    84.18089    16.93789    72.95154
   134  C   4.0   -0.16    3.98    3.59    84.74681    14.49498    71.50725
   135  C   4.0   -0.04    3.99    3.60    82.51177    13.68563    69.87044
   136  N   5.0   -0.48    3.02    1.93    80.48845    12.72348    71.46525
   137  C   4.0    0.38    3.00    3.02    78.56645    11.31478    70.66919
   138  N   5.0   -0.64    3.01    1.93    78.19230    10.87051    68.22600
   139  N   5.0   -0.64    3.02    1.93    76.94139    10.39430    72.36080
   140  H   1.0    0.29    1.00    1.43    82.86243    16.82934    77.57948
   141  H   1.0    0.13    0.99    1.43    87.46562    15.89154    75.21776
   142  H   1.0    0.14    0.99    1.43    82.28308    16.87634    73.74453
   143  H   1.0    0.12    0.99    1.43    84.26148    18.54418    71.66250
   144  H   1.0    0.11    0.99    1.43    86.39540    14.79366    70.30859
   145  H   1.0    0.12    0.99    1.43    85.20177    12.99058    72.83929
   146  H   1.0    0.12    0.99    1.43    81.86722    15.31095    68.76295
   147  H   1.0    0.12    0.99    1.43    83.13991    12.19181    68.59025
   148  H   1.0    0.26    1.00    1.43    80.63419    13.11908    73.33513
   149  H   1.0    0.26    1.00    1.43    79.32191    11.62730    66.89611
   150  H   1.0    0.27    1.00    1.43    76.76648     9.75252    67.64332
   151  H   1.0    0.26    1.00    1.43    77.32121    10.56288    74.21926
   152  H   1.0    0.27    1.00    1.43    75.52966     9.23501    71.82281
   153  N   5.0   -0.48    3.01    1.93    86.22480    21.95875    75.20375
   154  C   4.0    0.09    3.99    3.60    87.23454    24.45971    74.80835
   155  C   4.0    0.30    3.01    3.02    89.46557    25.16787    76.50596
   156  O   6.0   -0.38    1.00    1.80    90.40296    27.29788    76.32679
   157  C   4.0    0.00    3.98    3.59    85.11231    26.41374    75.13548
   158  O   6.0   -0.45    1.99    1.82    85.79540    28.85156    74.34688
   159  H   1.0    0.31    1.00    1.43    84.36735    21.87432    75.68054
   160  H   1.0    0.17    0.99    1.43    88.04510    24.60661    72.89460
   161  H   1.0    0.14    0.99    1.43    83.48104    25.86504    73.98757
   162  H   1.0    0.15    0.99    1.43    84.56477    26.41231    77.14249
   163  H   1.0    0.32    0.99    1.43    87.53760    29.13192    74.85613
   164  N   5.0   -0.47    3.01    1.93    90.31910    23.42478    78.10961
   165  C   4.0    0.08    3.99    3.61    92.81488    23.62195    79.21734
   166  C   4.0    0.29    3.01    3.02    94.78488    23.85978    77.08744
   167  O   6.0   -0.39    1.00    1.80    96.74159    25.07555    77.40099
   168  C   4.0   -0.14    3.99    3.60    93.39081    21.34131    80.91942
   169  C   4.0   -0.10    3.98    3.58    94.18002    22.07465    83.60747
   170  C   4.0   -0.22    3.98    3.59    93.97823    19.78425    85.35426
   171  C   4.0   -0.21    3.98    3.59    96.85076    23.16098    83.63184
   172  H   1.0    0.31    1.00    1.43    89.41693    21.74214    78.28068
   173  H   1.0    0.14    0.99    1.43    92.92110    25.39508    80.29008
   174  H   1.0    0.15    0.99    1.43    91.69794    20.17495    81.00961
   175  H   1.0    0.11    0.99    1.43    94.88527    20.21276    80.05215
   176  H   1.0    0.12    0.99    1.43    92.87081    23.53380    84.27427
   177  H   1.0    0.11    0.99    1.43    94.57416    20.28942    87.25248
   178  H   1.0    0.11    0.99    1.43    92.03556    19.12250    85.42110
   179  H   1.0    0.11    0.99    1.43    95.17261    18.25956    84.66944
   180  H   1.0    0.11    0.99    1.43    97.31249    23.91344    85.48636
   181  H   1.0    0.12    0.99    1.43    98.22079    21.70685    83.14741
   182  H   1.0    0.14    0.99    1.43    97.03082    24.67016    82.24586
   183  N   5.0   -0.48    3.01    1.93    94.25217    22.51659    75.02493
   184  C   4.0    0.08    3.98    3.59    95.54095    22.81934    72.64267
   185  C   4.0    0.34    2.99    3.02    94.13319    24.81342    70.94459
   186  O   6.0   -0.36    1.00    1.80    91.78855    24.65132    70.82332
   187  C   4.0   -0.13    3.99    3.60    95.60248    20.33978    71.16450
   188  C   4.0   -0.10    3.97    3.58    97.35870    18.30806    72.26054
   189  C   4.0   -0.21    3.98    3.59    96.05334    16.80384    74.34683
   190  C   4.0   -0.22    3.98    3.59    98.24665    16.51714    70.17535
   191  O   6.0   -0.35    1.00    1.80    95.50924    26.33887    69.79210
   192  H   1.0    0.31    1.00    1.43    92.50724    21.72416    74.83513
   193  H   1.0    0.15    0.99    1.43    97.44215    23.55631    73.00858
   194  H   1.0    0.14    0.99    1.43    93.66126    19.64470    71.06643
   195  H   1.0    0.12    0.99    1.43    96.19898    20.82793    69.24657
   196  H   1.0    0.12    0.99    1.43    99.01214    19.27060    73.05610
   197  H   1.0    0.11    0.99    1.43    97.34340    15.41330    75.13674
   198  H   1.0    0.13    0.99    1.43    95.42994    18.05348    75.85069
   199  H   1.0    0.12    0.99    1.43    94.40770    15.84066    73.58295
   200  H   1.0    0.11    0.99    1.43    99.48630    15.07848    70.95764
   201  H   1.0    0.11    0.99    1.43    96.62741    15.60619    69.29864
   202  H   1.0    0.12    0.99    1.43    99.28437    17.54865    68.73258
   203  H   1.0    0.31    1.00    1.43    59.71210    36.39653    72.23541
   204  H   1.0    0.15    1.00    1.43    59.66403    30.53032    74.51797
   205  H   1.0    0.30    1.00    1.43    67.10869    22.76759    70.28666

           ------------------------------------------------- 
          |        Self-Consistent Charge Iterations        |
           ------------------------------------------------- 

          ...................................................
          :                      SETUP                      :
          :.................................................:
          :  # basis functions                 496          :
          :  # atomic orbitals                 496          :
          :  # shells                          302          :
          :  # electrons                       548          :
          :  max. iterations                   250          :
          :  Hamiltonian                  GFN2-xTB          :
          :  restarted?                      false          :
          :  GBSA solvation                   true          :
          :  PC potential                    false          :
          :  electronic temp.          500.0000000     K    :
          :  accuracy                    0.1000000          :
          :  -> integral cutoff          0.3500000E+02      :
          :  -> integral neglect         0.1000000E-08      :
          :  -> SCF convergence          0.1000000E-06 Eh   :
          :  -> wf. convergence          0.1000000E-04 e    :
          :  Broyden damping             0.4000000          :
          ...................................................

 iter      E             dE          RMSdq      gap      omega  full diag
   1   -313.4207542 -0.313421E+03  0.401E+00    2.26       0.0  T
   2   -314.1296651 -0.708911E+00  0.214E+00    1.94       1.0  T
   3   -314.1580755 -0.284104E-01  0.106E+00    2.41       1.0  T
   4   -314.1655251 -0.744959E-02  0.231E-01    1.51       1.0  T
   5   -314.1692776 -0.375253E-02  0.114E-01    1.73       1.0  T
   6   -314.1697086 -0.431006E-03  0.504E-02    1.72       1.0  T
   7   -314.1697521 -0.434674E-04  0.246E-02    1.75       1.0  T
   8   -314.1697852 -0.331017E-04  0.102E-02    1.76       1.0  T
   9   -314.1697902 -0.495593E-05  0.460E-03    1.76       1.5  T
  10   -314.1697908 -0.628425E-06  0.207E-03    1.76       3.4  T
  11   -314.1697909 -0.156513E-06  0.592E-04    1.76      11.8  T
  12   -314.1697910 -0.162524E-07  0.308E-04    1.76      22.7  T
  13   -314.1697910 -0.380504E-08  0.134E-04    1.76      52.1  T
  14   -314.1697910 -0.105086E-08  0.458E-05    1.76     152.6  T
  15   -314.1697910 -0.805471E-10  0.185E-05    1.76     377.9  T

   *** convergence criteria satisfied after 15 iterations ***

         #    Occupation            Energy/Eh            Energy/eV
      -------------------------------------------------------------
         1        2.0000           -0.7384932             -20.0954
       ...           ...                  ...                  ...
       268        2.0000           -0.3977101             -10.8222
       269        2.0000           -0.3951951             -10.7538
       270        2.0000           -0.3855364             -10.4910
       271        2.0000           -0.3808434             -10.3633
       272        2.0000           -0.3722630             -10.1298
       273        2.0000           -0.3566180              -9.7041
       274        2.0000           -0.3478626              -9.4658 (HOMO)
       275                         -0.2831002              -7.7035 (LUMO)
       276                         -0.2544820              -6.9248
       277                         -0.2499788              -6.8023
       278                         -0.2434448              -6.6245
       279                         -0.2395055              -6.5173
       ...                                ...                  ...
       496                          0.6605192              17.9736
      -------------------------------------------------------------
                  HL-Gap            0.0647624 Eh            1.7623 eV
             Fermi-level           -0.3154783 Eh           -8.5846 eV

 SCC (total)                   0 d,  0 h,  0 min,  2.673 sec
 SCC setup                      ...        0 min,  0.055 sec (  2.043%)
 Dispersion                     ...        0 min,  0.034 sec (  1.264%)
 integral evaluation            ...        0 min,  0.273 sec ( 10.201%)
 zeroth order Hamiltonian       ...        0 min,  0.005 sec (  0.201%)
 iterations                     ...        0 min,  1.593 sec ( 59.584%)
 molecular gradient             ...        0 min,  0.695 sec ( 26.014%)
 printout                       ...        0 min,  0.014 sec (  0.540%)

         :::::::::::::::::::::::::::::::::::::::::::::::::::::
         ::                     SUMMARY                     ::
         :::::::::::::::::::::::::::::::::::::::::::::::::::::
         :: total energy             -310.404388375395 Eh   ::
         :: total w/o Gsasa/hb       -310.354059367147 Eh   ::
         :: gradient norm               0.290124437498 Eh/α ::
         :: HOMO-LUMO gap               1.762273468875 eV   ::
         ::.................................................::
         :: SCC energy               -314.183740125684 Eh   ::
         :: -> isotropic ES             1.171953541607 Eh   ::
         :: -> anisotropic ES          -0.065502823144 Eh   ::
         :: -> anisotropic XC           0.101978699861 Eh   ::
         :: -> dispersion              -0.250520886975 Eh   ::
         :: -> Gsolv                   -0.473593191146 Eh   ::
         ::    -> Gborn                -0.423264182898 Eh   ::
         ::    -> Gsasa                -0.015806606435 Eh   ::
         ::    -> Ghb                  -0.036379844940 Eh   ::
         ::    -> Gshift                0.001857443127 Eh   ::
         :: repulsion energy            3.762436645816 Eh   ::
         :: add. restraining            0.000000000000 Eh   ::
         :::::::::::::::::::::::::::::::::::::::::::::::::::::

           -------------------------------------------------
          |                Property Printout                |
           -------------------------------------------------

    * Orbital Energies and Occupations

         #    Occupation            Energy/Eh            Energy/eV
      -------------------------------------------------------------
         1        2.0000           -0.7384932             -20.0954
       ...           ...                  ...                  ...
       262        2.0000           -0.4068627             -11.0713
       263        2.0000           -0.4051217             -11.0239
       264        2.0000           -0.4032871             -10.9740
       265        2.0000           -0.4030237             -10.9668
       266        2.0000           -0.4028261             -10.9615
       267        2.0000           -0.4015980             -10.9280
       268        2.0000           -0.3977101             -10.8222
       269        2.0000           -0.3951951             -10.7538
       270        2.0000           -0.3855364             -10.4910
       271        2.0000           -0.3808434             -10.3633
       272        2.0000           -0.3722630             -10.1298
       273        2.0000           -0.3566180              -9.7041
       274        2.0000           -0.3478626              -9.4658 (HOMO)
       275                         -0.2831002              -7.7035 (LUMO)
       276                         -0.2544820              -6.9248
       277                         -0.2499788              -6.8023
       278                         -0.2434448              -6.6245
       279                         -0.2395055              -6.5173
       280                         -0.2379749              -6.4756
       281                         -0.2288594              -6.2276
       282                         -0.2268732              -6.1735
       283                         -0.2266069              -6.1663
       284                         -0.2255340              -6.1371
       285                         -0.2245564              -6.1105
       ...                                ...                  ...
       496                          0.6605192              17.9736
      -------------------------------------------------------------
                  HL-Gap            0.0647624 Eh            1.7623 eV
             Fermi-level           -0.3154783 Eh           -8.5846 eV

   #   Z        covCN         q      C6AA      α(0)
   1   7 N      2.635    -0.391    30.111     8.150
   2   6 C      3.786     0.048    19.790     6.336
   3   6 C      2.766     0.204    23.661     7.966
   4   8 O      0.856    -0.376    21.215     6.175
   5   6 C      3.812    -0.074    21.906     6.662
   6   6 C      2.973     0.009    27.811     8.650
   7   6 C      2.925    -0.040    29.002     8.832
   8   6 C      2.925    -0.039    28.979     8.828
   9   6 C      2.918    -0.030    28.758     8.794
  10   6 C      2.919    -0.034    28.852     8.808
  11   6 C      2.920    -0.038    28.943     8.822
  12   1 H      0.860     0.172     1.259     1.757
  13   1 H      0.923     0.035     2.512     2.479
  14   1 H      0.924     0.059     2.209     2.324
  15   1 H      0.924     0.063     2.167     2.302
  16   1 H      0.926     0.036     2.505     2.475
  17   1 H      0.926     0.031     2.572     2.508
  18   1 H      0.926     0.043     2.409     2.427
  19   1 H      0.926     0.032     2.558     2.501
  20   1 H      0.926     0.034     2.530     2.487
  21   7 N      2.632    -0.386    29.974     8.131
  22   6 C      3.736    -0.025    21.112     6.557
  23   6 C      2.752     0.274    22.362     7.743
  24   8 O      0.858    -0.485    23.448     6.492
  25   1 H      0.860     0.135     1.508     1.924
  26   1 H      0.924     0.079     1.985     2.203
  27   1 H      0.924     0.058     2.217     2.328
  28   7 N      2.692    -0.186    25.028     7.430
  29   6 C      3.793    -0.000    20.591     6.462
  30   6 C      2.754     0.267    22.491     7.766
  31   8 O      0.859    -0.494    23.661     6.522
  32   6 C      3.676     0.044    20.052     6.416
  33   8 O      1.655    -0.449    21.831     6.307
  34   1 H      0.860     0.224     0.989     1.558
  35   1 H      0.923     0.090     1.879     2.144
  36   1 H      0.924     0.081     1.971     2.195
  37   1 H      0.924     0.062     2.172     2.305
  38   1 H      0.805     0.354     0.578     1.194
  39   7 N      2.691    -0.165    24.572     7.362
  40   6 C      3.795     0.012    20.381     6.429
  41   6 C      2.759     0.275    22.344     7.741
  42   8 O      0.859    -0.494    23.660     6.522
  43   6 C      3.812    -0.090    22.208     6.708
  44   6 C      3.849    -0.016    20.835     6.492
  45   6 C      3.757    -0.127    22.991     6.836
  46   6 C      3.756    -0.114    22.737     6.799
  47   1 H      0.860     0.228     0.972     1.545
  48   1 H      0.924     0.070     2.086     2.258
  49   1 H      0.924     0.088     1.903     2.157
  50   1 H      0.924     0.070     2.089     2.260
  51   1 H      0.924     0.042     2.426     2.436
  52   1 H      0.925     0.040     2.443     2.444
  53   1 H      0.925     0.061     2.182     2.310
  54   1 H      0.925     0.050     2.317     2.380
  55   1 H      0.925     0.036     2.507     2.476
  56   1 H      0.925     0.040     2.447     2.446
  57   1 H      0.925     0.028     2.614     2.529
  58   7 N      2.688    -0.167    24.614     7.368
  59   6 C      3.796    -0.004    20.664     6.473
  60   6 C      2.755     0.261    22.610     7.786
  61   8 O      0.859    -0.495    23.684     6.525
  62   6 C      3.805    -0.093    22.265     6.718
  63   6 C      3.803    -0.101    22.418     6.741
  64   6 C      3.736    -0.042    21.407     6.603
  65   7 N      2.702    -0.139    24.001     7.276
  66   6 C      2.735     0.228    23.203     7.886
  67   7 N      2.650    -0.248    26.455     7.639
  68   7 N      2.655    -0.263    26.818     7.691
  69   1 H      0.860     0.231     0.961     1.536
  70   1 H      0.923     0.114     1.661     2.015
  71   1 H      0.925     0.089     1.885     2.147
  72   1 H      0.925     0.085     1.930     2.172
  73   1 H      0.925     0.084     1.941     2.178
  74   1 H      0.924     0.090     1.883     2.146
  75   1 H      0.924     0.094     1.842     2.122
  76   1 H      0.924     0.100     1.783     2.088
  77   1 H      0.860     0.230     0.967     1.540
  78   1 H      0.860     0.256     0.860     1.452
  79   1 H      0.860     0.240     0.925     1.507
  80   1 H      0.860     0.242     0.916     1.499
  81   1 H      0.860     0.244     0.908     1.492
  82   7 N      2.690    -0.171    24.703     7.382
  83   6 C      3.794    -0.004    20.659     6.472
  84   6 C      2.757     0.263    22.558     7.778
  85   8 O      0.858    -0.497    23.720     6.530
  86   6 C      3.679     0.064    19.717     6.360
  87   8 O      1.656    -0.451    21.867     6.313
  88   1 H      0.860     0.233     0.954     1.530
  89   1 H      0.924     0.097     1.810     2.104
  90   1 H      0.924     0.068     2.108     2.271
  91   1 H      0.924     0.036     2.497     2.471
  92   1 H      0.805     0.359     0.567     1.183
  93   7 N      2.690    -0.179    24.881     7.408
  94   6 C      3.802     0.018    20.279     6.411
  95   6 C      2.757     0.283    22.212     7.718
  96   8 O      0.858    -0.516    24.151     6.589
  97   6 C      3.853    -0.029    21.062     6.527
  98   6 C      3.803    -0.063    21.710     6.634
  99   6 C      3.756    -0.112    22.700     6.793
 100   6 C      3.752    -0.111    22.693     6.793
 101   1 H      0.860     0.230     0.964     1.538
 102   1 H      0.924     0.052     2.290     2.367
 103   1 H      0.924     0.073     2.051     2.240
 104   1 H      0.924     0.034     2.526     2.486
 105   1 H      0.924     0.046     2.368     2.406
 106   1 H      0.925     0.064     2.149     2.292
 107   1 H      0.925     0.027     2.630     2.536
 108   1 H      0.925     0.034     2.531     2.488
 109   1 H      0.925     0.049     2.328     2.386
 110   1 H      0.925     0.046     2.366     2.405
 111   1 H      0.925     0.041     2.431     2.438
 112   7 N      2.691    -0.207    25.494     7.499
 113   6 C      3.797     0.025    20.160     6.393
 114   6 C      2.760     0.275    22.358     7.743
 115   8 O      0.859    -0.513    24.068     6.578
 116   6 C      3.806    -0.071    21.860     6.656
 117   6 C      3.805    -0.105    22.498     6.752
 118   6 C      2.745     0.285    22.166     7.709
 119   8 O      0.859    -0.469    23.116     6.446
 120   7 N      2.638    -0.286    27.388     7.772
 121   1 H      0.860     0.251     0.880     1.469
 122   1 H      0.923     0.060     2.196     2.318
 123   1 H      0.924     0.081     1.967     2.193
 124   1 H      0.924     0.064     2.155     2.295
 125   1 H      0.925     0.052     2.296     2.370
 126   1 H      0.924     0.089     1.886     2.147
 127   1 H      0.860     0.218     1.018     1.581
 128   1 H      0.860     0.242     0.916     1.499
 129   7 N      2.689    -0.184    24.996     7.425
 130   6 C      3.799     0.017    20.299     6.415
 131   6 C      2.753     0.285    22.180     7.712
 132   8 O      0.858    -0.499    23.762     6.536
 133   6 C      3.805    -0.087    22.151     6.700
 134   6 C      3.803    -0.085    22.116     6.695
 135   6 C      3.739    -0.028    21.163     6.564
 136   7 N      2.701    -0.140    24.038     7.282
 137   6 C      2.736     0.227    23.224     7.890
 138   7 N      2.650    -0.246    26.411     7.633
 139   7 N      2.654    -0.250    26.515     7.648
 140   1 H      0.860     0.244     0.906     1.491
 141   1 H      0.923     0.085     1.932     2.174
 142   1 H      0.925     0.096     1.826     2.113
 143   1 H      0.924     0.051     2.302     2.372
 144   1 H      0.925     0.061     2.183     2.311
 145   1 H      0.924     0.084     1.941     2.179
 146   1 H      0.924     0.082     1.964     2.191
 147   1 H      0.924     0.094     1.842     2.123
 148   1 H      0.860     0.233     0.952     1.529
 149   1 H      0.860     0.238     0.931     1.512
 150   1 H      0.860     0.261     0.843     1.438
 151   1 H      0.860     0.238     0.933     1.513
 152   1 H      0.860     0.269     0.814     1.414
 153   7 N      2.689    -0.198    25.289     7.469
 154   6 C      3.791     0.022    20.208     6.402
 155   6 C      2.757     0.286    22.157     7.708
 156   8 O      0.859    -0.544    24.775     6.673
 157   6 C      3.679     0.080    19.459     6.318
 158   8 O      1.655    -0.475    22.368     6.384
 159   1 H      0.860     0.236     0.940     1.518
 160   1 H      0.923     0.074     2.038     2.232
 161   1 H      0.924     0.070     2.088     2.260
 162   1 H      0.923     0.043     2.410     2.428
 163   1 H      0.804     0.320     0.665     1.281
 164   7 N      2.688    -0.195    25.235     7.461
 165   6 C      3.797     0.035    19.986     6.366
 166   6 C      2.753     0.278    22.294     7.732
 167   8 O      0.858    -0.539    24.657     6.658
 168   6 C      3.808    -0.076    21.953     6.670
 169   6 C      3.849    -0.008    20.686     6.469
 170   6 C      3.756    -0.121    22.876     6.820
 171   6 C      3.755    -0.112    22.703     6.794
 172   1 H      0.860     0.232     0.957     1.532
 173   1 H      0.923     0.051     2.308     2.376
 174   1 H      0.925     0.085     1.928     2.172
 175   1 H      0.924     0.038     2.473     2.459
 176   1 H      0.924     0.029     2.596     2.520
 177   1 H      0.925     0.057     2.238     2.340
 178   1 H      0.925     0.050     2.316     2.380
 179   1 H      0.925     0.049     2.337     2.391
 180   1 H      0.925     0.047     2.360     2.402
 181   1 H      0.925     0.039     2.460     2.453
 182   1 H      0.925     0.025     2.665     2.553
 183   7 N      2.689    -0.201    25.366     7.480
 184   6 C      3.786     0.027    20.129     6.390
 185   6 C      2.686     0.366    20.790     7.462
 186   8 O      0.856    -0.631    26.881     6.951
 187   6 C      3.810    -0.058    21.606     6.616
 188   6 C      3.849    -0.006    20.653     6.464
 189   6 C      3.756    -0.113    22.712     6.795
 190   6 C      3.756    -0.116    22.776     6.804
 191   8 O      0.856    -0.648    27.338     7.010
 192   1 H      0.860     0.225     0.988     1.557
 193   1 H      0.924     0.011     2.877     2.653
 194   1 H      0.924     0.050     2.326     2.385
 195   1 H      0.924     0.020     2.727     2.582
 196   1 H      0.924     0.015     2.814     2.623
 197   1 H      0.925     0.052     2.297     2.370
 198   1 H      0.925     0.026     2.640     2.541
 199   1 H      0.925     0.052     2.292     2.368
 200   1 H      0.925     0.055     2.258     2.350
 201   1 H      0.925     0.050     2.314     2.379
 202   1 H      0.925     0.030     2.584     2.514
 203   1 H      0.862     0.182     1.204     1.718
 204   1 H      0.930     0.077     2.009     2.216
 205   1 H      0.862     0.182     1.204     1.719

 Mol. C6AA /au·bohr⁶  :     374977.299299
 Mol. C8AA /au·bohr⁸  :    8278994.354234
 Mol. α(0) /au        :        915.994873


Wiberg/Mayer (AO) data.
largest (>0.10) Wiberg bond orders for each atom
          total WBO             WBO to atom ...
     1  N   2.996        C    2 1.011    H  203 0.956    H   12 0.951
     2  C   3.985        N    1 1.011    C    3 0.969    H   13 0.961    C    5 0.953
     3  C   3.890        O    4 1.901    C    2 0.969    H  204 0.953
     4  O   2.035        C    3 1.901
     5  C   3.991        C    6 1.009    H   15 0.971    H   14 0.966    C    2 0.953
     6  C   3.988        C    7 1.414    C    8 1.413    C    5 1.009    C   11 0.109
     7  C   3.992        C    9 1.442    C    6 1.414    H   16 0.968    C   10 0.111
     8  C   3.992        C   10 1.446    C    6 1.413    H   17 0.969    C    9 0.111
     9  C   3.991        C    7 1.442    C   11 1.439    H   18 0.968    C    8 0.111
    10  C   3.992        C    8 1.446    C   11 1.436    H   19 0.971    C    7 0.111
    11  C   3.991        C    9 1.439    C   10 1.436    H   20 0.971    C    6 0.109
    12  H   0.970        N    1 0.951
    13  H   0.999        C    2 0.961
    14  H   0.996        C    5 0.966
    15  H   0.996        C    5 0.971
    16  H   0.999        C    7 0.968
    17  H   0.999        C    8 0.969
    18  H   0.998        C    9 0.968
    19  H   0.999        C   10 0.971
    20  H   0.998        C   11 0.971
    21  N   2.981        C   22 1.023    H   25 0.961    H  205 0.954
    22  C   3.982        N   21 1.023    C   23 0.966    H   27 0.951    H   26 0.947
    23  C   3.944        O   24 1.667    N   28 1.255    C   22 0.966
    24  O   1.977        C   23 1.667    N   28 0.187
    25  H   0.982        N   21 0.961
    26  H   0.993        C   22 0.947
    27  H   0.997        C   22 0.951
    28  N   3.423        C   23 1.255    C   29 0.991    H   34 0.911    O   24 0.187
    29  C   3.967        N   28 0.991    C   32 0.958    C   30 0.952    H   35 0.929
    30  C   3.950        O   31 1.584    N   39 1.321    C   29 0.952
    31  O   1.967        C   30 1.584    N   39 0.189
    32  C   3.957        O   33 1.010    H   37 0.968    H   36 0.961    C   29 0.958
    33  O   1.979        C   32 1.010    H   38 0.861
    34  H   0.950        N   28 0.911
    35  H   0.991        C   29 0.929
    36  H   0.993        C   32 0.961
    37  H   0.996        C   32 0.968
    38  H   0.874        O   33 0.861
    39  N   3.479        C   30 1.321    C   40 0.975    H   47 0.906    O   31 0.189
    40  C   3.962        N   39 0.975    C   43 0.973    C   41 0.945    H   48 0.944
    41  C   3.948        O   42 1.596    N   58 1.311    C   40 0.945
    42  O   1.983        C   41 1.596    N   58 0.190
    43  C   3.980        C   44 0.992    C   40 0.973    H   50 0.969    H   49 0.966
    44  C   3.994        C   46 1.010    C   45 1.007    C   43 0.992    H   51 0.964
    45  C   3.991        C   44 1.007    H   54 0.986    H   52 0.985    H   53 0.984
    46  C   3.994        C   44 1.010    H   55 0.986    H   56 0.985    H   57 0.983
    47  H   0.948        N   39 0.906
    48  H   0.995        C   40 0.944
    49  H   0.992        C   43 0.966
    50  H   0.994        C   43 0.969
    51  H   0.998        C   44 0.964
    52  H   0.998        C   45 0.985
    53  H   0.996        C   45 0.984
    54  H   0.997        C   45 0.986
    55  H   0.998        C   46 0.986
    56  H   0.998        C   46 0.985
    57  H   0.999        C   46 0.983
    58  N   3.475        C   41 1.311    C   59 0.979    H   69 0.904    O   42 0.190
    59  C   3.953        N   58 0.979    C   62 0.971    C   60 0.948    H   70 0.920
    60  C   3.943        O   61 1.585    N   82 1.312    C   59 0.948
    61  O   1.952        C   60 1.585    N   82 0.184
    62  C   3.977        C   63 0.999    C   59 0.971    H   71 0.969    H   72 0.968
    63  C   3.982        C   64 1.004    C   62 0.999    H   73 0.972    H   74 0.967
    64  C   3.949        C   63 1.004    N   65 0.982    H   76 0.957    H   75 0.948
    65  N   3.468        C   66 1.316    C   64 0.982    H   77 0.914    N   67 0.105
    66  C   3.977        N   67 1.330    N   65 1.316    N   68 1.300
    67  N   3.403        C   66 1.330    H   79 0.923    H   78 0.884    N   65 0.105    N   68 0.102
    68  N   3.382        C   66 1.300    H   80 0.922    H   81 0.921    N   67 0.102
    69  H   0.946        N   58 0.904
    70  H   0.987        C   59 0.920
    71  H   0.992        C   62 0.969
    72  H   0.992        C   62 0.968
    73  H   0.992        C   63 0.972
    74  H   0.992        C   63 0.967
    75  H   0.991        C   64 0.948
    76  H   0.990        C   64 0.957
    77  H   0.947        N   65 0.914
    78  H   0.934        N   67 0.884
    79  H   0.943        N   67 0.923
    80  H   0.941        N   68 0.922
    81  H   0.940        N   68 0.921
    82  N   3.471        C   60 1.312    C   83 0.990    H   88 0.871    O   61 0.184
    83  C   3.970        N   82 0.990    C   86 0.964    H   89 0.948    C   84 0.928
    84  C   3.939        O   85 1.613    N   93 1.311    C   83 0.928
    85  O   1.980        C   84 1.613    N   93 0.199
    86  C   3.962        O   87 1.019    H   91 0.969    C   83 0.964    H   90 0.963
    87  O   1.967        C   86 1.019    H   92 0.856
    88  H   0.946        N   82 0.871
    89  H   0.990        C   83 0.948
    90  H   0.995        C   86 0.963
    91  H   0.998        C   86 0.969
    92  H   0.871        O   87 0.856
    93  N   3.476        C   84 1.311    C   94 0.980    H  101 0.900    O   85 0.199
    94  C   3.965        N   93 0.980    C   97 0.966    H  102 0.954    C   95 0.929
    95  C   3.942        O   96 1.632    N  112 1.300    C   94 0.929
    96  O   1.957        C   95 1.632    N  112 0.196
    97  C   3.984        C   99 1.008    C   98 0.994    C   94 0.966    H  103 0.955
    98  C   3.995        C  100 1.018    C   97 0.994    H  104 0.977    H  105 0.970
    99  C   3.993        C   97 1.008    H  108 0.986    H  107 0.983    H  106 0.981
   100  C   3.993        C   98 1.018    H  111 0.986    H  109 0.986    H  110 0.983
   101  H   0.947        N   93 0.900
   102  H   0.997        C   94 0.954
   103  H   0.995        C   97 0.955
   104  H   0.999        C   98 0.977
   105  H   0.998        C   98 0.970
   106  H   0.995        C   99 0.981
   107  H   0.999        C   99 0.983
   108  H   0.999        C   99 0.986
   109  H   0.997        C  100 0.986
   110  H   0.998        C  100 0.983
   111  H   0.998        C  100 0.986
   112  N   3.440        C   95 1.300    C  113 0.979    H  121 0.857    O   96 0.196
   113  C   3.966        C  116 0.981    N  112 0.979    H  122 0.953    C  114 0.934
   114  C   3.939        O  115 1.589    N  129 1.327    C  113 0.934
   115  O   1.961        C  114 1.589    N  129 0.191
   116  C   3.983        C  117 0.991    C  113 0.981    H  124 0.973    H  123 0.962
   117  C   3.990        C  116 0.991    H  125 0.975    C  118 0.967    H  126 0.949
   118  C   3.951        O  119 1.639    N  120 1.317    C  117 0.967
   119  O   1.957        C  118 1.639    N  120 0.201
   120  N   3.404        C  118 1.317    H  127 0.933    H  128 0.920    O  119 0.201
   121  H   0.937        N  112 0.857
   122  H   0.996        C  113 0.953
   123  H   0.993        C  116 0.962
   124  H   0.995        C  116 0.973
   125  H   0.997        C  117 0.975
   126  H   0.992        C  117 0.949
   127  H   0.952        N  120 0.933
   128  H   0.941        N  120 0.920
   129  N   3.469        C  114 1.327    C  130 0.980    H  140 0.869    O  115 0.191
   130  C   3.960        N  129 0.980    C  133 0.975    H  141 0.948    C  131 0.933
   131  C   3.932        O  132 1.611    N  153 1.294    C  130 0.933
   132  O   1.976        C  131 1.611    N  153 0.190
   133  C   3.979        C  134 1.006    C  130 0.975    H  143 0.974    H  142 0.952
   134  C   3.987        C  135 1.008    C  133 1.006    H  144 0.973    H  145 0.968
   135  C   3.962        C  134 1.008    N  136 0.989    H  146 0.960    H  147 0.960
   136  N   3.471        C  137 1.315    C  135 0.989    H  148 0.903    N  138 0.103    N  139 0.101
   137  C   3.978        N  138 1.324    N  136 1.315    N  139 1.309
   138  N   3.404        C  137 1.324    H  149 0.921    H  150 0.913    N  136 0.103    N  139 0.101
   139  N   3.380        C  137 1.309    H  151 0.918    H  152 0.909    N  138 0.101    N  136 0.101
   140  H   0.940        N  129 0.869
   141  H   0.992        C  130 0.948
   142  H   0.991        C  133 0.952
   143  H   0.997        C  133 0.974
   144  H   0.996        C  134 0.973
   145  H   0.993        C  134 0.968
   146  H   0.993        C  135 0.960
   147  H   0.991        C  135 0.960
   148  H   0.946        N  136 0.903
   149  H   0.943        N  138 0.921
   150  H   0.932        N  138 0.913
   151  H   0.944        N  139 0.918
   152  H   0.927        N  139 0.909
   153  N   3.460        C  131 1.294    C  154 0.998    H  159 0.880    O  132 0.190
   154  C   3.973        N  153 0.998    C  157 0.970    C  155 0.942    H  160 0.929
   155  C   3.941        O  156 1.583    N  164 1.325    C  154 0.942
   156  O   1.920        C  155 1.583    N  164 0.185
   157  C   3.955        O  158 1.010    C  154 0.970    H  161 0.967    H  162 0.961
   158  O   1.939        C  157 1.010    H  163 0.857
   159  H   0.944        N  153 0.880
   160  H   0.994        C  154 0.929
   161  H   0.995        C  157 0.967
   162  H   0.998        C  157 0.961
   163  H   0.898        O  158 0.857
   164  N   3.466        C  155 1.325    C  165 0.976    H  172 0.872    O  156 0.185
   165  C   3.959        N  164 0.976    C  168 0.975    H  173 0.953    C  166 0.928
   166  C   3.944        O  167 1.592    N  183 1.328    C  165 0.928
   167  O   1.909        C  166 1.592    N  183 0.190
   168  C   3.980        C  169 0.994    C  165 0.975    H  175 0.973    H  174 0.956
   169  C   3.993        C  171 1.010    C  170 1.007    C  168 0.994    H  176 0.968
   170  C   3.993        C  169 1.007    H  179 0.986    H  178 0.986    H  177 0.985
   171  C   3.995        C  169 1.010    H  181 0.986    H  180 0.986    H  182 0.984
   172  H   0.946        N  164 0.872
   173  H   0.997        C  165 0.953
   174  H   0.993        C  168 0.956
   175  H   0.998        C  168 0.973
   176  H   0.999        C  169 0.968
   177  H   0.996        C  170 0.985
   178  H   0.997        C  170 0.986
   179  H   0.998        C  170 0.986
   180  H   0.998        C  171 0.986
   181  H   0.998        C  171 0.986
   182  H   0.999        C  171 0.984
   183  N   3.470        C  166 1.328    C  184 0.981    H  192 0.872    O  167 0.190
   184  C   3.957        C  187 0.984    N  183 0.981    H  193 0.966    C  185 0.875
   185  C   3.931        O  186 1.505    O  191 1.502    C  184 0.875
   186  O   1.808        C  185 1.505    O  191 0.216
   187  C   3.989        C  188 0.989    C  184 0.984    H  195 0.973    H  194 0.972
   188  C   3.994        C  189 1.010    C  190 1.008    C  187 0.989    H  196 0.969
   189  C   3.995        C  188 1.010    H  197 0.985    H  199 0.985    H  198 0.983
   190  C   3.994        C  188 1.008    H  202 0.987    H  201 0.986    H  200 0.985
   191  O   1.798        C  185 1.502    O  186 0.216
   192  H   0.949        N  183 0.872
   193  H   1.000        C  184 0.966
   194  H   0.998        C  187 0.972
   195  H   0.999        C  187 0.973
   196  H   1.000        C  188 0.969
   197  H   0.997        C  189 0.985
   198  H   0.999        C  189 0.983
   199  H   0.997        C  189 0.985
   200  H   0.996        C  190 0.985
   201  H   0.997        C  190 0.986
   202  H   0.999        C  190 0.987
   203  H   0.967        N    1 0.956
   204  H   0.994        C    3 0.953
   205  H   0.967        N   21 0.954
 
molecular dipole:
                 x           y           z       tot (Debye)
 q only:       43.646     -13.860      89.914
   full:       43.970     -12.373      90.129     256.831
molecular quadrupole (traceless):
                xx          xy          yy          xz          yz          zz
 q only:    -3207.317   -2744.765   -5003.778    6565.144   -1225.610    8211.095
  q+dip:    -3219.271   -2563.989   -4978.765    6623.774   -1052.204    8198.036
   full:    -3222.026   -2564.417   -4978.414    6625.843   -1050.955    8200.440


           -------------------------------------------------
          | TOTAL ENERGY             -310.404388375395 Eh   |
          | GRADIENT NORM               0.290124437498 Eh/α |
          | HOMO-LUMO GAP               1.762273468875 eV   |
           -------------------------------------------------

------------------------------------------------------------------------
 * finished run on 2019/05/31 at 07:35:56.184     
------------------------------------------------------------------------
 total:
 * wall-time:     0 d,  0 h,  0 min,  3.142 sec
 *  cpu-time:     0 d,  0 h,  0 min,  1.432 sec
 * ratio c/w:     0.456 speedup
 SCF:
 * wall-time:     0 d,  0 h,  0 min,  2.673 sec
 *  cpu-time:     0 d,  0 h,  0 min,  1.298 sec
 * ratio c/w:     0.486 speedup

