      -----------------------------------------------------------      
     |                   =====================                   |     
     |                           x T B                           |     
     |                   =====================                   |     
     |                         S. Grimme                         |     
     |          Mulliken Center for Theoretical Chemistry        |     
     |                    University of Bonn                     |     
     |                 Version 6.0.1 (SAW181210)                 |     
      -----------------------------------------------------------      

   This program is distributed in the hope that it will be useful,
   but WITHOUT ANY WARRANTY; without even the implied warranty of
   MERCHANTABILITY or FITNESS FOR A PARTICULAR PURPOSE.
   
   FOR NON-COMMERCIAL, ACADEMIA USE ONLY.
   
   Cite this work as:
   S. Grimme, C. Bannwarth, P. Shushkov, J. Comput. Theory Chem., 2017,
   13, 1989-2009.
   C. Bannwarth, S. Ehlert and S. Grimme., ChemRxiv, 2018, preprint.
   http://doi.org/10.26434/chemrxiv.7246238.v1
   
   for sTDA-xTB:
   S. Grimme and C. Bannwarth, J. Chem. Phys., 2016, 145, 054103.
   
   in the mass-spec context:
   V. Asgeirsson, C. Bauer and S. Grimme, Chem. Sci., 2017, 8, 4879.
   
   if GBSA is used:
   P. Shushkov, F. März and S. Grimme, unpublished.
   
   for ANC optimizer:
   S. Grimme, unpublished.
   Rational Function algorithm used in ANCopt:
   F. Eckert, P. Pulay, H.-J. Werner, J. Comput. Chem., 1997, 18, 1473.
   
   with help from (in alphabetical order)
   C. Bannwarth, F. Bohle, G. Brandenburg, E. Caldeweyher, M. Checinski,
   S. Dohm, S. Ehlert, S. Ehrlich, F. März, H. Neugebauer, J. Pisarek,
   P. Pracht, P. Shushkov, and S. Spicher.
   
 * started run on 2019/03/07 at 11:37:49.390     
========================================================================
 # omp threads = 1
========================================================================
number of atoms            : 45
number of electrons        : 120
charge                     : 0
spin                       : .0
first test random number   : .7922
           ------------------------------------------------- 
          |                 G F N 2 - x T B                 |
          | Geometry, Frequencies, Noncovalent interactions |
          |            JCTC 2018 parametrisation            |
           ------------------------------------------------- 
 
      method parameters     
 k(s)        :  1.8500
 k(p)        :  2.2300
 k(d)        :  2.2300
 k(f)        :  2.0000
 kEN (H0ij)  : -2.0000
 D4 a1       :  0.5200
 D4 a2       :  5.0000
 D4 s6       :  1.0000
 D4 s8       :  2.7000
 D4 s9       :  5.0000
 alphaj      :  2.0000

 Solvent             : h2o
 Using internal parameter file: .param_gbsa2_h2o
 Gsolv ref. state (COSMO-RS): gsolv [1 M gas/solution]
 temperature (mdtemp)       :    298.150000000000     
 dielectric constant        :    80.2000000000000     
 rho                        :    1.00000000000000     
 mass                       :    18.0000000000000     
 surface tension            :    15.5689454083859     
 probe radius               :   0.975313790000000     
 vdW radii scaling          :    1.00000000000000     
 Gshift (Eh)                :   1.857443126794793E-003
 c1                         :    1.55243817000000     
 soset                      :   0.130326360000000     
 HB correction              :  T

            Z     q(EN)     CN     RAES       Cart. coordinates
     1  N   5.0   -0.22    3.23    1.96   419.81207   123.70146   219.72411
     2  C   4.0    0.03    4.37    4.33   421.41645   125.22647   218.09894
     3  C   4.0    0.15    3.43    3.09   420.96480   124.58585   215.30593
     4  O   6.0   -0.29    1.22    1.80   421.71124   122.53928   214.43287
     5  C   4.0   -0.05    4.48    4.50   424.21513   124.79750   218.79814
     6  C   4.0   -0.03    4.30    4.19   426.26926   126.46235   217.67375
     7  C   4.0   -0.08    4.23    4.06   425.79116   129.19111   218.49767
     8  C   4.0   -0.09    4.22    4.04   428.84685   125.55339   218.57515
     9  H   1.0    0.10    1.09    1.44   420.62465   122.83219   220.83148
    10  H   1.0    0.04    1.13    1.45   420.99693   126.99336   218.35027
    11  H   1.0    0.04    1.10    1.44   424.34552   124.93545   220.62173
    12  H   1.0    0.06    1.10    1.44   424.62331   123.06462   218.36161
    13  H   1.0    0.05    1.12    1.45   426.24092   126.37164   215.84261
    14  H   1.0    0.05    1.05    1.44   427.08751   130.27960   217.79470
    15  H   1.0    0.05    1.06    1.44   424.14710   129.73347   217.89485
    16  H   1.0    0.04    1.06    1.44   425.83462   129.29505   220.32693
    17  H   1.0    0.05    1.06    1.44   430.15643   126.61731   217.85706
    18  H   1.0    0.05    1.06    1.44   428.92244   125.64410   220.40441
    19  H   1.0    0.05    1.06    1.44   429.10574   123.82051   218.03847
    20  N   5.0   -0.16    3.49    2.07   419.73837   126.30172   213.96611
    21  C   4.0    0.03    4.47    4.49   419.16200   125.95968   211.29593
    22  C   4.0    0.16    3.50    3.12   421.51660   126.29039   209.70667
    23  O   6.0   -0.29    1.29    1.80   423.07374   127.91933   210.19989
    24  C   4.0   -0.08    4.25    4.09   417.16834   127.82106   210.48712
    25  H   1.0    0.09    1.14    1.45   419.21114   127.71146   214.58027
    26  H   1.0    0.05    1.14    1.45   418.53083   124.25704   211.04837
    27  H   1.0    0.05    1.06    1.44   416.79418   127.58296   208.70889
    28  H   1.0    0.05    1.06    1.44   415.64522   127.55272   211.47167
    29  H   1.0    0.06    1.06    1.44   417.77872   129.52749   210.75925
    30  N   5.0   -0.17    3.40    2.02   421.82841   124.54617   207.90954
    31  C   4.0    0.02    4.32    4.24   423.96947   124.58963   206.17477
    32  C   4.0    0.17    3.35    3.07   426.62831   124.60286   207.33506
    33  O   6.0   -0.27    1.23    1.80   428.45756   124.39499   205.95367
    34  H   1.0    0.09    1.13    1.45   420.80228   123.30840   207.66765
    35  H   1.0    0.05    1.09    1.44   423.83907   123.12887   205.07684
    36  H   1.0    0.06    1.09    1.44   423.80695   126.07496   205.11274
    37  N   5.0   -0.15    3.44    2.04   426.80972   124.76160   209.84840
    38  C   4.0    0.02    4.24    4.08   429.25881   124.82018   211.08239
    39  C   4.0    0.10    3.13    3.03   430.90476   127.08218   210.31327
    40  O   6.0   -0.26    1.10    1.80   433.21778   126.80439   209.91454
    41  H   1.0    0.12    1.16    1.45   425.53794   124.83719   210.85562
    42  H   1.0    0.04    1.09    1.44   429.00936   124.85608   212.89842
    43  H   1.0    0.07    1.09    1.44   430.15832   123.27060   210.69499
    44  H   1.0    0.10    1.08    1.44   418.73804   124.71200   220.57136
    45  H   1.0    0.07    1.04    1.43   430.12905   128.79529   210.12732

  Z AO/shell   Hii/eV     exponent
  1     Wed Apr 25 08:07:45 CEST 2018   EN: 2.200 GM2: 0.406  GM3: 0.0800  RAES: 1.40
     1s    -10.707211    1.230000
  6     Wed Apr 25 08:07:45 CEST 2018   EN: 2.550 GM2: 0.538  GM3: 0.1500  RAES: 3.00
     2s    -13.970922    2.096432
     2p    -10.063292    1.800000
  7     Wed Apr 25 08:07:45 CEST 2018   EN: 3.040 GM2: 0.461  GM3:-0.0640  RAES: 1.90
     2s    -16.686243    2.339881
     2p    -12.523956    2.014332
  8     Wed Apr 25 08:07:45 CEST 2018   EN: 3.440 GM2: 0.452  GM3:-0.0517  RAES: 1.80
     2s    -20.229985    2.439742
     2p    -15.503117    2.137023
 no old-style atom pair restraining (fixing) potential
           ------------------------------------------------- 
          |        Self-Consistent Charge Iterations        |
           ------------------------------------------------- 

 Ncao       : 108
 Nao        : 108
 Nshell     : 66
 Nel        : 120
 T(el)      :   500.0
 intcut     :    35.0
 scfconv/Eh :  0.100E-06
   qconv/e  :  0.100E-04
 intneglect :  0.100E-08
 broydamp   :      0.400
 iter      E             dE          RMSdq      gap      omega  full diag
   1    -68.9796494 -0.689796E+02  0.478E+00    3.42       0.0  T
   2    -69.1678165 -0.188167E+00  0.218E+00    1.90       1.0  T
   3    -69.1783265 -0.105100E-01  0.130E+00    2.15       1.0  T
   4    -69.1894065 -0.110800E-01  0.262E-01    1.65       1.0  T
   5    -69.1904310 -0.102447E-02  0.112E-01    1.82       1.0  T
   6    -69.1905294 -0.984617E-04  0.497E-02    1.81       1.0  T
   7    -69.1905484 -0.189911E-04  0.150E-02    1.83       1.0  T
   8    -69.1905492 -0.746253E-06  0.765E-03    1.83       1.9  T
   9    -69.1905500 -0.837728E-06  0.188E-03    1.83       7.9  T
  10    -69.1905500 -0.183427E-07  0.693E-04    1.83      21.5  T
  11    -69.1905500 -0.298968E-08  0.329E-04    1.83      45.3  T
  12    -69.1905500 -0.928082E-09  0.975E-05    1.83     152.9  T
  13    -69.1905500 -0.354987E-10  0.440E-05    1.83     339.0  T
speedup  1.00
cpu  time for SCC    0.04 s
wall time for SCC    0.04 s

   *** convergence criteria satisfied after 13 iterations ***

          eigenvalues
 #    :          48         49         50         51         52         53         54         55
 occ. :        2.000      2.000      2.000      2.000      2.000      2.000      2.000      2.000
 eps  :       -12.706    -12.387    -12.161    -11.957    -11.909    -11.852    -11.750    -11.678
 #    :          56         57         58         59         60         61         62         63
 occ. :        2.000      2.000      2.000      2.000      2.000      0.000      0.000      0.000
 eps  :       -11.312    -11.162    -11.143    -10.972     -9.936     -8.105     -6.384     -6.088
 #    :          64         65         66         67         68         69         70         71
 occ. :        0.000      0.000      0.000      0.000      0.000      0.000      0.000      0.000
 eps  :        -6.033     -0.557      0.044      0.299      1.253      1.917      2.751      3.194


   #   Z            q   n(s)   n(p)   n(d)      C6AA      α(0)
   1   7 N     -0.421  1.287  4.134  0.000    30.973     8.266
   2   6 C      0.024  1.034  2.942  0.000    20.180     6.398
   3   6 C      0.263  1.052  2.686  0.000    22.573     7.780
   4   8 O     -0.514  1.759  4.754  0.000    24.089     6.580
   5   6 C     -0.096  1.012  3.083  0.000    22.304     6.720
   6   6 C     -0.025  1.031  2.994  0.000    20.984     6.515
   7   6 C     -0.153  0.978  3.174  0.000    23.480     6.905
   8   6 C     -0.151  0.978  3.173  0.000    23.449     6.900
   9   1 H      0.188  0.812  0.000  0.000     1.169     1.693
  10   1 H      0.043  0.957  0.000  0.000     2.405     2.425
  11   1 H      0.060  0.940  0.000  0.000     2.201     2.320
  12   1 H      0.059  0.941  0.000  0.000     2.205     2.322
  13   1 H      0.032  0.968  0.000  0.000     2.554     2.499
  14   1 H      0.053  0.947  0.000  0.000     2.279     2.360
  15   1 H      0.048  0.952  0.000  0.000     2.340     2.392
  16   1 H      0.058  0.942  0.000  0.000     2.223     2.331
  17   1 H      0.054  0.946  0.000  0.000     2.273     2.357
  18   1 H      0.059  0.941  0.000  0.000     2.213     2.326
  19   1 H      0.049  0.951  0.000  0.000     2.327     2.385
  20   7 N     -0.183  1.210  3.973  0.000    24.961     7.420
  21   6 C      0.014  1.030  2.955  0.000    20.332     6.419
  22   6 C      0.268  1.039  2.693  0.000    22.475     7.763
  23   8 O     -0.482  1.747  4.736  0.000    23.393     6.485
  24   6 C     -0.162  0.980  3.182  0.000    23.668     6.932
  25   1 H      0.221  0.779  0.000  0.000     1.002     1.568
  26   1 H      0.083  0.917  0.000  0.000     1.945     2.181
  27   1 H      0.083  0.917  0.000  0.000     1.947     2.182
  28   1 H      0.088  0.912  0.000  0.000     1.899     2.155
  29   1 H      0.079  0.921  0.000  0.000     1.989     2.205
  30   7 N     -0.196  1.212  3.984  0.000    25.260     7.465
  31   6 C     -0.052  1.013  3.040  0.000    21.570     6.623
  32   6 C      0.280  1.036  2.684  0.000    22.256     7.725
  33   8 O     -0.489  1.752  4.736  0.000    23.533     6.504
  34   1 H      0.230  0.770  0.000  0.000     0.966     1.540
  35   1 H      0.114  0.886  0.000  0.000     1.665     2.018
  36   1 H      0.113  0.887  0.000  0.000     1.669     2.020
  37   7 N     -0.166  1.196  3.970  0.000    24.599     7.366
  38   6 C     -0.037  1.007  3.030  0.000    21.294     6.580
  39   6 C      0.203  1.088  2.708  0.000    23.675     7.968
  40   8 O     -0.371  1.772  4.598  0.000    21.102     6.159
  41   1 H      0.217  0.783  0.000  0.000     1.024     1.585
  42   1 H      0.122  0.878  0.000  0.000     1.596     1.976
  43   1 H      0.116  0.884  0.000  0.000     1.646     2.006
  44   1 H      0.186  0.814  0.000  0.000     1.179     1.701
  45   1 H      0.089  0.911  0.000  0.000     1.890     2.150

 Mol. C6AA /au·bohr⁶  :      17696.453872
 Mol. C8AA /au·bohr⁸  :     388308.526713
 Mol. α(0) /au        :        198.170251

 
molecular dipole:
                 x           y           z       tot (Debye)
 q only:       -3.468       0.636       1.226
   full:       -3.977       0.871       1.624      11.141
molecular quadrupole (traceless):
                xx          xy          yy          xz          yz          zz
 q only:    -3290.555    -257.013    1368.183    -297.971     441.969    1922.372
  q+dip:    -3842.898    -204.497    1559.378    -204.062     593.749    2283.520
   full:    -3842.477    -204.565    1558.884    -203.999     593.235    2283.593
speedup  1.00
cpu  time for grad    0.07 s
wall time for grad    0.07 s

SCC energy    :     -69.1913680
rep           :       1.4645822
ES            :       0.1928717
AES           :       0.0077603
AXC           :       0.0121848
disp          :      -0.0417568
XB            :       0.0000000
fix           :       0.0000000
Gborn         :       0.0000000
Gsasa         :       0.0000000
Ghb           :       0.0000000
Gshift        :       0.0000000
Gsolv         :      -0.0339107      -21.28
Etot ala COSMO:     -69.1913680
grad norm     :       0.8499026
total E       :     -67.7256831
atomizationE  :      11.9987868     7529.35
(atE without considering molecular charge,
 total energy contains solvation terms)
H-L gap (eV)  :          1.8309

------------------------------------------------------------------------
 * finished run on 2019/03/07 at 11:37:49.700     
------------------------------------------------------------------------
 total:
 * wall-time:     0 d,  0 h,  0 min,  0.309 sec
 *  cpu-time:     0 d,  0 h,  0 min,  0.123 sec
 * ratio c/w:     0.397 speedup
 SCF:
 * wall-time:     0 d,  0 h,  0 min,  0.097 sec
 *  cpu-time:     0 d,  0 h,  0 min,  0.096 sec
 * ratio c/w:     0.989 speedup

