      -----------------------------------------------------------      
     |                   =====================                   |     
     |                           x T B                           |     
     |                   =====================                   |     
     |                         S. Grimme                         |     
     |          Mulliken Center for Theoretical Chemistry        |     
     |                    University of Bonn                     |     
     |                 Version 6.0.1 (SAW181210)                 |     
      -----------------------------------------------------------      

   This program is distributed in the hope that it will be useful,
   but WITHOUT ANY WARRANTY; without even the implied warranty of
   MERCHANTABILITY or FITNESS FOR A PARTICULAR PURPOSE.
   
   FOR NON-COMMERCIAL, ACADEMIA USE ONLY.
   
   Cite this work as:
   S. Grimme, C. Bannwarth, P. Shushkov, J. Comput. Theory Chem., 2017,
   13, 1989-2009.
   C. Bannwarth, S. Ehlert and S. Grimme., ChemRxiv, 2018, preprint.
   http://doi.org/10.26434/chemrxiv.7246238.v1
   
   for sTDA-xTB:
   S. Grimme and C. Bannwarth, J. Chem. Phys., 2016, 145, 054103.
   
   in the mass-spec context:
   V. Asgeirsson, C. Bauer and S. Grimme, Chem. Sci., 2017, 8, 4879.
   
   if GBSA is used:
   P. Shushkov, F. März and S. Grimme, unpublished.
   
   for ANC optimizer:
   S. Grimme, unpublished.
   Rational Function algorithm used in ANCopt:
   F. Eckert, P. Pulay, H.-J. Werner, J. Comput. Chem., 1997, 18, 1473.
   
   with help from (in alphabetical order)
   C. Bannwarth, F. Bohle, G. Brandenburg, E. Caldeweyher, M. Checinski,
   S. Dohm, S. Ehlert, S. Ehrlich, F. März, H. Neugebauer, J. Pisarek,
   P. Pracht, P. Shushkov, and S. Spicher.
   
 * started run on 2019/02/13 at 00:18:12.198     
========================================================================
 # omp threads = 16
========================================================================
number of atoms            : 270
number of electrons        : 756
charge                     : -1
spin                       : .0
first test random number   : .5543

########################################################################
# WARNING! Please study the warnings concerning your input carefully
#  - Process number higher than OMP_NUM_THREADS, I hope you know what you are doing.
########################################################################

           ------------------------------------------------- 
          |                 G F N 2 - x T B                 |
          | Geometry, Frequencies, Noncovalent interactions |
          |            JCTC 2018 parametrisation            |
           ------------------------------------------------- 
 
      method parameters     
 k(s)        :  1.8500
 k(p)        :  2.2300
 k(d)        :  2.2300
 k(f)        :  2.0000
 kEN (H0ij)  : -2.0000
 D4 a1       :  0.5200
 D4 a2       :  5.0000
 D4 s6       :  1.0000
 D4 s8       :  2.7000
 D4 s9       :  5.0000
 alphaj      :  2.0000

 Solvent             : h2o
 Using internal parameter file: .param_gbsa2_h2o
 Gsolv ref. state (COSMO-RS): gsolv [1 M gas/solution]
 temperature (mdtemp)       :    298.150000000000     
 dielectric constant        :    80.2000000000000     
 rho                        :    1.00000000000000     
 mass                       :    18.0000000000000     
 surface tension            :    15.5689454083859     
 probe radius               :   0.975313790000000     
 vdW radii scaling          :    1.00000000000000     
 Gshift (Eh)                :   1.857443126794793E-003
 c1                         :    1.55243817000000     
 soset                      :   0.130326360000000     
 HB correction              :  T

            Z     q(EN)     CN     RAES       Cart. coordinates
     1  N   5.0   -0.21    3.24    1.97   211.53946   126.76546   313.90765
     2  C   4.0    0.03    4.32    4.23   213.75796   125.46546   312.95770
     3  C   4.0    0.14    3.45    3.09   213.59813   125.46003   310.06801
     4  O   6.0   -0.32    1.28    1.80   215.42039   126.00319   308.73330
     5  C   4.0   -0.04    4.24    4.08   213.97932   122.74972   313.91962
     6  C   4.0   -0.03    4.15    3.91   215.30402   122.54300   316.47697
     7  C   4.0    0.25    3.09    3.02   213.84460   123.84750   318.68619
     8  O   6.0   -0.29    1.16    1.80   212.41699   122.46204   319.95715
     9  O   6.0   -0.29    1.16    1.80   214.25327   126.14275   319.03336
    10  H   1.0    0.10    1.02    1.43   210.72186   126.15509   315.52987
    11  H   1.0    0.05    1.05    1.44   215.47006   126.52901   313.47264
    12  H   1.0    0.05    1.03    1.43   212.09439   121.92120   314.01733
    13  H   1.0    0.04    1.03    1.43   215.08749   121.68654   312.53529
    14  H   1.0    0.05    1.02    1.43   215.51777   120.55063   316.96985
    15  H   1.0    0.05    1.02    1.43   217.17254   123.41598   316.36790
    16  N   5.0   -0.15    3.47    2.06   211.37839   124.72684   309.13266
    17  C   4.0    0.04    4.32    4.24   210.88617   124.78396   306.43714
    18  C   4.0    0.09    3.27    3.05   211.38293   127.42808   305.37079
    19  O   6.0   -0.29    1.19    1.80   212.59263   127.70380   303.40257
    20  C   4.0   -0.05    4.28    4.16   208.15235   124.05298   305.85067
    21  C   4.0   -0.05    4.16    3.91   207.63399   121.23388   306.22103
    22  C   4.0   -0.01    4.21    4.02   204.77172   120.76820   306.04334
    23  N   5.0   -0.14    3.38    2.01   204.06846   118.17519   305.49655
    24  C   4.0    0.09    3.34    3.06   204.04228   116.28878   307.15648
    25  N   5.0   -0.19    3.26    1.97   204.96063   116.57802   309.47496
    26  N   5.0   -0.19    3.24    1.96   203.03892   114.07342   306.49122
    27  H   1.0    0.07    1.07    1.44   209.97779   124.19532   310.33605
    28  H   1.0    0.07    1.05    1.44   212.21559   123.50512   305.48098
    29  H   1.0    0.04    1.03    1.43   206.93388   125.17629   307.07710
    30  H   1.0    0.05    1.03    1.43   207.76846   124.58181   303.89480
    31  H   1.0    0.05    1.02    1.43   208.61809   120.16570   304.76077
    32  H   1.0    0.04    1.03    1.43   208.37659   120.67981   308.06031
    33  H   1.0    0.04    1.02    1.43   203.86748   121.36096   307.80402
    34  H   1.0    0.04    1.03    1.43   204.01766   121.92816   304.51778
    35  H   1.0    0.07    1.07    1.44   203.49411   117.81211   303.71310
    36  H   1.0    0.08    1.03    1.43   205.99000   118.10484   309.97082
    37  H   1.0    0.09    1.03    1.43   204.98515   115.10401   310.68187
    38  H   1.0    0.08    1.03    1.43   202.05772   113.88625   304.87001
    39  H   1.0    0.09    1.03    1.43   202.90542   112.66745   307.77068
    40  N   5.0   -0.19    3.24    1.97   214.93799   131.55190   306.64920
    41  C   4.0    0.04    4.29    4.18   217.62955   131.94831   306.51323
    42  C   4.0    0.17    3.41    3.08   218.95912   130.35584   304.47749
    43  O   6.0   -0.28    1.22    1.80   220.45138   131.30154   302.99696
    44  C   4.0    0.03    4.17    3.95   218.78818   131.31896   309.09143
    45  O   6.0   -0.24    2.06    1.83   221.42512   131.62979   308.95609
    46  H   1.0    0.09    1.03    1.43   214.24717   130.65334   308.19095
    47  H   1.0    0.05    1.05    1.44   218.02393   133.92490   306.01936
    48  H   1.0    0.04    1.01    1.43   217.95824   132.58005   310.51622
    49  H   1.0    0.06    1.01    1.43   218.29306   129.36078   309.57449
    50  H   1.0    0.12    1.02    1.43   222.13877   131.33165   310.60809
    51  N   5.0   -0.14    3.47    2.06   218.41283   127.87684   304.51566
    52  C   4.0    0.04    4.39    4.36   219.91003   126.08241   303.11937
    53  C   4.0    0.16    3.44    3.09   218.64276   124.77013   300.87142
    54  O   6.0   -0.29    1.30    1.80   219.96488   123.42391   299.49884
    55  C   4.0    0.04    4.18    3.95   220.84770   123.94417   304.86830
    56  O   6.0   -0.26    2.11    1.84   222.65800   122.40921   303.67868
    57  H   1.0    0.11    1.10    1.44   217.18207   127.21970   305.83045
    58  H   1.0    0.07    1.07    1.44   221.54318   127.11800   302.36446
    59  H   1.0    0.05    1.01    1.43   221.73106   124.76376   306.54591
    60  H   1.0    0.06    1.01    1.43   219.19917   122.81470   305.43898
    61  H   1.0    0.15    1.08    1.44   222.16830   122.27998   301.89479
    62  N   5.0   -0.12    3.39    2.02   216.16938   125.04327   300.58811
    63  C   4.0    0.03    4.27    4.14   214.81897   123.67949   298.65268
    64  C   4.0    0.17    3.35    3.06   214.50079   120.89137   299.37489
    65  O   6.0   -0.28    1.25    1.80   214.96003   120.08202   301.49253
    66  H   1.0    0.12    1.11    1.45   215.15892   126.17339   301.76399
    67  H   1.0    0.07    1.02    1.43   212.97819   124.55542   298.32509
    68  H   1.0    0.06    1.03    1.43   215.88867   123.75452   296.88276
    69  N   5.0   -0.14    3.47    2.06   213.66152   119.47221   297.46867
    70  C   4.0    0.03    4.39    4.36   213.48667   116.74343   297.58263
    71  C   4.0    0.16    3.45    3.09   215.84880   115.62023   298.85028
    72  O   6.0   -0.29    1.24    1.80   217.97900   116.41381   298.50926
    73  C   4.0   -0.05    4.34    4.27   213.16349   115.61752   294.92429
    74  C   4.0   -0.02    4.19    3.97   215.51671   115.66026   293.22560
    75  C   4.0   -0.08    4.10    3.81   214.97632   114.18450   290.80090
    76  C   4.0   -0.06    4.11    3.82   216.37062   118.34444   292.59698
    77  H   1.0    0.10    1.09    1.44   212.97218   120.34407   295.90142
    78  H   1.0    0.04    1.05    1.44   211.82005   116.23272   298.71364
    79  H   1.0    0.04    1.03    1.43   212.58087   113.65276   295.15896
    80  H   1.0    0.05    1.03    1.43   211.64923   116.66022   293.98636
    81  H   1.0    0.05    1.06    1.44   217.08055   114.72939   294.20711
    82  H   1.0    0.04    1.00    1.43   216.62085   114.27176   289.57039
    83  H   1.0    0.03    1.00    1.43   214.57904   112.21957   291.23688
    84  H   1.0    0.04    1.00    1.43   213.38027   114.99965   289.79383
    85  H   1.0    0.05    1.00    1.43   217.83447   118.32030   291.14881
    86  H   1.0    0.05    1.00    1.43   214.81141   119.49039   291.89266
    87  H   1.0    0.07    1.00    1.43   217.16593   119.26266   294.25343
    88  N   5.0   -0.14    3.48    2.07   215.34324   113.58362   300.29155
    89  C   4.0    0.03    4.39    4.37   217.24687   112.04334   301.51562
    90  C   4.0    0.14    3.43    3.09   216.12386   109.40643   301.89118
    91  O   6.0   -0.31    1.29    1.80   213.88315   108.97260   301.49454
    92  C   4.0   -0.04    4.26    4.11   218.06319   113.19735   304.07337
    93  C   4.0   -0.04    4.18    3.96   220.51444   114.69802   303.81505
    94  C   4.0   -0.01    4.21    4.01   221.12197   116.13598   306.25400
    95  N   5.0   -0.14    3.41    2.03   223.39947   117.62903   305.98863
    96  C   4.0    0.09    3.35    3.06   225.74835   116.76756   306.13486
    97  N   5.0   -0.19    3.25    1.97   226.26266   114.42048   306.89193
    98  N   5.0   -0.18    3.24    1.97   227.64121   118.33106   305.57104
    99  H   1.0    0.09    1.09    1.44   213.56535   112.89485   300.46012
   100  H   1.0    0.05    1.06    1.44   218.88856   111.92243   300.25821
   101  H   1.0    0.06    1.03    1.43   216.56851   114.47667   304.68182
   102  H   1.0    0.04    1.03    1.43   218.27832   111.71457   305.48974
   103  H   1.0    0.04    1.02    1.43   222.07104   113.43454   303.33581
   104  H   1.0    0.07    1.03    1.43   220.30207   116.05131   302.27454
   105  H   1.0    0.05    1.03    1.43   219.58968   117.45194   306.66358
   106  H   1.0    0.04    1.02    1.43   221.30263   114.84061   307.85129
   107  H   1.0    0.10    1.11    1.45   223.15768   119.37027   305.18611
   108  H   1.0    0.08    1.03    1.43   224.87655   113.23385   307.42699
   109  H   1.0    0.08    1.03    1.43   228.06443   113.86569   307.14300
   110  H   1.0    0.09    1.03    1.43   227.26811   120.07806   304.91378
   111  H   1.0    0.08    1.03    1.43   229.45252   117.76175   305.66900
   112  N   5.0   -0.15    3.49    2.07   217.73893   107.66481   302.76173
   113  C   4.0    0.03    4.51    4.55   217.03516   105.02769   303.08048
   114  C   4.0    0.15    3.40    3.08   215.94464   104.67431   305.76064
   115  O   6.0   -0.30    1.23    1.80   216.90228   103.34966   307.37930
   116  C   4.0   -0.02    4.33    4.25   219.24866   103.21557   302.60863
   117  C   4.0   -0.05    4.18    3.96   220.90062   103.97423   300.34356
   118  C   4.0   -0.06    4.12    3.85   218.18382   100.54814   302.28249
   119  C   4.0   -0.07    4.02    3.66   219.43303   104.57032   297.93416
   120  H   1.0    0.07    1.07    1.44   219.57296   108.10237   303.04317
   121  H   1.0    0.06    1.06    1.44   215.51529   104.61640   301.73066
   122  H   1.0    0.05    1.06    1.44   220.43031   103.20171   304.30917
   123  H   1.0    0.04    1.02    1.43   222.07575   105.59625   300.83442
   124  H   1.0    0.04    1.03    1.43   222.17629   102.39801   299.97438
   125  H   1.0    0.05    1.00    1.43   219.70165    99.20067   301.96764
   126  H   1.0    0.06    1.00    1.43   217.16832    99.96737   303.97314
   127  H   1.0    0.06    1.00    1.43   216.87287   100.44642   300.69964
   128  H   1.0    0.04    1.00    1.43   220.72950   104.70768   296.34606
   129  H   1.0    0.06    1.00    1.43   218.06629   103.09422   297.52153
   130  H   1.0    0.05    1.00    1.43   218.41672   106.34762   298.09259
   131  N   5.0   -0.13    3.51    2.09   213.89193   106.12305   306.15386
   132  C   4.0    0.04    4.39    4.36   212.49014   106.11987   308.50523
   133  C   4.0    0.16    3.39    3.08   209.92387   104.79857   308.12509
   134  O   6.0   -0.29    1.20    1.80   209.37534   102.85109   309.24091
   135  C   4.0   -0.04    4.28    4.15   212.26132   108.80898   309.61566
   136  C   4.0    0.15    3.24    3.04   211.69363   110.90039   307.72761
   137  O   6.0   -0.31    1.32    1.80   210.32337   110.63037   305.86973
   138  N   5.0   -0.19    3.19    1.95   212.72065   113.12934   308.27323
   139  H   1.0    0.11    1.10    1.44   213.16152   107.09315   304.66717
   140  H   1.0    0.07    1.07    1.44   213.55717   104.93623   309.82716
   141  H   1.0    0.05    1.03    1.43   210.74394   108.79253   311.01910
   142  H   1.0    0.04    1.03    1.43   214.02107   109.24573   310.59337
   143  H   1.0    0.10    1.03    1.43   212.41355   114.60089   307.09860
   144  H   1.0    0.08    1.03    1.43   213.82336   113.39792   309.80138
   145  N   5.0   -0.13    3.52    2.09   208.44594   105.96531   306.43679
   146  C   4.0    0.04    4.36    4.31   205.89115   105.14181   305.91996
   147  C   4.0    0.14    3.41    3.08   205.20250   105.56573   303.14009
   148  O   6.0   -0.29    1.23    1.80   204.37057   103.88957   301.79188
   149  C   4.0    0.03    4.15    3.89   204.00211   106.58683   307.63695
   150  O   6.0   -0.25    2.06    1.83   204.88562   106.85538   310.12075
   151  H   1.0    0.11    1.15    1.45   208.99356   107.76638   305.91684
   152  H   1.0    0.07    1.06    1.44   205.79759   103.11232   306.32152
   153  H   1.0    0.05    1.02    1.43   203.77395   108.51165   306.92845
   154  H   1.0    0.04    1.01    1.43   202.17350   105.61457   307.57181
   155  H   1.0    0.13    1.03    1.43   205.18950   105.21246   310.84460
   156  N   5.0   -0.15    3.50    2.08   205.52672   107.95452   302.34152
   157  C   4.0    0.04    4.34    4.27   204.86229   108.78034   299.80445
   158  C   4.0    0.16    3.45    3.09   205.99194   107.07670   297.76521
   159  O   6.0   -0.31    1.22    1.80   204.94169   106.67832   295.75178
   160  C   4.0   -0.07    4.13    3.86   205.87704   111.45369   299.39749
   161  H   1.0    0.09    1.07    1.44   206.40802   109.24271   303.44851
   162  H   1.0    0.05    1.05    1.44   202.80558   108.71832   299.57456
   163  H   1.0    0.05    1.00    1.43   205.36996   112.12251   297.52431
   164  H   1.0    0.04    1.00    1.43   205.07672   112.72589   300.79250
   165  H   1.0    0.05    1.00    1.43   207.92541   111.46083   299.57292
   166  N   5.0   -0.14    3.50    2.08   208.34671   106.29922   298.29221
   167  C   4.0    0.03    4.41    4.40   209.91651   104.97143   296.49034
   168  C   4.0    0.15    3.42    3.08   210.87257   102.45458   297.58171
   169  O   6.0   -0.30    1.26    1.80   213.09988   101.90135   297.75313
   170  C   4.0   -0.04    4.25    4.10   212.09540   106.60792   295.47978
   171  C   4.0   -0.05    4.16    3.92   211.73321   107.32306   292.70361
   172  C   4.0   -0.05    4.17    3.94   209.58820   109.23833   292.33824
   173  C   4.0   -0.04    4.11    3.83   208.56240   109.34294   289.64889
   174  N   5.0   -0.12    4.02    2.92   206.81824   107.17653   289.19848
   175  H   1.0    0.10    1.08    1.44   209.06724   106.73962   300.00588
   176  H   1.0    0.05    1.07    1.44   208.64982   104.45075   294.93097
   177  H   1.0    0.05    1.03    1.43   212.27356   108.29351   296.65149
   178  H   1.0    0.06    1.04    1.43   213.83401   105.51656   295.67504
   179  H   1.0    0.03    1.03    1.43   213.50428   108.11481   292.01287
   180  H   1.0    0.04    1.03    1.43   211.41118   105.58403   291.64024
   181  H   1.0    0.06    1.04    1.43   208.03135   108.79268   293.60865
   182  H   1.0    0.04    1.03    1.43   210.27433   111.10959   292.84629
   183  H   1.0    0.05    1.02    1.43   207.50460   111.09080   289.36800
   184  H   1.0    0.04    1.02    1.43   210.09075   109.25244   288.27008
   185  H   1.0    0.05    1.02    1.43   205.94181   107.33410   287.47119
   186  H   1.0    0.05    1.02    1.43   207.80486   105.50230   289.23979
   187  H   1.0    0.07    1.02    1.43   205.47160   107.11804   290.61223
   188  N   5.0   -0.14    3.45    2.05   208.98666   100.88264   298.25381
   189  C   4.0    0.04    4.31    4.22   209.42967    98.21557   298.74597
   190  C   4.0    0.11    3.37    3.07   211.25693    97.18646   296.74953
   191  O   6.0   -0.26    1.12    1.80   213.16633    96.01416   297.30171
   192  C   4.0   -0.03    4.25    4.10   206.96993    96.72123   298.64470
   193  C   4.0    0.26    3.16    3.03   207.62415    93.86912   298.09255
   194  O   6.0   -0.28    1.18    1.80   207.73937    93.27840   295.81664
   195  O   6.0   -0.27    1.16    1.80   207.98341    92.49664   299.95880
   196  H   1.0    0.09    1.07    1.44   207.17216   101.44887   298.09209
   197  H   1.0    0.07    1.05    1.44   210.35193    97.94252   300.58378
   198  H   1.0    0.06    1.02    1.43   205.96066    96.84743   300.43354
   199  H   1.0    0.05    1.02    1.43   205.77813    97.38759   297.09885
   200  N   5.0   -0.21    3.19    1.95   218.00493   102.66547   284.94898
   201  C   4.0    0.04    4.26    4.11   219.03715   105.19841   285.00371
   202  C   4.0    0.08    3.19    3.03   221.92427   105.19363   285.00437
   203  O   6.0   -0.28    1.12    1.80   223.07158   106.94151   283.99045
   204  C   4.0   -0.05    4.25    4.10   217.93573   106.83416   287.10816
   205  C   4.0   -0.04    4.22    4.04   215.26213   107.72996   286.42956
   206  C   4.0    0.15    3.25    3.04   215.26350   109.13810   283.92169
   207  O   6.0   -0.31    1.20    1.80   214.62165   108.14305   281.93926
   208  N   5.0   -0.19    3.19    1.95   216.00838   111.55471   284.06441
   209  H   1.0    0.08    1.02    1.43   217.17202   101.93126   286.50236
   210  H   1.0    0.07    1.08    1.44   218.54413   106.06280   283.18087
   211  H   1.0    0.04    1.02    1.43   217.88817   105.75581   288.86502
   212  H   1.0    0.05    1.03    1.43   219.17969   108.45995   287.35877
   213  H   1.0    0.04    1.03    1.43   214.03213   106.08807   286.24428
   214  H   1.0    0.03    1.03    1.43   214.57414   108.98084   287.90951
   215  H   1.0    0.08    1.03    1.43   216.64358   112.32834   285.67924
   216  H   1.0    0.10    1.03    1.43   216.19395   112.57553   282.46891
   217  N   5.0   -0.20    3.26    1.97   206.97519   117.58320   280.05433
   218  C   4.0    0.03    4.41    4.40   207.14104   115.51278   281.82972
   219  C   4.0    0.15    3.45    3.10   208.01091   116.49439   284.41627
   220  O   6.0   -0.30    1.21    1.80   206.93107   115.94964   286.38572
   221  C   4.0   -0.03    4.34    4.28   208.95363   113.46109   280.84050
   222  C   4.0   -0.05    4.19    3.98   208.14955   112.56873   278.20325
   223  C   4.0   -0.07    4.13    3.87   209.02562   111.28351   282.72926
   224  C   4.0   -0.07    4.01    3.64   210.14564   110.92700   276.92709
   225  H   1.0    0.08    1.03    1.43   208.61140   118.16541   279.26077
   226  H   1.0    0.05    1.05    1.44   205.22672   114.76094   282.07159
   227  H   1.0    0.04    1.05    1.44   210.83291   114.31907   280.70708
   228  H   1.0    0.04    1.03    1.43   206.37801   111.52497   278.35706
   229  H   1.0    0.04    1.03    1.43   207.80940   114.22040   277.01620
   230  H   1.0    0.06    1.00    1.43   210.41024   109.88774   282.14955
   231  H   1.0    0.05    1.01    1.43   209.52781   112.00649   284.58290
   232  H   1.0    0.04    1.00    1.43   207.16969   110.41152   282.82217
   233  H   1.0    0.04    1.00    1.43   209.47180   110.31687   275.08572
   234  H   1.0    0.05    1.00    1.43   211.87856   111.99850   276.65551
   235  H   1.0    0.05    1.00    1.43   210.58974   109.26434   278.04319
   236  N   5.0   -0.14    3.52    2.09   210.15098   117.85654   284.31768
   237  C   4.0    0.03    4.43    4.42   210.86174   119.52378   286.35947
   238  C   4.0    0.16    3.46    3.10   208.75938   121.46688   286.76341
   239  O   6.0   -0.28    1.23    1.80   207.53944   122.31947   284.98881
   240  C   4.0   -0.03    4.32    4.23   213.21443   121.03772   285.63708
   241  C   4.0   -0.03    4.18    3.95   215.49487   119.42547   284.95526
   242  C   4.0    0.25    3.11    3.02   217.46627   120.96895   283.43921
   243  O   6.0   -0.27    1.18    1.80   217.41713   123.31038   283.52584
   244  O   6.0   -0.28    1.17    1.80   219.02958   119.69550   282.17953
   245  H   1.0    0.08    1.08    1.44   210.76696   118.44832   282.60653
   246  H   1.0    0.04    1.05    1.44   211.15227   118.43292   288.09327
   247  H   1.0    0.07    1.04    1.43   212.71991   122.20577   284.00381
   248  H   1.0    0.07    1.03    1.43   213.68273   122.33851   287.17098
   249  H   1.0    0.04    1.02    1.43   216.41786   118.70925   286.65412
   250  H   1.0    0.05    1.03    1.43   214.93140   117.82915   283.78168
   251  N   5.0   -0.12    3.53    2.10   208.38150   122.10282   289.17481
   252  C   4.0    0.04    4.32    4.24   206.93574   124.27717   289.95310
   253  C   4.0    0.09    3.26    3.05   208.52634   126.67576   289.63434
   254  O   6.0   -0.26    1.14    1.80   210.80918   126.57232   289.35123
   255  C   4.0   -0.03    4.28    4.16   206.37951   123.97269   292.78132
   256  C   4.0    0.26    3.17    3.03   208.92948   123.85632   294.28137
   257  O   6.0   -0.32    1.27    1.80   210.31892   121.98628   293.85369
   258  O   6.0   -0.29    1.16    1.80   209.36686   125.60486   295.77769
   259  H   1.0    0.11    1.14    1.45   209.58041   121.51514   290.57486
   260  H   1.0    0.05    1.04    1.43   205.21147   124.40248   288.81090
   261  H   1.0    0.05    1.02    1.43   205.26503   125.54399   293.50837
   262  H   1.0    0.05    1.02    1.43   205.36172   122.20527   293.07284
   263  H   1.0    0.10    1.07    1.44   211.92330   128.39377   314.21400
   264  H   1.0    0.05    1.05    1.44   210.72264   128.95073   306.27446
   265  H   1.0    0.09    1.07    1.44   214.14049   133.05367   306.61430
   266  H   1.0    0.06    1.05    1.44   210.90580    97.46576   294.91383
   267  H   1.0    0.10    1.07    1.44   216.79553   102.57091   283.75694
   268  H   1.0    0.05    1.04    1.43   222.86660   103.77616   285.82527
   269  H   1.0    0.09    1.08    1.44   205.96601   117.14072   278.75883
   270  H   1.0    0.06    1.05    1.44   207.69323   128.37179   289.65611

  Z AO/shell   Hii/eV     exponent
  1     Wed Apr 25 08:07:45 CEST 2018   EN: 2.200 GM2: 0.406  GM3: 0.0800  RAES: 1.40
     1s    -10.707211    1.230000
  6     Wed Apr 25 08:07:45 CEST 2018   EN: 2.550 GM2: 0.538  GM3: 0.1500  RAES: 3.00
     2s    -13.970922    2.096432
     2p    -10.063292    1.800000
  7     Wed Apr 25 08:07:45 CEST 2018   EN: 3.040 GM2: 0.461  GM3:-0.0640  RAES: 1.90
     2s    -16.686243    2.339881
     2p    -12.523956    2.014332
  8     Wed Apr 25 08:07:45 CEST 2018   EN: 3.440 GM2: 0.452  GM3:-0.0517  RAES: 1.80
     2s    -20.229985    2.439742
     2p    -15.503117    2.137023
 no old-style atom pair restraining (fixing) potential

molecular fragmentation (1/2 indicates fragments):
111111111111111111111111111111111111111222222222222222222222222222222222
222222222222222222222222222222222222222222222222222222222222222222222222
222222222222222222222222222222222222222222222222222222222222222222222222
222222222222222222222222222222222222222222222211222222
# atoms in fragment 1/2:    41   229
 fragment masses (1/2) :      287.32     1619.77
CMA distance (Bohr)    :  17.067
constraining FC (au)   :  0.0500
           ------------------------------------------------- 
          |        Self-Consistent Charge Iterations        |
           ------------------------------------------------- 

 Ncao       : 669
 Nao        : 669
 Nshell     : 403
 Nel        : 756
 T(el)      :   500.0
 intcut     :    35.0
 scfconv/Eh :  0.100E-06
   qconv/e  :  0.100E-04
 intneglect :  0.100E-08
 broydamp   :      0.400
 iter      E             dE          RMSdq      gap      omega  full diag
   1   -436.9675328 -0.436968E+03  0.492E+00    3.50       0.0  T
   2   -438.1772170 -0.120968E+01  0.225E+00    2.02       1.0  T
   3   -438.2537581 -0.765411E-01  0.129E+00    2.18       1.0  T
   4   -438.3227216 -0.689634E-01  0.267E-01    1.39       1.0  T
   5   -438.3267180 -0.399642E-02  0.135E-01    1.56       1.0  T
   6   -438.3272909 -0.572907E-03  0.528E-02    1.52       1.0  T
   7   -438.3274732 -0.182310E-03  0.218E-02    1.56       1.0  T
   8   -438.3274876 -0.144121E-04  0.875E-03    1.56       1.0  T
   9   -438.3274918 -0.423644E-05  0.396E-03    1.56       1.5  T
  10   -438.3274924 -0.523621E-06  0.156E-03    1.56       3.9  T
  11   -438.3274925 -0.165542E-06  0.685E-04    1.56       8.9  T
  12   -438.3274926 -0.224209E-07  0.283E-04    1.56      21.5  T
  13   -438.3274926 -0.336553E-08  0.140E-04    1.56      43.3  T
  14   -438.3274926 -0.100226E-08  0.447E-05    1.56     136.3  T
  15   -438.3274926 -0.927116E-10  0.185E-05    1.56     329.1  T
speedup 12.94
cpu  time for SCC   22.01 s
wall time for SCC    1.70 s

   *** convergence criteria satisfied after 15 iterations ***

          eigenvalues
 #    :         366        367        368        369        370        371        372        373
 occ. :        2.000      2.000      2.000      2.000      2.000      2.000      2.000      2.000
 eps  :       -10.529    -10.527    -10.428    -10.252    -10.157    -10.150    -10.134    -10.040
 #    :         374        375        376        377        378        379        380        381
 occ. :        2.000      2.000      2.000      2.000      2.000      0.000      0.000      0.000
 eps  :        -9.925     -9.886     -9.880     -9.663     -9.597     -8.035     -7.862     -7.682
 #    :         382        383        384        385        386        387        388        389
 occ. :        0.000      0.000      0.000      0.000      0.000      0.000      0.000      0.000
 eps  :        -7.674     -6.559     -6.502     -6.457     -6.413     -6.309     -6.304     -6.257


   #   Z            q   n(s)   n(p)   n(d)      C6AA      α(0)
   1   7 N     -0.379  1.293  4.086  0.000    29.801     8.108
   2   6 C      0.041  1.055  2.904  0.000    19.893     6.353
   3   6 C      0.261  1.052  2.687  0.000    22.608     7.787
   4   8 O     -0.500  1.745  4.755  0.000    23.790     6.539
   5   6 C     -0.060  1.056  3.004  0.000    21.651     6.624
   6   6 C     -0.093  1.069  3.025  0.000    22.287     6.722
   7   6 C      0.372  1.024  2.604  0.000    20.695     7.445
   8   8 O     -0.656  1.777  4.879  0.000    27.541     7.036
   9   8 O     -0.658  1.779  4.880  0.000    27.595     7.043
  10   1 H      0.150  0.850  0.000  0.000     1.401     1.854
  11   1 H      0.017  0.983  0.000  0.000     2.779     2.607
  12   1 H      0.056  0.944  0.000  0.000     2.249     2.345
  13   1 H      0.053  0.947  0.000  0.000     2.277     2.360
  14   1 H      0.030  0.970  0.000  0.000     2.590     2.517
  15   1 H      0.013  0.987  0.000  0.000     2.846     2.638
  16   7 N     -0.157  1.239  3.918  0.000    24.391     7.335
  17   6 C      0.020  1.060  2.920  0.000    20.246     6.407
  18   6 C      0.201  1.089  2.710  0.000    23.718     7.976
  19   8 O     -0.360  1.761  4.600  0.000    20.907     6.130
  20   6 C     -0.085  1.057  3.028  0.000    22.112     6.694
  21   6 C     -0.092  1.057  3.034  0.000    22.247     6.715
  22   6 C     -0.036  1.054  2.982  0.000    21.299     6.585
  23   7 N     -0.134  1.204  3.930  0.000    23.903     7.261
  24   6 C      0.228  1.019  2.752  0.000    23.199     7.886
  25   7 N     -0.239  1.227  4.012  0.000    26.242     7.608
  26   7 N     -0.247  1.228  4.019  0.000    26.442     7.637
  27   1 H      0.233  0.767  0.000  0.000     0.954     1.530
  28   1 H      0.099  0.901  0.000  0.000     1.794     2.095
  29   1 H      0.082  0.918  0.000  0.000     1.955     2.186
  30   1 H      0.071  0.929  0.000  0.000     2.079     2.255
  31   1 H      0.085  0.915  0.000  0.000     1.931     2.173
  32   1 H      0.075  0.925  0.000  0.000     2.033     2.229
  33   1 H      0.095  0.905  0.000  0.000     1.835     2.119
  34   1 H      0.094  0.906  0.000  0.000     1.845     2.124
  35   1 H      0.238  0.762  0.000  0.000     0.932     1.512
  36   1 H      0.245  0.755  0.000  0.000     0.904     1.489
  37   1 H      0.253  0.747  0.000  0.000     0.871     1.462
  38   1 H      0.245  0.755  0.000  0.000     0.903     1.489
  39   1 H      0.240  0.760  0.000  0.000     0.923     1.505
  40   7 N     -0.387  1.312  4.076  0.000    30.018     8.137
  41   6 C      0.029  1.058  2.912  0.000    20.102     6.386
  42   6 C      0.281  1.045  2.674  0.000    22.241     7.723
  43   8 O     -0.499  1.751  4.748  0.000    23.759     6.535
  44   6 C      0.080  1.042  2.878  0.000    19.456     6.317
  45   8 O     -0.497  1.734  4.763  0.000    22.820     6.449
  46   1 H      0.152  0.848  0.000  0.000     1.385     1.844
  47   1 H      0.046  0.954  0.000  0.000     2.369     2.407
  48   1 H      0.025  0.975  0.000  0.000     2.665     2.553
  49   1 H      0.038  0.962  0.000  0.000     2.473     2.459
  50   1 H      0.350  0.650  0.000  0.000     0.587     1.204
  51   7 N     -0.189  1.248  3.941  0.000    25.094     7.440
  52   6 C      0.007  1.060  2.933  0.000    20.474     6.443
  53   6 C      0.271  1.041  2.688  0.000    22.421     7.754
  54   8 O     -0.510  1.749  4.761  0.000    24.017     6.571
  55   6 C      0.068  1.041  2.891  0.000    19.644     6.347
  56   8 O     -0.451  1.692  4.759  0.000    21.862     6.312
  57   1 H      0.229  0.771  0.000  0.000     0.969     1.542
  58   1 H      0.083  0.917  0.000  0.000     1.944     2.180
  59   1 H      0.069  0.931  0.000  0.000     2.098     2.265
  60   1 H      0.047  0.953  0.000  0.000     2.356     2.400
  61   1 H      0.339  0.661  0.000  0.000     0.616     1.233
  62   7 N     -0.165  1.241  3.924  0.000    24.574     7.362
  63   6 C     -0.018  1.046  2.972  0.000    20.963     6.529
  64   6 C      0.280  1.038  2.682  0.000    22.252     7.724
  65   8 O     -0.478  1.725  4.753  0.000    23.308     6.473
  66   1 H      0.234  0.766  0.000  0.000     0.948     1.525
  67   1 H      0.082  0.918  0.000  0.000     1.955     2.186
  68   1 H      0.053  0.947  0.000  0.000     2.278     2.360
  69   7 N     -0.176  1.244  3.932  0.000    24.810     7.398
  70   6 C      0.017  1.066  2.917  0.000    20.299     6.416
  71   6 C      0.287  1.038  2.676  0.000    22.145     7.706
  72   8 O     -0.469  1.750  4.719  0.000    23.100     6.444
  73   6 C     -0.086  1.064  3.022  0.000    22.132     6.697
  74   6 C     -0.011  1.055  2.956  0.000    20.739     6.478
  75   6 C     -0.122  1.045  3.077  0.000    22.888     6.821
  76   6 C     -0.099  1.034  3.064  0.000    22.441     6.755
  77   1 H      0.210  0.790  0.000  0.000     1.054     1.608
  78   1 H      0.071  0.929  0.000  0.000     2.071     2.251
  79   1 H      0.077  0.923  0.000  0.000     2.014     2.219
  80   1 H      0.067  0.933  0.000  0.000     2.120     2.277
  81   1 H      0.046  0.954  0.000  0.000     2.368     2.406
  82   1 H      0.029  0.971  0.000  0.000     2.606     2.525
  83   1 H      0.066  0.934  0.000  0.000     2.126     2.280
  84   1 H      0.041  0.959  0.000  0.000     2.433     2.439
  85   1 H      0.016  0.984  0.000  0.000     2.789     2.612
  86   1 H      0.018  0.982  0.000  0.000     2.759     2.597
  87   1 H      0.035  0.965  0.000  0.000     2.512     2.478
  88   7 N     -0.173  1.235  3.938  0.000    24.736     7.387
  89   6 C      0.008  1.064  2.928  0.000    20.454     6.441
  90   6 C      0.260  1.045  2.695  0.000    22.619     7.788
  91   8 O     -0.467  1.735  4.731  0.000    23.060     6.438
  92   6 C     -0.087  1.062  3.026  0.000    22.165     6.702
  93   6 C     -0.087  1.056  3.032  0.000    22.166     6.703
  94   6 C     -0.028  1.054  2.974  0.000    21.144     6.561
  95   7 N     -0.153  1.222  3.931  0.000    24.309     7.323
  96   6 C      0.232  1.019  2.749  0.000    23.127     7.874
  97   7 N     -0.251  1.225  4.026  0.000    26.528     7.649
  98   7 N     -0.262  1.233  4.028  0.000    26.790     7.687
  99   1 H      0.216  0.784  0.000  0.000     1.029     1.589
 100   1 H      0.086  0.914  0.000  0.000     1.916     2.165
 101   1 H      0.079  0.921  0.000  0.000     1.992     2.207
 102   1 H      0.066  0.934  0.000  0.000     2.130     2.282
 103   1 H      0.063  0.937  0.000  0.000     2.161     2.299
 104   1 H      0.073  0.927  0.000  0.000     2.055     2.242
 105   1 H      0.082  0.918  0.000  0.000     1.954     2.186
 106   1 H      0.086  0.914  0.000  0.000     1.918     2.166
 107   1 H      0.234  0.766  0.000  0.000     0.947     1.524
 108   1 H      0.247  0.753  0.000  0.000     0.896     1.483
 109   1 H      0.250  0.750  0.000  0.000     0.884     1.473
 110   1 H      0.239  0.761  0.000  0.000     0.927     1.508
 111   1 H      0.253  0.747  0.000  0.000     0.873     1.464
 112   7 N     -0.167  1.241  3.926  0.000    24.619     7.369
 113   6 C      0.009  1.069  2.922  0.000    20.421     6.434
 114   6 C      0.274  1.044  2.682  0.000    22.373     7.745
 115   8 O     -0.476  1.753  4.723  0.000    23.251     6.465
 116   6 C     -0.020  1.062  2.959  0.000    20.899     6.502
 117   6 C     -0.069  1.053  3.015  0.000    21.815     6.650
 118   6 C     -0.108  1.037  3.071  0.000    22.613     6.780
 119   6 C     -0.115  1.035  3.080  0.000    22.768     6.805
 120   1 H      0.219  0.781  0.000  0.000     1.013     1.576
 121   1 H      0.078  0.922  0.000  0.000     1.997     2.210
 122   1 H      0.056  0.944  0.000  0.000     2.246     2.343
 123   1 H      0.047  0.953  0.000  0.000     2.354     2.399
 124   1 H      0.047  0.953  0.000  0.000     2.364     2.404
 125   1 H      0.043  0.957  0.000  0.000     2.411     2.428
 126   1 H      0.027  0.973  0.000  0.000     2.633     2.538
 127   1 H      0.041  0.959  0.000  0.000     2.437     2.441
 128   1 H      0.044  0.956  0.000  0.000     2.401     2.423
 129   1 H      0.044  0.956  0.000  0.000     2.400     2.423
 130   1 H      0.040  0.960  0.000  0.000     2.447     2.446
 131   7 N     -0.195  1.250  3.945  0.000    25.222     7.459
 132   6 C      0.015  1.063  2.922  0.000    20.324     6.420
 133   6 C      0.276  1.040  2.684  0.000    22.338     7.739
 134   8 O     -0.510  1.763  4.747  0.000    24.000     6.568
 135   6 C     -0.124  1.066  3.059  0.000    22.878     6.809
 136   6 C      0.279  1.038  2.683  0.000    22.276     7.728
 137   8 O     -0.466  1.732  4.734  0.000    23.040     6.436
 138   7 N     -0.257  1.256  4.001  0.000    26.666     7.669
 139   1 H      0.219  0.781  0.000  0.000     1.013     1.577
 140   1 H      0.085  0.915  0.000  0.000     1.925     2.170
 141   1 H      0.107  0.893  0.000  0.000     1.725     2.054
 142   1 H      0.092  0.908  0.000  0.000     1.857     2.131
 143   1 H      0.245  0.755  0.000  0.000     0.905     1.490
 144   1 H      0.238  0.762  0.000  0.000     0.931     1.511
 145   7 N     -0.211  1.268  3.942  0.000    25.585     7.512
 146   6 C      0.002  1.067  2.931  0.000    20.554     6.456
 147   6 C      0.263  1.043  2.693  0.000    22.556     7.777
 148   8 O     -0.486  1.758  4.728  0.000    23.474     6.496
 149   6 C      0.061  1.043  2.896  0.000    19.772     6.371
 150   8 O     -0.449  1.699  4.751  0.000    21.831     6.307
 151   1 H      0.251  0.749  0.000  0.000     0.881     1.470
 152   1 H      0.064  0.936  0.000  0.000     2.152     2.294
 153   1 H      0.082  0.918  0.000  0.000     1.960     2.189
 154   1 H      0.044  0.956  0.000  0.000     2.391     2.418
 155   1 H      0.320  0.680  0.000  0.000     0.663     1.279
 156   7 N     -0.182  1.246  3.936  0.000    24.951     7.419
 157   6 C      0.007  1.064  2.929  0.000    20.470     6.443
 158   6 C      0.274  1.042  2.684  0.000    22.362     7.744
 159   8 O     -0.469  1.733  4.736  0.000    23.119     6.447
 160   6 C     -0.150  1.048  3.102  0.000    23.445     6.903
 161   1 H      0.234  0.766  0.000  0.000     0.949     1.526
 162   1 H      0.095  0.905  0.000  0.000     1.835     2.119
 163   1 H      0.090  0.910  0.000  0.000     1.881     2.145
 164   1 H      0.092  0.908  0.000  0.000     1.864     2.135
 165   1 H      0.075  0.925  0.000  0.000     2.036     2.231
 166   7 N     -0.168  1.234  3.934  0.000    24.641     7.372
 167   6 C      0.002  1.068  2.930  0.000    20.556     6.456
 168   6 C      0.269  1.044  2.687  0.000    22.464     7.761
 169   8 O     -0.467  1.750  4.717  0.000    23.057     6.438
 170   6 C     -0.083  1.053  3.030  0.000    22.081     6.690
 171   6 C     -0.086  1.057  3.029  0.000    22.132     6.698
 172   6 C     -0.105  1.054  3.050  0.000    22.495     6.752
 173   6 C     -0.051  1.059  2.992  0.000    21.594     6.634
 174   7 N     -0.139  1.227  3.912  0.000    24.000     7.276
 175   1 H      0.196  0.804  0.000  0.000     1.129     1.664
 176   1 H      0.099  0.901  0.000  0.000     1.796     2.096
 177   1 H      0.074  0.926  0.000  0.000     2.043     2.235
 178   1 H      0.071  0.929  0.000  0.000     2.073     2.252
 179   1 H      0.062  0.938  0.000  0.000     2.173     2.305
 180   1 H      0.058  0.942  0.000  0.000     2.223     2.331
 181   1 H      0.091  0.909  0.000  0.000     1.874     2.141
 182   1 H      0.086  0.914  0.000  0.000     1.918     2.166
 183   1 H      0.121  0.879  0.000  0.000     1.608     1.983
 184   1 H      0.107  0.893  0.000  0.000     1.723     2.052
 185   1 H      0.293  0.707  0.000  0.000     0.735     1.343
 186   1 H      0.286  0.714  0.000  0.000     0.756     1.362
 187   1 H      0.299  0.701  0.000  0.000     0.716     1.326
 188   7 N     -0.188  1.253  3.935  0.000    25.076     7.437
 189   6 C      0.048  1.054  2.898  0.000    19.781     6.334
 190   6 C      0.222  1.081  2.696  0.000    23.316     7.908
 191   8 O     -0.383  1.756  4.627  0.000    21.347     6.195
 192   6 C     -0.106  1.074  3.032  0.000    22.523     6.757
 193   6 C      0.375  1.021  2.604  0.000    20.655     7.437
 194   8 O     -0.636  1.771  4.866  0.000    27.029     6.970
 195   8 O     -0.635  1.774  4.861  0.000    26.982     6.964
 196   1 H      0.214  0.786  0.000  0.000     1.039     1.597
 197   1 H      0.059  0.941  0.000  0.000     2.215     2.327
 198   1 H      0.045  0.955  0.000  0.000     2.382     2.414
 199   1 H      0.050  0.950  0.000  0.000     2.324     2.384
 200   7 N     -0.396  1.312  4.084  0.000    30.266     8.171
 201   6 C      0.038  1.052  2.910  0.000    19.951     6.362
 202   6 C      0.198  1.093  2.709  0.000    23.788     7.987
 203   8 O     -0.394  1.768  4.627  0.000    21.571     6.227
 204   6 C     -0.069  1.056  3.014  0.000    21.825     6.651
 205   6 C     -0.110  1.062  3.048  0.000    22.601     6.768
 206   6 C      0.292  1.037  2.672  0.000    22.056     7.690
 207   8 O     -0.496  1.752  4.743  0.000    23.686     6.525
 208   7 N     -0.265  1.253  4.012  0.000    26.865     7.698
 209   1 H      0.175  0.825  0.000  0.000     1.242     1.746
 210   1 H      0.061  0.939  0.000  0.000     2.186     2.312
 211   1 H      0.079  0.921  0.000  0.000     1.994     2.208
 212   1 H      0.047  0.953  0.000  0.000     2.355     2.400
 213   1 H      0.089  0.911  0.000  0.000     1.894     2.152
 214   1 H      0.085  0.915  0.000  0.000     1.928     2.171
 215   1 H      0.209  0.791  0.000  0.000     1.063     1.615
 216   1 H      0.195  0.805  0.000  0.000     1.132     1.667
 217   7 N     -0.396  1.324  4.072  0.000    30.253     8.169
 218   6 C      0.022  1.066  2.912  0.000    20.212     6.402
 219   6 C      0.277  1.049  2.674  0.000    22.309     7.735
 220   8 O     -0.471  1.733  4.738  0.000    23.153     6.451
 221   6 C     -0.025  1.068  2.958  0.000    20.985     6.515
 222   6 C     -0.058  1.050  3.009  0.000    21.621     6.620
 223   6 C     -0.131  1.043  3.089  0.000    23.075     6.849
 224   6 C     -0.107  1.036  3.071  0.000    22.607     6.781
 225   1 H      0.138  0.862  0.000  0.000     1.482     1.907
 226   1 H      0.063  0.937  0.000  0.000     2.170     2.304
 227   1 H      0.013  0.987  0.000  0.000     2.841     2.636
 228   1 H      0.045  0.955  0.000  0.000     2.384     2.414
 229   1 H      0.025  0.975  0.000  0.000     2.662     2.551
 230   1 H      0.062  0.938  0.000  0.000     2.172     2.305
 231   1 H      0.044  0.956  0.000  0.000     2.398     2.422
 232   1 H      0.060  0.940  0.000  0.000     2.203     2.321
 233   1 H      0.038  0.962  0.000  0.000     2.476     2.461
 234   1 H      0.023  0.977  0.000  0.000     2.688     2.564
 235   1 H      0.053  0.947  0.000  0.000     2.283     2.363
 236   7 N     -0.172  1.251  3.920  0.000    24.715     7.384
 237   6 C      0.028  1.061  2.911  0.000    20.097     6.383
 238   6 C      0.280  1.042  2.678  0.000    22.270     7.728
 239   8 O     -0.510  1.751  4.758  0.000    23.997     6.568
 240   6 C     -0.037  1.045  2.992  0.000    21.216     6.556
 241   6 C     -0.094  1.066  3.028  0.000    22.295     6.723
 242   6 C      0.370  1.025  2.605  0.000    20.720     7.449
 243   8 O     -0.650  1.778  4.872  0.000    27.376     7.015
 244   8 O     -0.664  1.775  4.889  0.000    27.751     7.063
 245   1 H      0.185  0.815  0.000  0.000     1.187     1.707
 246   1 H      0.066  0.934  0.000  0.000     2.129     2.282
 247   1 H      0.020  0.980  0.000  0.000     2.733     2.585
 248   1 H      0.030  0.970  0.000  0.000     2.589     2.516
 249   1 H      0.040  0.960  0.000  0.000     2.455     2.450
 250   1 H      0.038  0.962  0.000  0.000     2.476     2.461
 251   7 N     -0.188  1.255  3.934  0.000    25.081     7.438
 252   6 C      0.040  1.056  2.904  0.000    19.918     6.356
 253   6 C      0.206  1.085  2.709  0.000    23.630     7.961
 254   8 O     -0.389  1.764  4.625  0.000    21.465     6.212
 255   6 C     -0.111  1.073  3.038  0.000    22.622     6.771
 256   6 C      0.370  1.023  2.607  0.000    20.725     7.450
 257   8 O     -0.600  1.756  4.845  0.000    26.130     6.853
 258   8 O     -0.614  1.772  4.842  0.000    26.465     6.897
 259   1 H      0.227  0.773  0.000  0.000     0.977     1.548
 260   1 H      0.083  0.917  0.000  0.000     1.951     2.184
 261   1 H      0.054  0.946  0.000  0.000     2.271     2.357
 262   1 H      0.080  0.920  0.000  0.000     1.981     2.201
 263   1 H      0.168  0.832  0.000  0.000     1.286     1.776
 264   1 H      0.086  0.914  0.000  0.000     1.915     2.164
 265   1 H      0.192  0.808  0.000  0.000     1.146     1.677
 266   1 H      0.073  0.927  0.000  0.000     2.053     2.240
 267   1 H      0.184  0.816  0.000  0.000     1.190     1.708
 268   1 H      0.080  0.920  0.000  0.000     1.979     2.200
 269   1 H      0.188  0.812  0.000  0.000     1.168     1.693
 270   1 H      0.074  0.926  0.000  0.000     2.044     2.235

 Mol. C6AA /au·bohr⁶  :     669830.702182
 Mol. C8AA /au·bohr⁸  :   14715519.318429
 Mol. α(0) /au        :       1215.384807

 
molecular dipole:
                 x           y           z       tot (Debye)
 q only:     -220.280    -118.518    -285.877
   full:     -220.666    -117.034    -285.260     963.755
molecular quadrupole (traceless):
                xx          xy          yy          xz          yz          zz
 q only:      119.798  -39334.912   50384.508  -94424.993  -50770.814  -50504.306
  q+dip:     -435.050  -38919.298   50631.987  -94393.669  -49998.812  -50196.937
   full:     -434.724  -38918.443   50631.175  -94393.455  -49996.691  -50196.451
speedup 13.14
cpu  time for grad   24.00 s
wall time for grad    1.83 s

SCC energy    :    -438.3340451
rep           :       4.9157271
ES            :       1.9123203
AES           :      -0.0904939
AXC           :       0.1179579
disp          :      -0.3147621
XB            :       0.0000000
fix           :       0.0000000
Gborn         :       0.0000000
Gsasa         :       0.0000000
Ghb           :       0.0000000
Gshift        :       0.0000000
Gsolv         :      -0.6182736     -387.97
Etot ala COSMO:    -438.3340451
grad norm     :       0.4454711
total E       :    -433.3971582
atomizationE  :      75.7569297    47538.19
(atE without considering molecular charge,
 total energy contains solvation terms)
H-L gap (eV)  :          1.5613

------------------------------------------------------------------------
 * finished run on 2019/02/13 at 00:18:14.247     
------------------------------------------------------------------------
 total:
 * wall-time:     0 d,  0 h,  0 min,  2.047 sec
 *  cpu-time:     0 d,  0 h,  0 min, 27.168 sec
 * ratio c/w:    13.271 speedup
 SCF:
 * wall-time:     0 d,  0 h,  0 min,  1.919 sec
 *  cpu-time:     0 d,  0 h,  0 min, 25.481 sec
 * ratio c/w:    13.276 speedup

