      -----------------------------------------------------------      
     |                   =====================                   |     
     |                           x T B                           |     
     |                   =====================                   |     
     |                         S. Grimme                         |     
     |          Mulliken Center for Theoretical Chemistry        |     
     |                    University of Bonn                     |     
     |                 Version 6.0.1 (SAW181210)                 |     
      -----------------------------------------------------------      

   This program is distributed in the hope that it will be useful,
   but WITHOUT ANY WARRANTY; without even the implied warranty of
   MERCHANTABILITY or FITNESS FOR A PARTICULAR PURPOSE.
   
   FOR NON-COMMERCIAL, ACADEMIA USE ONLY.
   
   Cite this work as:
   S. Grimme, C. Bannwarth, P. Shushkov, J. Comput. Theory Chem., 2017,
   13, 1989-2009.
   C. Bannwarth, S. Ehlert and S. Grimme., ChemRxiv, 2018, preprint.
   http://doi.org/10.26434/chemrxiv.7246238.v1
   
   for sTDA-xTB:
   S. Grimme and C. Bannwarth, J. Chem. Phys., 2016, 145, 054103.
   
   in the mass-spec context:
   V. Asgeirsson, C. Bauer and S. Grimme, Chem. Sci., 2017, 8, 4879.
   
   if GBSA is used:
   P. Shushkov, F. März and S. Grimme, unpublished.
   
   for ANC optimizer:
   S. Grimme, unpublished.
   Rational Function algorithm used in ANCopt:
   F. Eckert, P. Pulay, H.-J. Werner, J. Comput. Chem., 1997, 18, 1473.
   
   with help from (in alphabetical order)
   C. Bannwarth, F. Bohle, G. Brandenburg, E. Caldeweyher, M. Checinski,
   S. Dohm, S. Ehlert, S. Ehrlich, F. März, H. Neugebauer, J. Pisarek,
   P. Pracht, P. Shushkov, and S. Spicher.
   
 * started run on 2019/03/07 at 11:37:46.165     
========================================================================
 # omp threads = 1
========================================================================
number of atoms            : 614
number of electrons        : 1698
charge                     : 0
spin                       : .0
first test random number   : .6334
           ------------------------------------------------- 
          |                 G F N 2 - x T B                 |
          | Geometry, Frequencies, Noncovalent interactions |
          |            JCTC 2018 parametrisation            |
           ------------------------------------------------- 
 
      method parameters     
 k(s)        :  1.8500
 k(p)        :  2.2300
 k(d)        :  2.2300
 k(f)        :  2.0000
 kEN (H0ij)  : -2.0000
 D4 a1       :  0.5200
 D4 a2       :  5.0000
 D4 s6       :  1.0000
 D4 s8       :  2.7000
 D4 s9       :  5.0000
 alphaj      :  2.0000

 Solvent             : h2o
 Using internal parameter file: .param_gbsa2_h2o
 Gsolv ref. state (COSMO-RS): gsolv [1 M gas/solution]
 temperature (mdtemp)       :    298.150000000000     
 dielectric constant        :    80.2000000000000     
 rho                        :    1.00000000000000     
 mass                       :    18.0000000000000     
 surface tension            :    15.5689454083859     
 probe radius               :   0.975313790000000     
 vdW radii scaling          :    1.00000000000000     
 Gshift (Eh)                :   1.857443126794793E-003
 c1                         :    1.55243817000000     
 soset                      :   0.130326360000000     
 HB correction              :  T

            Z     q(EN)     CN     RAES       Cart. coordinates
     1  N   5.0   -0.23    3.23    1.96   314.84535   139.25768   168.72040
     2  C   4.0    0.03    4.34    4.27   315.37447   137.69488   170.96729
     3  C   4.0    0.17    3.41    3.08   315.31778   139.34272   173.37858
     4  O   6.0   -0.28    1.29    1.80   314.01765   138.74557   175.21161
     5  C   4.0   -0.05    4.35    4.29   317.92371   136.29459   170.69328
     6  C   4.0   -0.04    4.31    4.22   318.10891   134.39353   168.51442
     7  C   4.0    0.17    3.30    3.05   320.75641   133.47701   168.05144
     8  O   6.0   -0.29    1.21    1.80   321.81844   133.98346   166.05211
     9  N   5.0   -0.23    3.24    1.97   321.88458   132.28082   169.95628
    10  H   1.0    0.11    1.08    1.44   315.85257   139.00824   167.46940
    11  H   1.0    0.05    1.12    1.45   314.06489   136.42121   171.11468
    12  H   1.0    0.05    1.09    1.44   319.24841   137.54370   170.48163
    13  H   1.0    0.06    1.09    1.44   318.26764   135.41020   172.26175
    14  H   1.0    0.05    1.09    1.44   317.03176   132.95545   168.87914
    15  H   1.0    0.06    1.10    1.44   317.46640   135.17021   166.98374
    16  H   1.0    0.12    1.09    1.44   321.06066   131.96901   171.32066
    17  H   1.0    0.13    1.09    1.44   323.43793   131.82161   169.82211
    18  N   5.0   -0.15    3.49    2.07   316.63303   141.48756   173.27464
    19  C   4.0    0.05    4.36    4.32   316.76342   143.28091   175.34200
    20  C   4.0    0.11    3.28    3.05   314.12537   143.88373   176.34356
    21  O   6.0   -0.28    1.14    1.80   313.55845   143.55114   178.56965
    22  C   4.0    0.02    4.25    4.10   318.04844   145.73378   174.47840
    23  O   6.0   -0.27    2.10    1.84   316.66138   146.83738   172.45828
    24  H   1.0    0.10    1.14    1.45   317.48719   141.93921   171.96884
    25  H   1.0    0.07    1.13    1.45   317.75175   142.51935   176.68560
    26  H   1.0    0.05    1.07    1.44   318.15426   146.91107   175.88057
    27  H   1.0    0.05    1.07    1.44   319.76620   145.38418   173.93983
    28  H   1.0    0.14    1.08    1.44   317.37380   148.17908   171.99719
    29  N   5.0   -0.21    3.29    1.98   311.48164   138.82305   179.65436
    30  C   4.0    0.05    4.32    4.23   312.60414   138.64541   182.13368
    31  C   4.0    0.09    3.22    3.04   311.34180   140.43498   183.98561
    32  O   6.0   -0.27    1.12    1.80   310.99787   139.75468   186.17580
    33  C   4.0   -0.03    4.34    4.27   315.47085   139.15186   182.07510
    34  C   4.0    0.26    3.14    3.03   316.89948   137.36229   180.27608
    35  O   6.0   -0.29    1.23    1.80   316.41571   135.10218   180.38946
    36  O   6.0   -0.27    1.17    1.80   318.44717   138.25991   178.72650
    37  H   1.0    0.15    1.12    1.45   312.47185   139.42776   178.51674
    38  H   1.0    0.06    1.13    1.45   312.33957   136.92198   182.69870
    39  H   1.0    0.07    1.09    1.44   315.76565   140.88663   181.56109
    40  H   1.0    0.06    1.09    1.44   316.14926   138.97234   183.76829
    41  N   5.0   -0.21    3.29    1.98   308.65272   127.24848   178.53186
    42  C   4.0    0.03    4.42    4.41   310.99976   128.30294   177.62290
    43  C   4.0    0.15    3.45    3.09   311.98431   126.67022   175.47617
    44  O   6.0   -0.28    1.23    1.80   310.79000   124.77482   174.76941
    45  C   4.0   -0.05    4.42    4.42   313.01799   128.38042   179.69026
    46  C   4.0   -0.04    4.33    4.25   312.26587   129.98858   181.94848
    47  C   4.0    0.17    3.30    3.05   314.29166   130.06228   183.97994
    48  O   6.0   -0.28    1.21    1.80   314.87748   128.11586   185.11566
    49  N   5.0   -0.22    3.26    1.97   315.27621   132.27515   184.53930
    50  H   1.0    0.11    1.09    1.44   308.82657   126.33007   179.86034
    51  H   1.0    0.05    1.12    1.45   310.66528   130.01692   177.06732
    52  H   1.0    0.06    1.09    1.44   313.36003   126.67211   180.25907
    53  H   1.0    0.06    1.10    1.44   314.57701   129.03238   178.98161
    54  H   1.0    0.05    1.10    1.44   311.91439   131.69689   181.38346
    55  H   1.0    0.05    1.09    1.44   310.71252   129.33095   182.66658
    56  H   1.0    0.12    1.11    1.45   314.82645   133.59796   183.70971
    57  H   1.0    0.14    1.09    1.44   316.37036   132.39987   185.73549
    58  N   5.0   -0.16    3.55    2.11   314.23686   127.34674   174.56532
    59  C   4.0    0.03    4.46    4.48   315.55400   126.00504   172.53954
    60  C   4.0    0.16    3.47    3.10   318.36024   126.26582   173.22551
    61  O   6.0   -0.28    1.27    1.80   319.14637   128.27838   174.07589
    62  C   4.0   -0.04    4.41    4.39   314.96818   127.16722   169.96951
    63  C   4.0   -0.03    4.34    4.28   312.22619   127.05950   169.18527
    64  C   4.0    0.16    3.31    3.05   311.68384   128.53538   166.83635
    65  O   6.0   -0.28    1.22    1.80   313.43562   129.24025   165.42283
    66  N   5.0   -0.24    3.22    1.96   309.25365   129.02104   166.33746
    67  H   1.0    0.11    1.15    1.45   315.05889   128.63176   175.12468
    68  H   1.0    0.05    1.12    1.45   315.03810   124.25137   172.40159
    69  H   1.0    0.06    1.10    1.44   315.50298   128.92088   169.98463
    70  H   1.0    0.06    1.10    1.44   315.97352   126.31117   168.69773
    71  H   1.0    0.05    1.10    1.44   311.74620   125.31151   168.92071
    72  H   1.0    0.06    1.10    1.44   311.18495   127.70012   170.55155
    73  H   1.0    0.11    1.09    1.44   308.09714   128.50514   167.35602
    74  H   1.0    0.12    1.08    1.44   308.84925   129.84874   164.99953
    75  N   5.0   -0.14    3.47    2.06   319.81344   124.22114   173.04221
    76  C   4.0    0.04    4.47    4.50   322.51008   124.28539   173.72818
    77  C   4.0    0.16    3.42    3.09   324.05399   126.08063   172.07089
    78  O   6.0   -0.27    1.22    1.80   323.28676   126.66833   169.91282
    79  C   4.0   -0.05    4.41    4.39   323.54187   121.58119   173.55621
    80  C   4.0   -0.05    4.34    4.27   322.45339   119.77650   175.43460
    81  C   4.0   -0.06    4.33    4.25   322.77464   117.04396   174.59556
    82  C   4.0   -0.04    4.30    4.21   320.86980   115.35643   175.83144
    83  N   5.0   -0.17    4.13    3.24   321.36491   112.66357   175.22673
    84  H   1.0    0.09    1.13    1.45   319.28432   122.77361   172.52631
    85  H   1.0    0.06    1.13    1.45   322.66315   124.93545   175.43460
    86  H   1.0    0.05    1.10    1.44   323.22251   120.93679   171.87058
    87  H   1.0    0.06    1.10    1.44   325.36168   121.63221   173.77542
    88  H   1.0    0.06    1.09    1.44   323.26786   120.01838   177.05787
    89  H   1.0    0.06    1.10    1.44   320.67138   120.13933   175.67081
    90  H   1.0    0.04    1.10    1.44   322.60079   116.93624   172.77386
    91  H   1.0    0.05    1.09    1.44   324.46595   116.46948   175.00941
    92  H   1.0    0.05    1.09    1.44   320.91704   115.60021   177.64747
    93  H   1.0    0.05    1.09    1.44   319.18605   115.81374   175.27208
    94  H   1.0    0.07    1.09    1.44   320.21217   111.69792   175.97884
    95  H   1.0    0.07    1.09    1.44   321.28365   112.43869   173.56188
    96  H   1.0    0.07    1.09    1.44   322.89747   112.23838   175.77475
    97  N   5.0   -0.15    3.53    2.10   326.20260   126.98014   173.07622
    98  C   4.0    0.04    4.45    4.46   327.92792   128.61475   171.67593
    99  C   4.0    0.16    3.46    3.10   329.92158   126.86675   170.53454
   100  O   6.0   -0.29    1.27    1.80   329.78741   124.57829   170.81422
   101  C   4.0   -0.04    4.39    4.37   329.31309   130.43077   173.49952
   102  C   4.0   -0.01    3.52    3.12   327.96950   132.91198   174.19305
   103  C   4.0   -0.04    3.48    3.10   326.56921   133.15576   176.44938
   104  C   4.0   -0.04    3.49    3.11   328.15658   135.01903   172.64347
   105  C   4.0   -0.04    3.44    3.09   325.35412   135.42343   177.07299
   106  C   4.0   -0.05    3.46    3.10   326.97361   137.31316   173.23874
   107  C   4.0    0.07    3.49    3.11   325.57521   137.49268   175.45350
   108  O   6.0   -0.26    2.14    1.85   324.36768   139.72823   176.01852
   109  H   1.0    0.12    1.17    1.46   326.68826   126.65132   174.59178
   110  H   1.0    0.06    1.11    1.45   327.01330   129.59363   170.42493
   111  H   1.0    0.06    1.10    1.44   329.65702   129.51993   175.05287
   112  H   1.0    0.05    1.10    1.44   330.93448   130.85407   172.75497
   113  H   1.0    0.07    1.09    1.44   326.45016   131.78571   177.54353
   114  H   1.0    0.07    1.10    1.44   329.09577   134.90565   171.16382
   115  H   1.0    0.07    1.09    1.44   324.41114   135.54815   178.55076
   116  H   1.0    0.06    1.09    1.44   327.12290   138.69644   172.16537
   117  H   1.0    0.14    1.10    1.44   324.67193   140.79592   174.88280
   118  N   5.0   -0.16    3.52    2.09   331.77730   127.94956   169.24386
   119  C   4.0    0.03    4.45    4.46   333.87867   126.54172   168.13081
   120  C   4.0    0.15    3.45    3.09   336.20870   127.40532   169.70117
   121  O   6.0   -0.30    1.27    1.80   337.09876   129.51993   169.46495
   122  C   4.0   -0.05    4.39    4.37   334.24906   127.22013   165.32645
   123  C   4.0   -0.05    4.32    4.24   336.14634   125.66867   163.92995
   124  C   4.0   -0.06    4.31    4.22   336.35232   126.56062   161.18795
   125  C   4.0   -0.04    4.29    4.18   338.55007   125.22080   159.91617
   126  N   5.0   -0.17    4.13    3.23   338.66157   125.92000   157.20063
   127  H   1.0    0.12    1.15    1.45   331.85666   129.55205   168.98307
   128  H   1.0    0.06    1.12    1.45   333.59899   124.73136   168.17805
   129  H   1.0    0.05    1.10    1.44   332.63334   127.06517   164.47419
   130  H   1.0    0.06    1.10    1.44   334.74605   128.98135   165.21685
   131  H   1.0    0.06    1.09    1.44   337.78095   125.79717   164.75009
   132  H   1.0    0.05    1.09    1.44   335.66068   123.90177   163.97530
   133  H   1.0    0.05    1.09    1.44   334.79330   126.20724   160.29033
   134  H   1.0    0.04    1.09    1.44   336.60177   128.37475   161.13315
   135  H   1.0    0.05    1.08    1.44   340.12232   125.67433   160.74387
   136  H   1.0    0.05    1.08    1.44   338.35921   123.40666   160.08624
   137  H   1.0    0.07    1.09    1.44   339.95225   125.12820   156.46931
   138  H   1.0    0.07    1.09    1.44   337.22726   125.46835   156.44474
   139  H   1.0    0.07    1.09    1.44   338.87133   127.58296   157.05701
   140  N   5.0   -0.16    3.47    2.06   337.24238   125.68189   171.18838
   141  C   4.0    0.04    4.48    4.51   339.41746   126.27905   172.78520
   142  C   4.0    0.09    3.23    3.04   341.95536   126.03149   171.38869
   143  O   6.0   -0.28    1.13    1.80   342.32197   124.27594   169.99219
   144  C   4.0   -0.03    4.37    4.34   339.44958   124.58018   175.17949
   145  C   4.0   -0.09    4.28    4.15   341.58686   125.46269   176.82733
   146  C   4.0   -0.08    4.23    4.05   336.94003   124.80506   176.64024
   147  H   1.0    0.10    1.13    1.45   336.71704   124.14744   171.30744
   148  H   1.0    0.06    1.13    1.45   339.22471   128.03649   173.26897
   149  H   1.0    0.05    1.12    1.45   339.66690   122.82463   174.69572
   150  H   1.0    0.05    1.06    1.44   341.65489   124.43467   178.34289
   151  H   1.0    0.05    1.07    1.44   343.16856   125.30962   175.91270
   152  H   1.0    0.05    1.06    1.44   341.31852   127.21635   177.29031
   153  H   1.0    0.05    1.05    1.44   336.99861   123.73170   178.12557
   154  H   1.0    0.05    1.07    1.44   336.68491   126.54550   177.15425
   155  H   1.0    0.05    1.05    1.44   335.55486   124.27972   175.56121
   156  N   5.0   -0.20    3.27    1.97   349.74670   134.75258   181.94092
   157  C   4.0    0.03    4.46    4.47   347.53950   133.95133   180.50662
   158  C   4.0    0.16    3.41    3.08   346.47558   135.86563   178.60367
   159  O   6.0   -0.28    1.26    1.80   346.84219   138.15597   178.84366
   160  C   4.0   -0.05    4.44    4.45   345.44757   133.11230   182.33021
   161  C   4.0   -0.05    4.13    3.86   346.17134   131.11863   184.28985
   162  S   6.0   -0.05    2.78    3.11   348.40688   128.82829   183.01429
   163  C   4.0   -0.08    3.97    3.57   346.40188   127.15966   180.72394
   164  H   1.0    0.11    1.08    1.44   349.43300   135.32516   183.42814
   165  H   1.0    0.04    1.16    1.46   348.13854   132.56428   179.46916
   166  H   1.0    0.05    1.09    1.44   344.83152   134.59384   183.21838
   167  H   1.0    0.05    1.10    1.44   344.04918   132.46223   181.33999
   168  H   1.0    0.04    1.13    1.45   346.90644   131.93878   185.75439
   169  H   1.0    0.05    1.13    1.45   344.66334   130.24747   184.86244
   170  H   1.0    0.05    1.09    1.44   347.38265   125.85575   179.88868
   171  H   1.0    0.04    1.09    1.44   344.98459   126.39243   181.59699
   172  H   1.0    0.04    1.09    1.44   345.77827   128.34830   179.47672
   173  N   5.0   -0.16    3.50    2.08   345.15278   134.89242   176.71772
   174  C   4.0    0.05    4.46    4.48   344.00382   136.36640   174.69572
   175  C   4.0    0.15    3.45    3.09   341.69647   134.92454   173.73384
   176  O   6.0   -0.29    1.23    1.80   341.86087   132.74380   172.90992
   177  C   4.0    0.04    4.25    4.10   345.89922   136.84261   172.54899
   178  O   6.0   -0.24    2.11    1.84   348.05162   138.08605   173.51653
   179  H   1.0    0.10    1.14    1.45   344.88632   133.29560   176.57032
   180  H   1.0    0.07    1.13    1.45   343.49360   138.00669   175.33255
   181  H   1.0    0.06    1.07    1.44   346.38488   135.25336   171.77609
   182  H   1.0    0.05    1.07    1.44   345.12065   137.86118   171.23752
   183  H   1.0    0.15    1.08    1.44   348.96813   138.57360   172.31466
   184  N   5.0   -0.15    3.53    2.10   339.50061   136.09806   174.01163
   185  C   4.0    0.04    4.53    4.58   337.12144   135.02659   173.20850
   186  C   4.0    0.16    3.43    3.09   336.04430   136.28326   170.87091
   187  O   6.0   -0.30    1.28    1.80   335.79674   138.57927   170.73863
   188  C   4.0   -0.04    4.41    4.39   335.22227   135.10785   175.38358
   189  C   4.0   -0.01    3.60    3.17   336.25217   133.88141   177.75329
   190  C   4.0   -0.05    3.51    3.12   337.46159   135.32516   179.59955
   191  C   4.0   -0.05    3.50    3.11   336.17847   131.27170   178.07644
   192  C   4.0   -0.05    3.45    3.09   338.55196   134.24991   181.70849
   193  C   4.0   -0.05    3.45    3.09   337.30096   130.11141   180.18348
   194  C   4.0    0.06    3.48    3.11   338.47259   131.61752   182.00707
   195  O   6.0   -0.28    2.13    1.84   339.57619   130.50069   184.11222
   196  H   1.0    0.12    1.16    1.46   339.35888   137.57016   174.68627
   197  H   1.0    0.07    1.15    1.45   337.45025   133.28426   172.73985
   198  H   1.0    0.05    1.10    1.44   334.78007   136.85017   175.74262
   199  H   1.0    0.04    1.09    1.44   333.68025   134.25747   174.87713
   200  H   1.0    0.06    1.10    1.44   337.53529   137.06938   179.40113
   201  H   1.0    0.05    1.10    1.44   335.36966   130.27771   176.87457
   202  H   1.0    0.06    1.09    1.44   339.33053   135.25902   182.91791
   203  H   1.0    0.07    1.09    1.44   337.26506   128.36341   180.36111
   204  H   1.0    0.14    1.09    1.44   338.63322   130.70101   185.37267
   205  N   5.0   -0.15    3.49    2.07   335.35455   134.71856   169.03977
   206  C   4.0    0.04    4.53    4.57   334.26606   135.62374   166.61714
   207  C   4.0    0.14    3.45    3.09   331.44659   135.02281   166.44139
   208  O   6.0   -0.31    1.25    1.80   330.60567   132.99324   167.24264
   209  C   4.0    0.05    4.35    4.30   335.66068   134.39353   164.41372
   210  O   6.0   -0.27    2.17    1.85   338.30630   134.82250   164.74820
   211  C   4.0   -0.08    4.22    4.03   334.81031   135.48012   161.91172
   212  H   1.0    0.12    1.15    1.45   335.49250   133.10285   169.13992
   213  H   1.0    0.07    1.14    1.45   334.46449   137.44355   166.54344
   214  H   1.0    0.05    1.11    1.45   335.29219   132.59829   164.39104
   215  H   1.0    0.14    1.08    1.44   339.10754   134.15542   163.55200
   216  H   1.0    0.05    1.06    1.44   335.72493   134.66565   160.54734
   217  H   1.0    0.06    1.06    1.44   333.01318   135.19099   161.69818
   218  H   1.0    0.06    1.06    1.44   335.14668   137.28103   161.88148
   219  N   5.0   -0.15    3.50    2.07   329.99717   136.77458   165.36047
   220  C   4.0    0.05    4.41    4.39   327.27597   136.45333   165.04488
   221  C   4.0    0.10    3.22    3.04   326.41992   136.36262   162.31612
   222  O   6.0   -0.26    1.13    1.80   327.82588   137.22245   160.62104
   223  C   4.0   -0.03    4.33    4.25   325.81332   138.43943   166.57934
   224  C   4.0    0.25    3.15    3.03   326.77519   141.13418   166.13526
   225  O   6.0   -0.27    1.21    1.80   327.41392   141.77480   163.97530
   226  O   6.0   -0.29    1.16    1.80   326.96794   142.61951   168.00986
   227  H   1.0    0.13    1.14    1.45   330.56787   138.18432   164.78977
   228  H   1.0    0.07    1.15    1.45   326.87913   134.79415   165.71574
   229  H   1.0    0.06    1.09    1.44   324.03698   138.35251   166.13904
   230  H   1.0    0.05    1.09    1.44   325.94371   138.03881   168.36324
   231  N   5.0   -0.20    3.26    1.97   331.53730   143.74389   160.55490
   232  C   4.0    0.03    4.41    4.39   332.59744   145.33882   162.54100
   233  C   4.0    0.15    3.48    3.11   333.99394   143.64185   164.35702
   234  O   6.0   -0.28    1.26    1.80   333.07365   141.59339   165.02410
   235  C   4.0   -0.05    4.38    4.35   330.51685   146.87139   163.86192
   236  C   4.0   -0.05    4.34    4.27   331.48061   148.61750   165.91416
   237  C   4.0   -0.05    4.32    4.23   329.38490   150.08581   167.16327
   238  C   4.0   -0.04    4.31    4.21   330.33732   151.41429   169.49141
   239  N   5.0   -0.17    4.12    3.21   328.33988   152.86749   170.81422
   240  H   1.0    0.13    1.08    1.44   329.92725   143.54169   160.62671
   241  H   1.0    0.04    1.13    1.45   333.75962   146.56525   161.83235
   242  H   1.0    0.05    1.09    1.44   329.62490   147.86539   162.60714
   243  H   1.0    0.08    1.10    1.44   329.29797   145.71299   164.59135
   244  H   1.0    0.05    1.10    1.44   332.36878   147.63295   167.18028
   245  H   1.0    0.04    1.09    1.44   332.69570   149.78724   165.19417
   246  H   1.0    0.05    1.09    1.44   328.70082   151.31225   165.98597
   247  H   1.0    0.05    1.10    1.44   328.01674   148.95198   167.61302
   248  H   1.0    0.04    1.09    1.44   331.04408   150.17652   170.64414
   249  H   1.0    0.05    1.09    1.44   331.69793   152.55002   169.02276
   250  H   1.0    0.07    1.09    1.44   328.99373   153.61393   172.17104
   251  H   1.0    0.07    1.09    1.44   327.71627   154.03534   169.77865
   252  H   1.0    0.07    1.09    1.44   327.10778   151.82436   171.28854
   253  N   5.0   -0.17    3.49    2.07   336.21248   144.50545   165.15071
   254  C   4.0    0.04    4.52    4.56   337.77906   143.00123   166.84012
   255  C   4.0    0.15    3.41    3.08   338.37433   144.38451   169.35535
   256  O   6.0   -0.28    1.25    1.80   339.80107   146.20621   169.33834
   257  C   4.0    0.06    4.32    4.24   340.28862   142.29825   165.50220
   258  O   6.0   -0.27    2.16    1.85   341.42057   144.48845   164.44584
   259  C   4.0   -0.07    4.18    3.97   339.75383   140.42554   163.34224
   260  H   1.0    0.10    1.13    1.45   336.83987   145.94542   164.73686
   261  H   1.0    0.07    1.14    1.45   336.82664   141.48945   167.25208
   262  H   1.0    0.06    1.10    1.44   341.41490   141.54803   166.73997
   263  H   1.0    0.17    1.10    1.44   341.39789   145.66386   165.51354
   264  H   1.0    0.06    1.05    1.44   341.32608   139.98901   162.50887
   265  H   1.0    0.06    1.06    1.44   338.98282   138.90809   164.02443
   266  H   1.0    0.06    1.05    1.44   338.61432   141.19654   162.13093
   267  N   5.0   -0.15    3.50    2.07   337.30285   143.51524   171.47751
   268  C   4.0    0.04    4.56    4.62   337.75450   144.75490   173.89069
   269  C   4.0    0.16    3.42    3.08   339.76706   143.42831   175.51019
   270  O   6.0   -0.30    1.27    1.80   339.76706   141.14363   175.79932
   271  C   4.0   -0.02    4.40    4.39   335.22416   145.03836   175.37980
   272  C   4.0   -0.05    4.33    4.26   334.08654   142.41731   175.90325
   273  C   4.0   -0.08    4.26    4.11   333.37600   146.61439   173.80754
   274  C   4.0   -0.09    4.15    3.91   331.33699   142.43053   176.72339
   275  H   1.0    0.12    1.15    1.45   336.32020   142.22266   171.54743
   276  H   1.0    0.06    1.15    1.45   338.42913   146.41597   173.51086
   277  H   1.0    0.05    1.12    1.45   335.54163   145.87550   176.98039
   278  H   1.0    0.06    1.10    1.44   334.24150   141.39874   174.38769
   279  H   1.0    0.06    1.09    1.44   335.08243   141.59528   177.20527
   280  H   1.0    0.04    1.06    1.44   331.79808   146.79958   174.72217
   281  H   1.0    0.05    1.05    1.44   334.09599   148.26979   173.49385
   282  H   1.0    0.05    1.06    1.44   333.06042   145.77346   172.20884
   283  H   1.0    0.05    1.05    1.44   330.77574   140.70899   177.01063
   284  H   1.0    0.05    1.06    1.44   331.16502   143.39618   178.27297
   285  H   1.0    0.05    1.06    1.44   330.31087   143.19587   175.41192
   286  N   5.0   -0.15    3.50    2.08   341.59442   144.91552   176.36812
   287  C   4.0    0.04    4.48    4.50   343.69769   143.98389   177.88557
   288  C   4.0    0.16    3.44    3.09   342.96069   143.45855   180.62568
   289  O   6.0   -0.28    1.24    1.80   341.24671   144.67175   181.63668
   290  C   4.0   -0.03    4.36    4.30   345.88788   145.91141   177.82510
   291  C   4.0    0.26    3.15    3.03   346.80251   146.50100   175.16815
   292  O   6.0   -0.25    1.18    1.80   348.14421   144.93253   174.06266
   293  O   6.0   -0.26    1.18    1.80   346.13921   148.52112   174.16092
   294  H   1.0    0.11    1.14    1.45   341.64922   146.51423   176.08277
   295  H   1.0    0.07    1.13    1.45   344.22114   142.38896   177.14669
   296  H   1.0    0.06    1.09    1.44   345.34175   147.46476   178.63012
   297  H   1.0    0.07    1.09    1.44   347.28817   145.25945   178.81154
   298  N   5.0   -0.15    3.41    2.03   344.27594   141.67653   181.82187
   299  C   4.0    0.02    4.26    4.13   343.70147   141.03025   184.40513
   300  C   4.0    0.08    3.13    3.03   345.96536   140.99056   186.17013
   301  O   6.0   -0.26    1.12    1.80   348.00437   141.98645   185.56920
   302  H   1.0    0.13    1.15    1.45   345.49860   140.83372   181.16047
   303  H   1.0    0.06    1.11    1.44   342.47503   142.22833   185.05141
   304  H   1.0    0.04    1.09    1.44   342.90589   139.37863   184.43347
   305  N   5.0   -0.22    3.23    1.96   352.74191   130.34196   190.59587
   306  C   4.0    0.04    4.25    4.10   351.69123   127.79461   190.71492
   307  C   4.0    0.09    3.22    3.04   353.74725   125.78016   190.57508
   308  O   6.0   -0.28    1.12    1.80   355.27793   125.72914   188.83464
   309  C   4.0   -0.08    4.30    4.20   349.79583   127.39776   188.61355
   310  H   1.0    0.12    1.08    1.44   354.14031   130.45534   189.77384
   311  H   1.0    0.06    1.14    1.45   350.84841   127.62642   192.33442
   312  H   1.0    0.05    1.06    1.44   349.11553   125.69890   188.71748
   313  H   1.0    0.04    1.06    1.44   348.43334   128.61286   188.78173
   314  H   1.0    0.06    1.11    1.45   350.62164   127.62642   186.99405
   315  N   5.0   -0.23    3.26    1.97   345.88410   116.18980   187.23783
   316  C   4.0    0.03    4.42    4.41   346.59086   118.69936   188.09576
   317  C   4.0    0.15    3.45    3.10   345.61954   119.21525   190.74705
   318  O   6.0   -0.32    1.29    1.80   343.34620   118.96770   191.24594
   319  C   4.0   -0.04    4.43    4.43   345.51371   120.67790   186.31564
   320  C   4.0   -0.02    3.59    3.16   346.35653   120.40767   183.60766
   321  C   4.0   -0.05    3.50    3.11   344.75215   119.36076   181.77652
   322  C   4.0   -0.05    3.50    3.11   348.77538   121.11443   182.88012
   323  C   4.0   -0.04    3.44    3.09   345.51749   119.06029   179.26318
   324  C   4.0   -0.05    3.46    3.10   349.57662   120.83286   180.39513
   325  C   4.0    0.07    3.48    3.10   347.93634   119.82185   178.56587
   326  O   6.0   -0.26    2.13    1.84   348.76404   119.55918   176.09789
   327  H   1.0    0.11    1.08    1.44   344.27972   115.95358   187.13011
   328  H   1.0    0.04    1.13    1.45   348.42200   118.78439   188.11277
   329  H   1.0    0.05    1.10    1.44   343.68446   120.59286   186.37611
   330  H   1.0    0.04    1.10    1.44   345.99370   122.34086   186.92035
   331  H   1.0    0.06    1.10    1.44   343.13644   118.85242   182.24517
   332  H   1.0    0.06    1.10    1.44   349.87709   121.78717   184.07443
   333  H   1.0    0.06    1.09    1.44   344.42523   118.36110   178.07644
   334  H   1.0    0.06    1.09    1.44   351.20368   121.31474   179.93970
   335  H   1.0    0.14    1.10    1.44   349.77316   120.73270   175.75018
   336  N   5.0   -0.16    3.51    2.08   347.33541   119.97492   192.40812
   337  C   4.0    0.04    4.52    4.56   346.66078   120.64388   194.99515
   338  C   4.0    0.15    3.47    3.10   346.87998   123.48225   195.36932
   339  O   6.0   -0.31    1.26    1.80   348.60342   124.66711   194.37532
   340  C   4.0   -0.04    4.42    4.42   348.41066   119.36265   196.89244
   341  C   4.0   -0.01    3.62    3.18   348.50137   116.53940   196.63543
   342  C   4.0   -0.04    3.52    3.12   350.14543   115.38100   194.91578
   343  C   4.0   -0.04    3.52    3.12   346.88565   114.99738   198.06974
   344  C   4.0   -0.04    3.48    3.11   350.17189   112.81664   194.63421
   345  C   4.0   -0.05    3.50    3.11   346.93668   112.42547   197.80895
   346  C   4.0    0.07    3.53    3.13   348.55428   111.32942   196.08930
   347  O   6.0   -0.27    2.15    1.85   348.54672   108.76129   195.76805
   348  H   1.0    0.10    1.13    1.45   348.91900   120.11854   192.07175
   349  H   1.0    0.06    1.14    1.45   344.93735   120.08453   195.27294
   350  H   1.0    0.06    1.10    1.44   350.10386   120.03350   196.69024
   351  H   1.0    0.06    1.10    1.44   347.86453   119.78973   198.58941
   352  H   1.0    0.06    1.10    1.44   351.23202   116.37121   193.95391
   353  H   1.0    0.06    1.10    1.44   345.76883   115.73249   199.20924
   354  H   1.0    0.07    1.10    1.44   351.26226   112.06642   193.47770
   355  H   1.0    0.06    1.10    1.44   345.88221   111.42013   198.78972
   356  H   1.0    0.14    1.11    1.44   347.49226   108.10555   196.75827
   357  N   5.0   -0.16    3.47    2.06   345.10742   124.53294   196.81874
   358  C   4.0    0.04    4.35    4.30   345.16411   127.28249   197.24015
   359  C   4.0    0.09    3.22    3.04   347.09163   127.92311   199.26782
   360  O   6.0   -0.25    1.12    1.80   346.75526   127.38454   201.53549
   361  C   4.0    0.04    4.23    4.06   342.50149   128.25192   197.93368
   362  O   6.0   -0.24    2.09    1.84   341.48671   126.98391   200.08985
   363  H   1.0    0.13    1.14    1.45   343.89800   123.73359   197.55195
   364  H   1.0    0.04    1.13    1.45   345.67434   128.12531   195.69435
   365  H   1.0    0.05    1.07    1.44   342.57708   130.05283   198.26627
   366  H   1.0    0.04    1.07    1.44   341.37710   128.01759   196.50504
   367  H   1.0    0.17    1.10    1.44   340.25650   127.80784   200.65866
   368  N   5.0   -0.22    3.22    1.96   341.48860   118.89211   204.97668
   369  C   4.0    0.04    4.40    4.38   339.47226   119.87666   203.30428
   370  C   4.0    0.16    3.42    3.08   340.28673   119.90878   200.53772
   371  O   6.0   -0.29    1.27    1.80   341.98748   121.29962   199.84986
   372  C   4.0   -0.03    4.41    4.40   338.71070   122.57140   204.07151
   373  C   4.0    0.16    3.32    3.06   337.79607   122.75849   206.74169
   374  O   6.0   -0.29    1.24    1.80   337.05341   120.89711   207.87174
   375  N   5.0   -0.23    3.24    1.96   337.92646   125.01860   207.82072
   376  H   1.0    0.12    1.07    1.44   342.88321   119.72737   204.96157
   377  H   1.0    0.06    1.13    1.45   338.04363   118.74282   203.49136
   378  H   1.0    0.07    1.10    1.44   340.14878   123.68634   203.85041
   379  H   1.0    0.06    1.09    1.44   337.39356   123.16667   202.94334
   380  H   1.0    0.13    1.09    1.44   337.47671   125.20568   209.37219
   381  H   1.0    0.12    1.09    1.44   338.45937   126.29605   206.96846
   382  N   5.0   -0.15    3.50    2.08   339.07164   118.32519   198.99948
   383  C   4.0    0.04    4.47    4.50   339.55163   118.14756   196.26883
   384  C   4.0    0.16    3.45    3.10   337.92079   120.07697   194.86287
   385  O   6.0   -0.29    1.28    1.80   336.24083   121.26749   195.97214
   386  C   4.0   -0.06    4.41    4.39   339.01495   115.47926   195.31452
   387  C   4.0   -0.05    4.40    4.38   339.58942   115.09754   192.52717
   388  C   4.0   -0.05    4.33    4.25   338.46315   112.67680   191.48782
   389  C   4.0   -0.04    4.35    4.29   339.54785   110.41102   192.81819
   390  N   5.0   -0.16    4.18    3.39   342.29362   110.39968   192.76716
   391  H   1.0    0.12    1.16    1.45   337.92079   117.30096   199.51916
   392  H   1.0    0.06    1.13    1.45   341.31852   118.51794   195.95135
   393  H   1.0    0.04    1.09    1.44   340.00705   114.28874   196.29339
   394  H   1.0    0.05    1.10    1.44   337.24994   115.08431   195.61687
   395  H   1.0    0.06    1.13    1.45   338.93936   116.52239   191.57475
   396  H   1.0    0.06    1.10    1.44   341.40545   115.07297   192.28339
   397  H   1.0    0.04    1.09    1.44   336.64145   112.70326   191.69191
   398  H   1.0    0.05    1.09    1.44   338.79952   112.55964   189.68880
   399  H   1.0    0.04    1.09    1.44   338.97148   110.39212   194.55862
   400  H   1.0    0.04    1.09    1.44   338.91857   108.88223   192.02828
   401  H   1.0    0.07    1.09    1.44   342.83786   108.93892   192.13411
   402  H   1.0    0.07    1.11    1.45   342.84164   111.66580   191.80718
   403  H   1.0    0.07    1.09    1.44   342.88510   110.58676   194.32997
   404  N   5.0   -0.16    3.57    2.13   338.46126   120.41334   192.44024
   405  C   4.0    0.04    4.49    4.52   337.01373   122.10842   190.82642
   406  C   4.0    0.15    3.45    3.09   335.39990   120.48515   189.06708
   407  O   6.0   -0.30    1.24    1.80   336.28051   118.54062   188.10143
   408  C   4.0   -0.05    4.45    4.46   338.73716   123.87154   189.30141
   409  C   4.0   -0.03    4.32    4.24   340.16012   125.86898   190.86421
   410  C   4.0   -0.09    4.21    4.02   341.94213   127.34674   189.12188
   411  C   4.0   -0.08    4.26    4.12   338.35543   127.53571   192.22292
   412  H   1.0    0.12    1.17    1.46   339.68580   119.66123   191.68057
   413  H   1.0    0.06    1.14    1.45   335.95359   123.18557   191.86388
   414  H   1.0    0.05    1.09    1.44   339.96548   122.85108   188.40001
   415  H   1.0    0.05    1.09    1.44   337.72426   124.73136   188.03907
   416  H   1.0    0.05    1.13    1.45   341.17679   125.04884   192.15111
   417  H   1.0    0.04    1.05    1.44   342.84353   128.60908   190.09698
   418  H   1.0    0.04    1.05    1.44   343.14400   126.19401   188.35654
   419  H   1.0    0.05    1.06    1.44   340.96703   128.17255   187.80852
   420  H   1.0    0.05    1.06    1.44   339.28518   128.78104   193.19613
   421  H   1.0    0.06    1.06    1.44   337.27829   128.38987   191.00972
   422  H   1.0    0.06    1.06    1.44   337.32175   126.52660   193.35109
   423  N   5.0   -0.15    3.41    2.03   333.02262   121.22214   188.69103
   424  C   4.0    0.02    4.36    4.31   331.36722   119.74060   187.06964
   425  C   4.0    0.16    3.39    3.08   328.65547   120.71569   187.19058
   426  O   6.0   -0.30    1.32    1.80   328.12634   122.97392   186.82209
   427  H   1.0    0.13    1.15    1.45   332.34610   122.54684   189.34487
   428  H   1.0    0.06    1.09    1.44   331.97194   119.81051   185.34054
   429  H   1.0    0.05    1.10    1.44   331.41447   117.98126   187.58176
   430  N   5.0   -0.16    3.44    2.04   326.94716   118.97715   187.68758
   431  C   4.0    0.01    4.38    4.35   324.31099   119.59698   187.87466
   432  C   4.0    0.16    3.39    3.07   323.09211   119.98626   185.32731
   433  O   6.0   -0.28    1.27    1.80   324.39036   119.82752   183.40735
   434  H   1.0    0.09    1.13    1.45   327.28920   117.40678   187.92569
   435  H   1.0    0.04    1.09    1.44   323.43604   118.25527   188.76473
   436  H   1.0    0.05    1.10    1.44   324.11824   121.12009   188.87622
   437  N   5.0   -0.16    3.47    2.06   320.65815   120.64388   185.26684
   438  C   4.0    0.04    4.40    4.38   319.27109   121.00671   182.89713
   439  C   4.0    0.16    3.43    3.09   320.32934   123.07407   181.15669
   440  O   6.0   -0.30    1.25    1.80   319.60368   123.28950   178.97217
   441  C   4.0   -0.07    4.20    4.00   316.46485   121.48292   183.47916
   442  H   1.0    0.10    1.13    1.45   319.76242   120.89333   186.60099
   443  H   1.0    0.06    1.13    1.45   319.48085   119.45336   181.94659
   444  H   1.0    0.06    1.05    1.44   315.54644   121.72292   181.91069
   445  H   1.0    0.06    1.05    1.44   315.77321   120.04295   184.37678
   446  H   1.0    0.07    1.05    1.44   316.30233   122.98525   184.51851
   447  N   5.0   -0.15    3.53    2.10   321.97151   124.69168   182.18281
   448  C   4.0    0.04    4.51    4.55   323.10345   126.68156   180.67670
   449  C   4.0    0.16    3.44    3.09   325.90970   126.37542   180.04742
   450  O   6.0   -0.33    1.33    1.80   326.76763   127.19934   178.10667
   451  C   4.0   -0.03    4.33    4.25   322.51764   129.31584   181.72739
   452  C   4.0    0.25    3.16    3.03   323.25085   129.59741   184.50906
   453  O   6.0   -0.27    1.16    1.80   321.77876   130.80494   185.92258
   454  O   6.0   -0.31    1.25    1.80   325.32766   128.69034   185.23094
   455  H   1.0    0.11    1.13    1.45   322.44394   124.65955   183.73805
   456  H   1.0    0.07    1.17    1.46   322.27386   126.50014   179.05153
   457  H   1.0    0.05    1.09    1.44   323.41148   130.57250   180.73717
   458  H   1.0    0.07    1.09    1.44   320.72618   129.65788   181.53652
   459  N   5.0   -0.15    3.47    2.06   327.32321   124.98269   181.60455
   460  C   4.0    0.02    4.40    4.38   329.97072   124.60097   181.02630
   461  C   4.0    0.16    3.37    3.07   331.76218   125.75559   182.89146
   462  O   6.0   -0.30    1.23    1.80   333.96938   125.06206   182.95760
   463  H   1.0    0.13    1.13    1.45   326.79220   124.26649   182.96327
   464  H   1.0    0.06    1.09    1.44   330.29953   122.80006   180.93181
   465  H   1.0    0.06    1.11    1.45   330.31843   125.29828   179.36712
   466  N   5.0   -0.16    3.56    2.12   330.80409   127.49981   184.42969
   467  C   4.0    0.03    4.49    4.52   332.35933   128.74136   186.35532
   468  C   4.0    0.15    3.47    3.10   331.23116   128.57317   188.98204
   469  O   6.0   -0.30    1.24    1.80   332.25540   129.66355   190.77728
   470  C   4.0   -0.05    4.40    4.38   332.78074   131.52115   185.69959
   471  C   4.0   -0.05    4.34    4.27   330.45071   133.18033   185.64857
   472  C   4.0   -0.06    4.31    4.22   331.03085   135.85618   184.84732
   473  C   4.0   -0.04    4.30    4.19   328.68381   137.48134   184.65268
   474  N   5.0   -0.16    4.15    3.29   327.43848   137.79315   187.12255
   475  H   1.0    0.12    1.15    1.45   329.25640   127.99492   184.39190
   476  H   1.0    0.06    1.14    1.45   333.95615   127.84185   186.36477
   477  H   1.0    0.05    1.10    1.44   333.96182   132.22601   186.91090
   478  H   1.0    0.05    1.10    1.44   333.58576   131.60807   184.05553
   479  H   1.0    0.06    1.10    1.44   329.21861   132.45845   184.49961
   480  H   1.0    0.06    1.10    1.44   329.68537   133.19922   187.31342
   481  H   1.0    0.05    1.09    1.44   332.18926   136.61018   186.05108
   482  H   1.0    0.04    1.09    1.44   331.88501   135.82972   183.22594
   483  H   1.0    0.04    1.09    1.44   329.13357   139.12729   183.98183
   484  H   1.0    0.05    1.09    1.44   327.51029   136.72167   183.46782
   485  H   1.0    0.08    1.09    1.44   326.20260   138.92509   186.98838
   486  H   1.0    0.08    1.09    1.44   326.79598   136.31916   187.61766
   487  H   1.0    0.07    1.09    1.44   328.56287   138.32227   188.25639
   488  N   5.0   -0.14    3.58    2.14   329.18648   127.12564   189.26739
   489  C   4.0    0.04    4.58    4.64   327.98273   126.83085   191.74293
   490  C   4.0    0.16    3.55    3.14   329.72505   125.37198   193.47014
   491  O   6.0   -0.30    1.32    1.80   330.83243   123.48603   192.66512
   492  C   4.0    0.05    4.39    4.36   325.53931   125.39654   191.47837
   493  O   6.0   -0.25    2.17    1.85   323.99729   126.60975   189.59809
   494  C   4.0   -0.07    4.20    4.01   324.09367   125.28127   193.95769
   495  H   1.0    0.13    1.18    1.46   328.47027   126.30361   188.06175
   496  H   1.0    0.06    1.13    1.45   327.64257   128.49192   192.44024
   497  H   1.0    0.06    1.12    1.45   325.93993   123.67878   190.97948
   498  H   1.0    0.18    1.12    1.45   324.77208   126.63621   188.21293
   499  H   1.0    0.05    1.05    1.44   322.53654   124.34586   193.71392
   500  H   1.0    0.05    1.06    1.44   325.11790   124.44223   195.22570
   501  H   1.0    0.06    1.06    1.44   323.70250   126.98202   194.51705
   502  N   5.0   -0.16    3.50    2.08   330.07843   126.22613   195.81529
   503  C   4.0    0.04    4.56    4.61   331.69604   124.79939   197.48392
   504  C   4.0    0.16    3.46    3.10   330.30142   122.52227   198.47414
   505  O   6.0   -0.31    1.23    1.80   328.39469   122.77361   199.78561
   506  C   4.0   -0.04    4.42    4.41   332.64468   126.49826   199.64199
   507  C   4.0   -0.04    4.32    4.23   334.14134   128.73191   198.80106
   508  C   4.0    0.25    3.16    3.03   335.28085   130.13220   201.01771
   509  O   6.0   -0.27    1.17    1.80   333.90135   130.89565   202.81106
   510  O   6.0   -0.29    1.22    1.80   337.60521   130.41755   200.99314
   511  H   1.0    0.10    1.13    1.45   329.42081   127.57351   196.44079
   512  H   1.0    0.07    1.15    1.45   333.16057   124.20224   196.55795
   513  H   1.0    0.07    1.10    1.44   331.20093   127.08596   200.60764
   514  H   1.0    0.06    1.10    1.44   333.67458   125.49103   200.77582
   515  H   1.0    0.06    1.10    1.44   335.47549   128.18389   197.67100
   516  H   1.0    0.06    1.10    1.44   333.06420   129.86764   197.84675
   517  N   5.0   -0.15    3.55    2.11   331.20282   120.29806   197.70124
   518  C   4.0    0.03    4.57    4.63   330.10867   117.90000   198.47603
   519  C   4.0    0.15    3.50    3.11   331.94170   116.72081   200.32040
   520  O   6.0   -0.31    1.31    1.80   334.21126   117.09876   200.12198
   521  C   4.0   -0.02    4.36    4.31   329.62490   116.09909   196.19513
   522  C   4.0   -0.08    4.20    4.00   327.80320   117.35765   194.29595
   523  C   4.0   -0.08    4.25    4.09   332.08154   115.32620   194.94602
   524  H   1.0    0.12    1.15    1.45   332.47838   120.14878   196.70346
   525  H   1.0    0.05    1.13    1.45   328.46839   118.18346   199.24326
   526  H   1.0    0.05    1.13    1.45   328.83499   114.56653   196.81685
   527  H   1.0    0.04    1.05    1.44   327.51218   116.22570   192.88433
   528  H   1.0    0.04    1.05    1.44   326.20827   117.72048   195.12554
   529  H   1.0    0.06    1.05    1.44   328.54208   118.92045   193.68368
   530  H   1.0    0.04    1.06    1.44   331.72627   114.20937   193.53628
   531  H   1.0    0.06    1.06    1.44   332.95459   116.81908   194.33753
   532  H   1.0    0.05    1.06    1.44   333.13979   114.45503   196.16300
   533  N   5.0   -0.16    3.56    2.13   330.88723   115.28651   202.08918
   534  C   4.0    0.03    4.52    4.56   332.35177   114.05819   204.02048
   535  C   4.0    0.07    3.32    3.06   331.45982   111.33509   204.16599
   536  O   6.0   -0.30    1.17    1.80   329.19404   110.80408   203.78427
   537  C   4.0   -0.02    4.44    4.45   331.86800   115.30163   206.57350
   538  C   4.0   -0.07    4.29    4.18   329.09010   115.11644   207.27270
   539  C   4.0   -0.08    4.26    4.11   333.52340   114.13945   208.57283
   540  H   1.0    0.10    1.14    1.45   329.28853   115.00683   202.18745
   541  H   1.0    0.05    1.13    1.45   334.13756   114.17346   203.62364
   542  H   1.0    0.06    1.13    1.45   332.29508   117.07986   206.45445
   543  H   1.0    0.05    1.06    1.44   328.81420   115.91579   208.89976
   544  H   1.0    0.06    1.06    1.44   328.08099   115.96303   205.99903
   545  H   1.0    0.06    1.07    1.44   328.59878   113.35332   207.36719
   546  H   1.0    0.05    1.06    1.44   333.19459   114.94825   210.18477
   547  H   1.0    0.05    1.06    1.44   333.15868   112.34799   208.70322
   548  H   1.0    0.05    1.06    1.44   335.28463   114.37188   208.12119
   549  N   5.0   -0.22    3.25    1.97   324.15792   105.29364   201.45423
   550  C   4.0    0.04    4.30    4.20   325.46750   107.63312   200.84007
   551  C   4.0    0.09    3.25    3.04   323.65525   109.78930   201.25581
   552  O   6.0   -0.30    1.16    1.80   321.70128   110.04063   199.95379
   553  C   4.0    0.05    4.26    4.12   326.55031   107.59155   198.05651
   554  O   6.0   -0.28    2.12    1.84   327.85233   109.92536   197.52549
   555  C   4.0   -0.07    4.20    3.99   324.39414   107.26840   196.13088
   556  H   1.0    0.11    1.08    1.44   322.93905   104.89869   200.45457
   557  H   1.0    0.07    1.13    1.45   326.92448   107.84099   201.93234
   558  H   1.0    0.04    1.10    1.44   327.71249   106.18181   197.91667
   559  H   1.0    0.14    1.08    1.44   328.42492   109.88756   196.04584
   560  H   1.0    0.05    1.05    1.44   325.08767   107.24573   194.43390
   561  H   1.0    0.05    1.05    1.44   323.51730   105.69048   196.45213
   562  H   1.0    0.07    1.06    1.44   323.21684   108.66491   196.29150
   563  N   5.0   -0.21    3.27    1.97   322.65559   117.78662   203.82206
   564  C   4.0    0.03    4.21    4.02   323.62502   120.24326   202.98680
   565  C   4.0    0.09    3.22    3.04   324.87791   121.41678   205.31872
   566  O   6.0   -0.27    1.15    1.80   324.18249   120.76294   207.44278
   567  C   4.0   -0.08    4.19    3.97   321.40081   121.92134   202.08162
   568  H   1.0    0.11    1.08    1.44   321.36113   117.87166   204.80094
   569  H   1.0    0.05    1.11    1.45   324.80610   120.08453   201.59407
   570  H   1.0    0.05    1.05    1.44   322.04521   123.54650   201.52982
   571  H   1.0    0.04    1.05    1.44   320.54287   121.09931   200.68701
   572  H   1.0    0.06    1.05    1.44   320.22162   122.17078   203.46301
   573  N   5.0   -0.21    3.26    1.97   317.00531   112.36688   197.85242
   574  C   4.0    0.03    4.35    4.29   316.95240   114.57597   196.26694
   575  C   4.0    0.16    3.44    3.09   315.56912   114.10354   193.76494
   576  O   6.0   -0.27    1.23    1.80   315.80911   112.08532   192.60465
   577  C   4.0   -0.08    4.24    4.07   319.62447   115.48115   195.77372
   578  H   1.0    0.13    1.10    1.44   318.49819   111.78296   198.12454
   579  H   1.0    0.04    1.14    1.45   316.01698   115.87422   197.15889
   580  H   1.0    0.05    1.06    1.44   319.57911   116.97026   194.70413
   581  H   1.0    0.04    1.06    1.44   320.43327   115.89689   197.36487
   582  H   1.0    0.06    1.06    1.44   320.57500   114.15645   194.93468
   583  N   5.0   -0.16    3.48    2.06   314.25765   116.03295   192.87299
   584  C   4.0    0.04    4.29    4.18   312.83468   115.89500   190.48249
   585  C   4.0    0.09    3.23    3.04   314.80756   115.54918   188.36410
   586  O   6.0   -0.29    1.13    1.80   316.72185   116.87199   188.26017
   587  C   4.0   -0.08    4.19    3.97   311.33235   118.37054   190.06108
   588  H   1.0    0.09    1.13    1.45   314.15371   117.47103   193.62321
   589  H   1.0    0.05    1.11    1.45   311.63282   114.50983   190.50516
   590  H   1.0    0.05    1.05    1.44   310.40260   118.26094   188.48505
   591  H   1.0    0.05    1.05    1.44   310.15694   118.61621   191.44625
   592  H   1.0    0.06    1.05    1.44   312.49453   119.78595   189.98738
   593  H   1.0    0.10    1.07    1.44   313.27339   138.93127   168.15920
   594  H   1.0    0.07    1.05    1.44   312.80557   144.56852   175.17724
   595  H   1.0    0.11    1.08    1.44   311.00974   137.27463   179.13254
   596  H   1.0    0.07    1.04    1.44   310.79759   142.15320   183.41759
   597  H   1.0    0.10    1.08    1.44   307.57768   128.50759   178.92106
   598  H   1.0    0.06    1.04    1.44   343.30353   127.33138   171.64127
   599  H   1.0    0.10    1.09    1.44   350.80219   133.43426   182.14222
   600  H   1.0    0.07    1.04    1.43   324.73921   135.61847   161.87735
   601  H   1.0    0.10    1.08    1.44   331.87590   144.42885   159.03544
   602  H   1.0    0.05    1.04    1.43   345.83338   140.14984   187.85739
   603  H   1.0    0.10    1.09    1.44   351.63225   131.37855   189.82991
   604  H   1.0    0.06    1.05    1.44   353.86995   124.46021   191.92184
   605  H   1.0    0.10    1.08    1.44   346.53543   115.91423   185.69109
   606  H   1.0    0.06    1.04    1.44   348.69555   128.80680   198.80134
   607  H   1.0    0.12    1.08    1.44   340.94413   118.90022   206.58791
   608  H   1.0    0.05    1.04    1.43   332.68978   109.95822   204.56911
   609  H   1.0    0.10    1.08    1.44   325.25879   103.99804   201.40893
   610  H   1.0    0.06    1.04    1.44   324.00138   111.06803   202.60345
   611  H   1.0    0.09    1.08    1.44   322.19186   116.86888   202.46734
   612  H   1.0    0.06    1.04    1.43   326.24763   122.70174   205.10943
   613  H   1.0    0.10    1.08    1.44   316.32910   112.73939   199.36785
   614  H   1.0    0.06    1.04    1.43   314.54730   114.22946   187.03683

  Z AO/shell   Hii/eV     exponent
  1     Wed Apr 25 08:07:45 CEST 2018   EN: 2.200 GM2: 0.406  GM3: 0.0800  RAES: 1.40
     1s    -10.707211    1.230000
  6     Wed Apr 25 08:07:45 CEST 2018   EN: 2.550 GM2: 0.538  GM3: 0.1500  RAES: 3.00
     2s    -13.970922    2.096432
     2p    -10.063292    1.800000
  7     Wed Apr 25 08:07:45 CEST 2018   EN: 3.040 GM2: 0.461  GM3:-0.0640  RAES: 1.90
     2s    -16.686243    2.339881
     2p    -12.523956    2.014332
  8     Wed Apr 25 08:07:45 CEST 2018   EN: 3.440 GM2: 0.452  GM3:-0.0517  RAES: 1.80
     2s    -20.229985    2.439742
     2p    -15.503117    2.137023
 16     Tue Apr 24 11:44:34 CEST 2018   EN: 2.580 GM2: 0.340  GM3:-0.0502  RAES: 3.10
     3s    -20.029654    1.981333
     3p    -11.377694    2.025643
     3d     -0.420282    1.702555
 no old-style atom pair restraining (fixing) potential

molecular fragmentation (1/2 indicates fragments):
111111111111111111111111111122222222222222222222222222222222222222222222
222222222222222222222222222222222222222222222222222222222222222222222222
222222222222222222222222222222222222222222222222222222222222222222222222
222222222222222222222222222222222222222222222222222222222222222222222222
222222222222222222222222222222222222222222222222222222222222222222222222
222222222222222222222222222222222222222222222222222222222222222222222222
222222222222222222222222222222222222222222222222222222222222222222222222
222222222222222222222222222222222222222222222222222222222222222222222222
22222222222222221122222222222222222222
# atoms in fragment 1/2:    30   584
 fragment masses (1/2) :      217.22     4090.64
CMA distance (Bohr)    :  22.470
constraining FC (au)   :  0.0500
           ------------------------------------------------- 
          |        Self-Consistent Charge Iterations        |
           ------------------------------------------------- 

 Ncao       : 1523
 Nao        : 1522
 Nshell     : 916
 Nel        : 1698
 T(el)      :   500.0
 intcut     :    35.0
 scfconv/Eh :  0.100E-06
   qconv/e  :  0.100E-04
 intneglect :  0.100E-08
 broydamp   :      0.400
 iter      E             dE          RMSdq      gap      omega  full diag
   1   -982.1995428 -0.982200E+03  0.479E+00    2.67       0.0  T
   2   -984.6793400 -0.247980E+01  0.225E+00    1.33       1.0  T
   3   -984.8207754 -0.141435E+00  0.129E+00    1.74       1.0  T
   4   -984.9738721 -0.153097E+00  0.283E-01    1.27       1.0  T
   5   -984.9860775 -0.122054E-01  0.136E-01    1.43       1.0  T
   6   -984.9881617 -0.208418E-02  0.636E-02    1.40       1.0  T
   7   -984.9887076 -0.545835E-03  0.258E-02    1.40       1.0  T
   8   -984.9887871 -0.795904E-04  0.136E-02    1.40       1.0  T
   9   -984.9888155 -0.283583E-04  0.609E-03    1.40       1.0  T
  10   -984.9888206 -0.507769E-05  0.270E-03    1.40       1.5  T
  11   -984.9888215 -0.940800E-06  0.123E-03    1.40       3.3  T
  12   -984.9888217 -0.148769E-06  0.648E-04    1.40       6.2  T
  13   -984.9888217 -0.622096E-07  0.295E-04    1.39      13.7  T
  14   -984.9888217 -0.989485E-08  0.145E-04    1.39      27.8  T
  15   -984.9888217 -0.256682E-08  0.636E-05    1.39      63.5  T
  16   -984.9888217 -0.507612E-09  0.287E-05    1.39     140.4  T
speedup  1.00
cpu  time for SCC   20.43 s
wall time for SCC   20.43 s

   *** convergence criteria satisfied after 16 iterations ***

          eigenvalues
 #    :         837        838        839        840        841        842        843        844
 occ. :        2.000      2.000      2.000      2.000      2.000      2.000      2.000      2.000
 eps  :       -10.039    -10.029     -9.974     -9.936     -9.915     -9.884     -9.850     -9.841
 #    :         845        846        847        848        849        850        851        852
 occ. :        2.000      2.000      2.000      2.000      2.000      0.000      0.000      0.000
 eps  :        -9.798     -9.796     -9.677     -9.651     -9.603     -8.208     -8.101     -8.082
 #    :         853        854        855        856        857        858        859        860
 occ. :        0.000      0.000      0.000      0.000      0.000      0.000      0.000      0.000
 eps  :        -8.054     -7.947     -7.820     -7.786     -7.741     -7.741     -7.617     -7.616


   #   Z            q   n(s)   n(p)   n(d)      C6AA      α(0)
   1   7 N     -0.422  1.285  4.137  0.000    31.005     8.270
   2   6 C      0.020  1.041  2.938  0.000    20.247     6.409
   3   6 C      0.273  1.049  2.678  0.000    22.386     7.747
   4   8 O     -0.505  1.761  4.745  0.000    23.905     6.555
   5   6 C     -0.082  1.006  3.075  0.000    22.047     6.683
   6   6 C     -0.112  1.008  3.104  0.000    22.625     6.770
   7   6 C      0.288  1.034  2.678  0.000    22.120     7.701
   8   8 O     -0.498  1.746  4.752  0.000    23.741     6.533
   9   7 N     -0.278  1.185  4.093  0.000    27.184     7.743
  10   1 H      0.193  0.807  0.000  0.000     1.144     1.676
  11   1 H      0.059  0.941  0.000  0.000     2.205     2.322
  12   1 H      0.058  0.942  0.000  0.000     2.226     2.333
  13   1 H      0.050  0.950  0.000  0.000     2.323     2.383
  14   1 H      0.072  0.928  0.000  0.000     2.058     2.243
  15   1 H      0.085  0.915  0.000  0.000     1.924     2.169
  16   1 H      0.215  0.785  0.000  0.000     1.034     1.593
  17   1 H      0.217  0.783  0.000  0.000     1.021     1.583
  18   7 N     -0.171  1.204  3.966  0.000    24.691     7.380
  19   6 C      0.019  1.034  2.947  0.000    20.263     6.410
  20   6 C      0.207  1.083  2.710  0.000    23.608     7.957
  21   8 O     -0.363  1.759  4.604  0.000    20.951     6.137
  22   6 C      0.051  1.000  2.949  0.000    19.895     6.383
  23   8 O     -0.502  1.686  4.816  0.000    22.934     6.465
  24   1 H      0.235  0.765  0.000  0.000     0.943     1.521
  25   1 H      0.099  0.901  0.000  0.000     1.795     2.095
  26   1 H      0.077  0.923  0.000  0.000     2.008     2.216
  27   1 H      0.078  0.922  0.000  0.000     2.004     2.213
  28   1 H      0.364  0.636  0.000  0.000     0.556     1.171
  29   7 N     -0.414  1.272  4.142  0.000    30.768     8.238
  30   6 C      0.049  1.026  2.925  0.000    19.769     6.332
  31   6 C      0.195  1.094  2.711  0.000    23.834     7.995
  32   8 O     -0.394  1.752  4.642  0.000    21.565     6.226
  33   6 C     -0.114  1.024  3.090  0.000    22.668     6.777
  34   6 C      0.378  1.018  2.604  0.000    20.605     7.429
  35   8 O     -0.631  1.756  4.875  0.000    26.897     6.953
  36   8 O     -0.642  1.772  4.871  0.000    27.183     6.990
  37   1 H      0.191  0.809  0.000  0.000     1.153     1.682
  38   1 H      0.050  0.950  0.000  0.000     2.320     2.382
  39   1 H      0.054  0.946  0.000  0.000     2.270     2.356
  40   1 H      0.038  0.962  0.000  0.000     2.472     2.458
  41   7 N     -0.401  1.277  4.124  0.000    30.406     8.189
  42   6 C      0.024  1.029  2.947  0.000    20.175     6.396
  43   6 C      0.260  1.050  2.691  0.000    22.627     7.790
  44   8 O     -0.469  1.744  4.725  0.000    23.112     6.446
  45   6 C     -0.075  1.003  3.072  0.000    21.916     6.662
  46   6 C     -0.108  1.007  3.101  0.000    22.538     6.756
  47   6 C      0.287  1.037  2.676  0.000    22.135     7.703
  48   8 O     -0.518  1.744  4.774  0.000    24.190     6.594
  49   7 N     -0.286  1.195  4.091  0.000    27.381     7.772
  50   1 H      0.191  0.809  0.000  0.000     1.152     1.681
  51   1 H      0.050  0.950  0.000  0.000     2.319     2.381
  52   1 H      0.065  0.935  0.000  0.000     2.144     2.290
  53   1 H      0.039  0.961  0.000  0.000     2.467     2.456
  54   1 H      0.050  0.950  0.000  0.000     2.316     2.380
  55   1 H      0.087  0.913  0.000  0.000     1.904     2.158
  56   1 H      0.221  0.779  0.000  0.000     1.005     1.570
  57   1 H      0.226  0.774  0.000  0.000     0.984     1.553
  58   7 N     -0.188  1.206  3.982  0.000    25.076     7.437
  59   6 C      0.006  1.042  2.952  0.000    20.480     6.444
  60   6 C      0.274  1.042  2.685  0.000    22.376     7.747
  61   8 O     -0.522  1.762  4.761  0.000    24.286     6.607
  62   6 C     -0.078  1.000  3.078  0.000    21.977     6.672
  63   6 C     -0.119  1.007  3.113  0.000    22.763     6.790
  64   6 C      0.281  1.040  2.679  0.000    22.244     7.723
  65   8 O     -0.521  1.769  4.753  0.000    24.259     6.604
  66   7 N     -0.308  1.200  4.108  0.000    27.927     7.849
  67   1 H      0.197  0.803  0.000  0.000     1.122     1.659
  68   1 H      0.103  0.897  0.000  0.000     1.758     2.073
  69   1 H      0.052  0.948  0.000  0.000     2.292     2.367
  70   1 H      0.085  0.915  0.000  0.000     1.930     2.172
  71   1 H      0.109  0.891  0.000  0.000     1.705     2.042
  72   1 H      0.079  0.921  0.000  0.000     1.993     2.207
  73   1 H      0.239  0.761  0.000  0.000     0.926     1.507
  74   1 H      0.242  0.758  0.000  0.000     0.915     1.498
  75   7 N     -0.172  1.212  3.960  0.000    24.725     7.385
  76   6 C      0.012  1.040  2.948  0.000    20.369     6.426
  77   6 C      0.269  1.049  2.683  0.000    22.464     7.761
  78   8 O     -0.515  1.763  4.752  0.000    24.119     6.584
  79   6 C     -0.107  1.010  3.097  0.000    22.517     6.753
  80   6 C     -0.102  1.002  3.100  0.000    22.434     6.741
  81   6 C     -0.125  1.009  3.116  0.000    22.872     6.806
  82   6 C     -0.075  1.015  3.060  0.000    21.995     6.690
  83   7 N     -0.143  1.146  3.997  0.000    24.093     7.290
  84   1 H      0.242  0.758  0.000  0.000     0.916     1.499
  85   1 H      0.077  0.923  0.000  0.000     2.006     2.215
  86   1 H      0.092  0.908  0.000  0.000     1.859     2.132
  87   1 H      0.086  0.914  0.000  0.000     1.920     2.167
  88   1 H      0.068  0.932  0.000  0.000     2.102     2.267
  89   1 H      0.076  0.924  0.000  0.000     2.020     2.222
  90   1 H      0.098  0.902  0.000  0.000     1.802     2.099
  91   1 H      0.104  0.896  0.000  0.000     1.752     2.070
  92   1 H      0.125  0.875  0.000  0.000     1.576     1.963
  93   1 H      0.130  0.870  0.000  0.000     1.534     1.936
  94   1 H      0.298  0.702  0.000  0.000     0.719     1.328
  95   1 H      0.296  0.704  0.000  0.000     0.725     1.334
  96   1 H      0.297  0.703  0.000  0.000     0.723     1.332
  97   7 N     -0.179  1.210  3.968  0.000    24.868     7.406
  98   6 C      0.016  1.040  2.944  0.000    20.319     6.419
  99   6 C      0.268  1.041  2.691  0.000    22.478     7.764
 100   8 O     -0.471  1.732  4.739  0.000    23.141     6.450
 101   6 C     -0.107  1.016  3.091  0.000    22.527     6.755
 102   6 C     -0.013  1.088  2.924  0.000    28.331     8.730
 103   6 C     -0.060  1.065  2.994  0.000    29.484     8.905
 104   6 C     -0.062  1.059  3.003  0.000    29.542     8.913
 105   6 C     -0.074  1.053  3.021  0.000    29.844     8.958
 106   6 C     -0.090  1.055  3.036  0.000    30.271     9.022
 107   6 C      0.139  1.050  2.811  0.000    24.968     8.189
 108   8 O     -0.441  1.681  4.761  0.000    21.668     6.284
 109   1 H      0.233  0.767  0.000  0.000     0.953     1.529
 110   1 H      0.080  0.920  0.000  0.000     1.978     2.199
 111   1 H      0.091  0.909  0.000  0.000     1.865     2.135
 112   1 H      0.075  0.925  0.000  0.000     2.036     2.231
 113   1 H      0.070  0.930  0.000  0.000     2.088     2.260
 114   1 H      0.061  0.939  0.000  0.000     2.186     2.312
 115   1 H      0.059  0.941  0.000  0.000     2.205     2.322
 116   1 H      0.063  0.937  0.000  0.000     2.169     2.303
 117   1 H      0.338  0.662  0.000  0.000     0.616     1.233
 118   7 N     -0.182  1.206  3.976  0.000    24.950     7.419
 119   6 C     -0.005  1.048  2.957  0.000    20.667     6.474
 120   6 C      0.263  1.045  2.693  0.000    22.572     7.780
 121   8 O     -0.489  1.749  4.741  0.000    23.548     6.506
 122   6 C     -0.100  1.006  3.094  0.000    22.387     6.734
 123   6 C     -0.099  1.002  3.097  0.000    22.376     6.732
 124   6 C     -0.119  1.011  3.108  0.000    22.769     6.791
 125   6 C     -0.076  1.019  3.057  0.000    22.027     6.695
 126   7 N     -0.143  1.145  3.997  0.000    24.076     7.288
 127   1 H      0.213  0.787  0.000  0.000     1.042     1.599
 128   1 H      0.104  0.896  0.000  0.000     1.745     2.066
 129   1 H      0.080  0.920  0.000  0.000     1.983     2.202
 130   1 H      0.064  0.936  0.000  0.000     2.154     2.295
 131   1 H      0.070  0.930  0.000  0.000     2.084     2.257
 132   1 H      0.084  0.916  0.000  0.000     1.935     2.175
 133   1 H      0.097  0.903  0.000  0.000     1.812     2.105
 134   1 H      0.082  0.918  0.000  0.000     1.956     2.187
 135   1 H      0.131  0.869  0.000  0.000     1.528     1.933
 136   1 H      0.138  0.862  0.000  0.000     1.473     1.898
 137   1 H      0.298  0.702  0.000  0.000     0.719     1.328
 138   1 H      0.294  0.706  0.000  0.000     0.732     1.340
 139   1 H      0.290  0.710  0.000  0.000     0.745     1.352
 140   7 N     -0.168  1.207  3.962  0.000    24.645     7.373
 141   6 C      0.001  1.046  2.953  0.000    20.564     6.456
 142   6 C      0.207  1.083  2.710  0.000    23.600     7.956
 143   8 O     -0.342  1.734  4.608  0.000    20.555     6.078
 144   6 C     -0.033  1.043  2.990  0.000    21.122     6.536
 145   6 C     -0.157  0.976  3.181  0.000    23.559     6.915
 146   6 C     -0.171  0.984  3.187  0.000    23.863     6.961
 147   1 H      0.228  0.772  0.000  0.000     0.972     1.544
 148   1 H      0.094  0.906  0.000  0.000     1.839     2.120
 149   1 H      0.081  0.919  0.000  0.000     1.964     2.191
 150   1 H      0.080  0.920  0.000  0.000     1.981     2.201
 151   1 H      0.054  0.946  0.000  0.000     2.275     2.359
 152   1 H      0.058  0.942  0.000  0.000     2.225     2.332
 153   1 H      0.083  0.917  0.000  0.000     1.953     2.185
 154   1 H      0.064  0.936  0.000  0.000     2.150     2.293
 155   1 H      0.061  0.939  0.000  0.000     2.185     2.311
 156   7 N     -0.412  1.280  4.132  0.000    30.700     8.229
 157   6 C      0.025  1.032  2.943  0.000    20.164     6.395
 158   6 C      0.268  1.048  2.684  0.000    22.479     7.764
 159   8 O     -0.499  1.759  4.740  0.000    23.767     6.536
 160   6 C     -0.089  1.007  3.082  0.000    22.157     6.696
 161   6 C     -0.033  1.022  3.011  0.000    21.158     6.548
 162  16 S     -0.224  1.923  4.255  0.045   150.606    20.655
 163   6 C     -0.092  0.995  3.097  0.000    22.309     6.734
 164   1 H      0.177  0.823  0.000  0.000     1.231     1.738
 165   1 H      0.069  0.931  0.000  0.000     2.101     2.266
 166   1 H      0.050  0.950  0.000  0.000     2.313     2.378
 167   1 H      0.059  0.941  0.000  0.000     2.215     2.327
 168   1 H      0.061  0.939  0.000  0.000     2.181     2.309
 169   1 H      0.082  0.918  0.000  0.000     1.956     2.187
 170   1 H      0.077  0.923  0.000  0.000     2.012     2.218
 171   1 H      0.079  0.921  0.000  0.000     1.990     2.206
 172   1 H      0.060  0.940  0.000  0.000     2.201     2.320
 173   7 N     -0.180  1.201  3.979  0.000    24.899     7.411
 174   6 C      0.013  1.037  2.951  0.000    20.367     6.426
 175   6 C      0.254  1.046  2.700  0.000    22.732     7.808
 176   8 O     -0.472  1.735  4.736  0.000    23.172     6.454
 177   6 C      0.072  0.989  2.939  0.000    19.561     6.330
 178   8 O     -0.497  1.686  4.811  0.000    22.831     6.450
 179   1 H      0.218  0.782  0.000  0.000     1.020     1.582
 180   1 H      0.077  0.923  0.000  0.000     2.005     2.214
 181   1 H      0.071  0.929  0.000  0.000     2.076     2.253
 182   1 H      0.040  0.960  0.000  0.000     2.451     2.448
 183   1 H      0.338  0.662  0.000  0.000     0.615     1.232
 184   7 N     -0.169  1.208  3.961  0.000    24.660     7.375
 185   6 C      0.013  1.033  2.954  0.000    20.358     6.423
 186   6 C      0.272  1.039  2.689  0.000    22.409     7.752
 187   8 O     -0.503  1.743  4.760  0.000    23.853     6.548
 188   6 C     -0.098  1.008  3.090  0.000    22.349     6.727
 189   6 C     -0.008  1.086  2.921  0.000    28.209     8.712
 190   6 C     -0.061  1.060  3.001  0.000    29.516     8.910
 191   6 C     -0.064  1.062  3.001  0.000    29.588     8.920
 192   6 C     -0.082  1.060  3.023  0.000    30.063     8.991
 193   6 C     -0.080  1.066  3.014  0.000    30.004     8.982
 194   6 C      0.124  1.057  2.819  0.000    25.271     8.239
 195   8 O     -0.455  1.662  4.793  0.000    21.941     6.323
 196   1 H      0.226  0.774  0.000  0.000     0.982     1.552
 197   1 H      0.102  0.898  0.000  0.000     1.765     2.077
 198   1 H      0.077  0.923  0.000  0.000     2.010     2.217
 199   1 H      0.075  0.925  0.000  0.000     2.028     2.227
 200   1 H      0.067  0.933  0.000  0.000     2.123     2.278
 201   1 H      0.074  0.926  0.000  0.000     2.037     2.232
 202   1 H      0.077  0.923  0.000  0.000     2.013     2.219
 203   1 H      0.102  0.898  0.000  0.000     1.764     2.077
 204   1 H      0.325  0.675  0.000  0.000     0.649     1.265
 205   7 N     -0.174  1.214  3.960  0.000    24.776     7.393
 206   6 C      0.005  1.044  2.951  0.000    20.495     6.446
 207   6 C      0.262  1.047  2.690  0.000    22.575     7.780
 208   8 O     -0.496  1.736  4.760  0.000    23.692     6.526
 209   6 C      0.106  1.022  2.872  0.000    18.915     6.207
 210   8 O     -0.509  1.698  4.811  0.000    23.078     6.485
 211   6 C     -0.175  0.982  3.193  0.000    23.947     6.974
 212   1 H      0.234  0.766  0.000  0.000     0.948     1.525
 213   1 H      0.095  0.905  0.000  0.000     1.827     2.114
 214   1 H      0.065  0.935  0.000  0.000     2.145     2.290
 215   1 H      0.359  0.641  0.000  0.000     0.567     1.183
 216   1 H      0.099  0.901  0.000  0.000     1.792     2.093
 217   1 H      0.062  0.938  0.000  0.000     2.178     2.308
 218   1 H      0.068  0.932  0.000  0.000     2.102     2.267
 219   7 N     -0.165  1.209  3.956  0.000    24.573     7.362
 220   6 C      0.036  1.030  2.933  0.000    19.968     6.363
 221   6 C      0.192  1.089  2.719  0.000    23.893     8.005
 222   8 O     -0.370  1.761  4.609  0.000    21.089     6.157
 223   6 C     -0.111  1.020  3.091  0.000    22.599     6.766
 224   6 C      0.364  1.023  2.613  0.000    20.819     7.467
 225   8 O     -0.607  1.765  4.842  0.000    26.285     6.874
 226   8 O     -0.656  1.771  4.885  0.000    27.532     7.035
 227   1 H      0.225  0.775  0.000  0.000     0.986     1.556
 228   1 H      0.104  0.896  0.000  0.000     1.748     2.067
 229   1 H      0.058  0.942  0.000  0.000     2.222     2.331
 230   1 H      0.058  0.942  0.000  0.000     2.223     2.331
 231   7 N     -0.411  1.286  4.124  0.000    30.670     8.225
 232   6 C      0.027  1.030  2.943  0.000    20.120     6.387
 233   6 C      0.276  1.045  2.680  0.000    22.339     7.740
 234   8 O     -0.500  1.757  4.742  0.000    23.775     6.537
 235   6 C     -0.092  1.009  3.083  0.000    22.239     6.711
 236   6 C     -0.092  1.000  3.091  0.000    22.230     6.710
 237   6 C     -0.110  1.003  3.107  0.000    22.584     6.763
 238   6 C     -0.071  1.014  3.057  0.000    21.923     6.678
 239   7 N     -0.144  1.146  3.998  0.000    24.099     7.291
 240   1 H      0.181  0.819  0.000  0.000     1.209     1.722
 241   1 H      0.050  0.950  0.000  0.000     2.324     2.384
 242   1 H      0.062  0.938  0.000  0.000     2.178     2.308
 243   1 H      0.070  0.930  0.000  0.000     2.086     2.258
 244   1 H      0.043  0.957  0.000  0.000     2.404     2.425
 245   1 H      0.065  0.935  0.000  0.000     2.138     2.287
 246   1 H      0.094  0.906  0.000  0.000     1.841     2.122
 247   1 H      0.082  0.918  0.000  0.000     1.955     2.186
 248   1 H      0.115  0.885  0.000  0.000     1.652     2.010
 249   1 H      0.131  0.869  0.000  0.000     1.524     1.930
 250   1 H      0.300  0.700  0.000  0.000     0.712     1.322
 251   1 H      0.298  0.702  0.000  0.000     0.720     1.329
 252   1 H      0.291  0.709  0.000  0.000     0.740     1.348
 253   7 N     -0.188  1.207  3.981  0.000    25.076     7.437
 254   6 C     -0.004  1.045  2.958  0.000    20.650     6.470
 255   6 C      0.262  1.049  2.689  0.000    22.585     7.782
 256   8 O     -0.506  1.752  4.754  0.000    23.910     6.556
 257   6 C      0.113  1.024  2.863  0.000    18.822     6.193
 258   8 O     -0.486  1.668  4.819  0.000    22.601     6.418
 259   6 C     -0.170  0.985  3.185  0.000    23.853     6.961
 260   1 H      0.216  0.784  0.000  0.000     1.028     1.588
 261   1 H      0.091  0.909  0.000  0.000     1.871     2.139
 262   1 H      0.030  0.970  0.000  0.000     2.585     2.514
 263   1 H      0.322  0.678  0.000  0.000     0.656     1.272
 264   1 H      0.088  0.912  0.000  0.000     1.895     2.152
 265   1 H      0.085  0.915  0.000  0.000     1.924     2.169
 266   1 H      0.074  0.926  0.000  0.000     2.045     2.236
 267   7 N     -0.180  1.214  3.966  0.000    24.904     7.412
 268   6 C      0.008  1.042  2.951  0.000    20.450     6.438
 269   6 C      0.273  1.043  2.684  0.000    22.386     7.748
 270   8 O     -0.493  1.727  4.766  0.000    23.634     6.518
 271   6 C     -0.039  1.046  2.993  0.000    21.231     6.553
 272   6 C     -0.088  1.002  3.086  0.000    22.166     6.701
 273   6 C     -0.164  0.980  3.184  0.000    23.717     6.940
 274   6 C     -0.154  0.976  3.178  0.000    23.525     6.913
 275   1 H      0.233  0.767  0.000  0.000     0.953     1.529
 276   1 H      0.077  0.923  0.000  0.000     2.007     2.215
 277   1 H      0.067  0.933  0.000  0.000     2.116     2.275
 278   1 H      0.052  0.948  0.000  0.000     2.294     2.368
 279   1 H      0.049  0.951  0.000  0.000     2.330     2.387
 280   1 H      0.090  0.910  0.000  0.000     1.882     2.145
 281   1 H      0.065  0.935  0.000  0.000     2.137     2.286
 282   1 H      0.056  0.944  0.000  0.000     2.251     2.346
 283   1 H      0.053  0.947  0.000  0.000     2.286     2.364
 284   1 H      0.068  0.932  0.000  0.000     2.107     2.270
 285   1 H      0.062  0.938  0.000  0.000     2.180     2.309
 286   7 N     -0.187  1.214  3.973  0.000    25.046     7.433
 287   6 C      0.034  1.033  2.932  0.000    19.999     6.367
 288   6 C      0.267  1.045  2.688  0.000    22.491     7.766
 289   8 O     -0.493  1.741  4.752  0.000    23.636     6.518
 290   6 C     -0.114  1.019  3.095  0.000    22.661     6.775
 291   6 C      0.374  1.016  2.610  0.000    20.663     7.439
 292   8 O     -0.642  1.769  4.873  0.000    27.164     6.988
 293   8 O     -0.654  1.769  4.884  0.000    27.479     7.028
 294   1 H      0.208  0.792  0.000  0.000     1.063     1.615
 295   1 H      0.075  0.925  0.000  0.000     2.035     2.231
 296   1 H      0.050  0.950  0.000  0.000     2.316     2.380
 297   1 H      0.055  0.945  0.000  0.000     2.261     2.351
 298   7 N     -0.165  1.197  3.967  0.000    24.562     7.361
 299   6 C     -0.042  1.004  3.038  0.000    21.368     6.590
 300   6 C      0.188  1.085  2.727  0.000    23.974     8.018
 301   8 O     -0.375  1.773  4.602  0.000    21.192     6.172
 302   1 H      0.223  0.777  0.000  0.000     0.996     1.563
 303   1 H      0.145  0.855  0.000  0.000     1.425     1.866
 304   1 H      0.119  0.881  0.000  0.000     1.618     1.989
 305   7 N     -0.421  1.294  4.127  0.000    30.954     8.263
 306   6 C      0.026  1.031  2.943  0.000    20.145     6.392
 307   6 C      0.200  1.089  2.711  0.000    23.741     7.980
 308   8 O     -0.384  1.758  4.626  0.000    21.368     6.198
 309   6 C     -0.146  0.980  3.166  0.000    23.340     6.884
 310   1 H      0.179  0.821  0.000  0.000     1.219     1.729
 311   1 H      0.085  0.915  0.000  0.000     1.931     2.173
 312   1 H      0.064  0.936  0.000  0.000     2.155     2.295
 313   1 H      0.068  0.932  0.000  0.000     2.110     2.271
 314   1 H      0.078  0.922  0.000  0.000     1.999     2.211
 315   7 N     -0.405  1.275  4.130  0.000    30.515     8.204
 316   6 C      0.022  1.032  2.946  0.000    20.207     6.401
 317   6 C      0.258  1.049  2.693  0.000    22.651     7.794
 318   8 O     -0.489  1.737  4.752  0.000    23.540     6.505
 319   6 C     -0.093  1.005  3.088  0.000    22.255     6.713
 320   6 C     -0.008  1.084  2.924  0.000    28.220     8.713
 321   6 C     -0.064  1.063  3.001  0.000    29.599     8.922
 322   6 C     -0.058  1.059  2.999  0.000    29.431     8.897
 323   6 C     -0.078  1.057  3.020  0.000    29.940     8.973
 324   6 C     -0.089  1.058  3.031  0.000    30.234     9.017
 325   6 C      0.131  1.054  2.815  0.000    25.118     8.213
 326   8 O     -0.465  1.682  4.784  0.000    22.158     6.355
 327   1 H      0.194  0.806  0.000  0.000     1.136     1.670
 328   1 H      0.056  0.944  0.000  0.000     2.247     2.344
 329   1 H      0.069  0.931  0.000  0.000     2.092     2.262
 330   1 H      0.049  0.951  0.000  0.000     2.329     2.386
 331   1 H      0.080  0.920  0.000  0.000     1.973     2.196
 332   1 H      0.061  0.939  0.000  0.000     2.185     2.312
 333   1 H      0.082  0.918  0.000  0.000     1.960     2.189
 334   1 H      0.059  0.941  0.000  0.000     2.207     2.323
 335   1 H      0.341  0.659  0.000  0.000     0.610     1.226
 336   7 N     -0.170  1.205  3.965  0.000    24.671     7.377
 337   6 C      0.013  1.037  2.950  0.000    20.360     6.423
 338   6 C      0.263  1.042  2.696  0.000    22.575     7.781
 339   8 O     -0.480  1.741  4.739  0.000    23.337     6.477
 340   6 C     -0.094  1.005  3.089  0.000    22.264     6.714
 341   6 C     -0.014  1.084  2.930  0.000    28.361     8.735
 342   6 C     -0.057  1.058  2.999  0.000    29.408     8.893
 343   6 C     -0.059  1.059  3.000  0.000    29.474     8.904
 344   6 C     -0.076  1.051  3.024  0.000    29.887     8.965
 345   6 C     -0.101  1.048  3.054  0.000    30.546     9.063
 346   6 C      0.131  1.047  2.822  0.000    25.129     8.216
 347   8 O     -0.443  1.680  4.763  0.000    21.702     6.289
 348   1 H      0.212  0.788  0.000  0.000     1.046     1.602
 349   1 H      0.092  0.908  0.000  0.000     1.860     2.133
 350   1 H      0.069  0.931  0.000  0.000     2.100     2.266
 351   1 H      0.068  0.932  0.000  0.000     2.107     2.270
 352   1 H      0.065  0.935  0.000  0.000     2.141     2.288
 353   1 H      0.065  0.935  0.000  0.000     2.138     2.287
 354   1 H      0.084  0.916  0.000  0.000     1.935     2.175
 355   1 H      0.086  0.914  0.000  0.000     1.915     2.164
 356   1 H      0.356  0.644  0.000  0.000     0.574     1.190
 357   7 N     -0.170  1.213  3.958  0.000    24.686     7.379
 358   6 C      0.016  1.037  2.947  0.000    20.303     6.416
 359   6 C      0.195  1.088  2.717  0.000    23.834     7.995
 360   8 O     -0.358  1.770  4.588  0.000    20.851     6.122
 361   6 C      0.070  0.993  2.937  0.000    19.594     6.337
 362   8 O     -0.471  1.660  4.810  0.000    22.270     6.371
 363   1 H      0.234  0.766  0.000  0.000     0.948     1.525
 364   1 H      0.103  0.897  0.000  0.000     1.760     2.074
 365   1 H      0.055  0.945  0.000  0.000     2.255     2.348
 366   1 H      0.068  0.932  0.000  0.000     2.112     2.272
 367   1 H      0.308  0.692  0.000  0.000     0.697     1.311
 368   7 N     -0.410  1.278  4.132  0.000    30.663     8.224
 369   6 C      0.028  1.036  2.936  0.000    20.113     6.387
 370   6 C      0.271  1.043  2.686  0.000    22.417     7.753
 371   8 O     -0.496  1.739  4.757  0.000    23.696     6.527
 372   6 C     -0.110  1.007  3.104  0.000    22.587     6.763
 373   6 C      0.288  1.034  2.679  0.000    22.123     7.702
 374   8 O     -0.491  1.735  4.756  0.000    23.578     6.510
 375   7 N     -0.315  1.200  4.115  0.000    28.105     7.874
 376   1 H      0.182  0.818  0.000  0.000     1.203     1.718
 377   1 H      0.071  0.929  0.000  0.000     2.070     2.250
 378   1 H      0.077  0.923  0.000  0.000     2.012     2.218
 379   1 H      0.055  0.945  0.000  0.000     2.256     2.349
 380   1 H      0.242  0.758  0.000  0.000     0.916     1.499
 381   1 H      0.215  0.785  0.000  0.000     1.033     1.592
 382   7 N     -0.180  1.211  3.969  0.000    24.892     7.410
 383   6 C      0.005  1.039  2.955  0.000    20.495     6.446
 384   6 C      0.271  1.043  2.686  0.000    22.420     7.754
 385   8 O     -0.530  1.765  4.765  0.000    24.467     6.632
 386   6 C     -0.122  1.013  3.109  0.000    22.813     6.797
 387   6 C     -0.130  1.011  3.118  0.000    22.973     6.821
 388   6 C     -0.125  1.010  3.114  0.000    22.870     6.806
 389   6 C     -0.087  1.009  3.078  0.000    22.223     6.723
 390   7 N     -0.123  1.132  3.991  0.000    23.663     7.225
 391   1 H      0.236  0.764  0.000  0.000     0.941     1.519
 392   1 H      0.093  0.907  0.000  0.000     1.850     2.127
 393   1 H      0.096  0.904  0.000  0.000     1.817     2.108
 394   1 H      0.085  0.915  0.000  0.000     1.931     2.173
 395   1 H      0.088  0.912  0.000  0.000     1.897     2.154
 396   1 H      0.086  0.914  0.000  0.000     1.920     2.167
 397   1 H      0.104  0.896  0.000  0.000     1.750     2.069
 398   1 H      0.109  0.891  0.000  0.000     1.709     2.044
 399   1 H      0.131  0.869  0.000  0.000     1.527     1.932
 400   1 H      0.143  0.857  0.000  0.000     1.441     1.877
 401   1 H      0.301  0.699  0.000  0.000     0.711     1.320
 402   1 H      0.281  0.719  0.000  0.000     0.773     1.377
 403   1 H      0.272  0.728  0.000  0.000     0.802     1.403
 404   7 N     -0.182  1.212  3.970  0.000    24.934     7.416
 405   6 C      0.010  1.035  2.955  0.000    20.418     6.434
 406   6 C      0.257  1.048  2.695  0.000    22.675     7.798
 407   8 O     -0.465  1.733  4.732  0.000    23.030     6.434
 408   6 C     -0.101  1.015  3.086  0.000    22.404     6.736
 409   6 C     -0.026  1.029  2.998  0.000    21.006     6.518
 410   6 C     -0.160  0.981  3.180  0.000    23.645     6.929
 411   6 C     -0.142  0.970  3.172  0.000    23.255     6.871
 412   1 H      0.252  0.748  0.000  0.000     0.874     1.465
 413   1 H      0.071  0.929  0.000  0.000     2.069     2.249
 414   1 H      0.082  0.918  0.000  0.000     1.959     2.189
 415   1 H      0.064  0.936  0.000  0.000     2.147     2.291
 416   1 H      0.044  0.956  0.000  0.000     2.393     2.419
 417   1 H      0.054  0.946  0.000  0.000     2.267     2.354
 418   1 H      0.064  0.936  0.000  0.000     2.151     2.293
 419   1 H      0.068  0.932  0.000  0.000     2.105     2.269
 420   1 H      0.042  0.958  0.000  0.000     2.416     2.430
 421   1 H      0.054  0.946  0.000  0.000     2.268     2.355
 422   1 H      0.034  0.966  0.000  0.000     2.532     2.488
 423   7 N     -0.169  1.202  3.967  0.000    24.656     7.375
 424   6 C     -0.052  1.009  3.044  0.000    21.557     6.618
 425   6 C      0.270  1.039  2.691  0.000    22.440     7.757
 426   8 O     -0.519  1.758  4.761  0.000    24.204     6.596
 427   1 H      0.205  0.795  0.000  0.000     1.080     1.628
 428   1 H      0.117  0.883  0.000  0.000     1.634     1.999
 429   1 H      0.115  0.885  0.000  0.000     1.650     2.008
 430   7 N     -0.152  1.195  3.958  0.000    24.297     7.321
 431   6 C     -0.048  0.999  3.049  0.000    21.479     6.606
 432   6 C      0.264  1.038  2.698  0.000    22.541     7.774
 433   8 O     -0.477  1.739  4.738  0.000    23.281     6.469
 434   1 H      0.245  0.755  0.000  0.000     0.902     1.488
 435   1 H      0.118  0.882  0.000  0.000     1.630     1.997
 436   1 H      0.089  0.911  0.000  0.000     1.892     2.151
 437   7 N     -0.195  1.211  3.984  0.000    25.243     7.462
 438   6 C      0.008  1.044  2.949  0.000    20.455     6.440
 439   6 C      0.274  1.043  2.682  0.000    22.360     7.743
 440   8 O     -0.474  1.740  4.734  0.000    23.221     6.461
 441   6 C     -0.158  0.982  3.176  0.000    23.599     6.923
 442   1 H      0.219  0.781  0.000  0.000     1.015     1.578
 443   1 H      0.123  0.877  0.000  0.000     1.592     1.973
 444   1 H      0.085  0.915  0.000  0.000     1.926     2.170
 445   1 H      0.097  0.903  0.000  0.000     1.812     2.105
 446   1 H      0.065  0.935  0.000  0.000     2.140     2.287
 447   7 N     -0.195  1.206  3.990  0.000    25.243     7.462
 448   6 C      0.024  1.031  2.944  0.000    20.165     6.393
 449   6 C      0.271  1.042  2.687  0.000    22.427     7.755
 450   8 O     -0.479  1.722  4.757  0.000    23.327     6.476
 451   6 C     -0.107  1.013  3.094  0.000    22.530     6.756
 452   6 C      0.362  1.025  2.613  0.000    20.854     7.474
 453   8 O     -0.636  1.785  4.852  0.000    27.024     6.970
 454   8 O     -0.635  1.752  4.883  0.000    26.994     6.966
 455   1 H      0.193  0.807  0.000  0.000     1.143     1.674
 456   1 H      0.087  0.913  0.000  0.000     1.903     2.157
 457   1 H      0.055  0.945  0.000  0.000     2.260     2.351
 458   1 H      0.037  0.963  0.000  0.000     2.495     2.470
 459   7 N     -0.176  1.202  3.974  0.000    24.811     7.398
 460   6 C     -0.054  1.007  3.047  0.000    21.575     6.620
 461   6 C      0.272  1.034  2.694  0.000    22.404     7.751
 462   8 O     -0.470  1.733  4.736  0.000    23.128     6.448
 463   1 H      0.212  0.788  0.000  0.000     1.047     1.603
 464   1 H      0.121  0.879  0.000  0.000     1.602     1.979
 465   1 H      0.123  0.877  0.000  0.000     1.590     1.972
 466   7 N     -0.192  1.208  3.985  0.000    25.170     7.451
 467   6 C      0.009  1.038  2.953  0.000    20.418     6.433
 468   6 C      0.266  1.043  2.691  0.000    22.507     7.769
 469   8 O     -0.505  1.754  4.751  0.000    23.901     6.555
 470   6 C     -0.099  1.005  3.094  0.000    22.374     6.731
 471   6 C     -0.100  0.999  3.101  0.000    22.393     6.735
 472   6 C     -0.121  1.007  3.114  0.000    22.806     6.797
 473   6 C     -0.071  1.011  3.060  0.000    21.932     6.680
 474   7 N     -0.136  1.141  3.996  0.000    23.946     7.268
 475   1 H      0.212  0.788  0.000  0.000     1.044     1.601
 476   1 H      0.108  0.892  0.000  0.000     1.717     2.049
 477   1 H      0.086  0.914  0.000  0.000     1.922     2.168
 478   1 H      0.080  0.920  0.000  0.000     1.979     2.200
 479   1 H      0.060  0.940  0.000  0.000     2.195     2.317
 480   1 H      0.056  0.944  0.000  0.000     2.241     2.341
 481   1 H      0.103  0.897  0.000  0.000     1.761     2.075
 482   1 H      0.104  0.896  0.000  0.000     1.750     2.069
 483   1 H      0.141  0.859  0.000  0.000     1.452     1.884
 484   1 H      0.112  0.888  0.000  0.000     1.677     2.025
 485   1 H      0.293  0.707  0.000  0.000     0.734     1.342
 486   1 H      0.272  0.728  0.000  0.000     0.803     1.403
 487   1 H      0.300  0.700  0.000  0.000     0.713     1.322
 488   7 N     -0.191  1.215  3.976  0.000    25.132     7.446
 489   6 C      0.015  1.032  2.952  0.000    20.311     6.416
 490   6 C      0.265  1.044  2.691  0.000    22.529     7.774
 491   8 O     -0.485  1.731  4.755  0.000    23.460     6.494
 492   6 C      0.114  1.018  2.868  0.000    18.787     6.184
 493   8 O     -0.496  1.687  4.809  0.000    22.797     6.446
 494   6 C     -0.167  0.981  3.186  0.000    23.787     6.951
 495   1 H      0.241  0.759  0.000  0.000     0.918     1.501
 496   1 H      0.069  0.931  0.000  0.000     2.094     2.263
 497   1 H      0.053  0.947  0.000  0.000     2.278     2.360
 498   1 H      0.319  0.681  0.000  0.000     0.667     1.282
 499   1 H      0.093  0.907  0.000  0.000     1.848     2.126
 500   1 H      0.066  0.934  0.000  0.000     2.130     2.282
 501   1 H      0.071  0.929  0.000  0.000     2.075     2.252
 502   7 N     -0.181  1.211  3.970  0.000    24.917     7.414
 503   6 C      0.017  1.034  2.949  0.000    20.273     6.408
 504   6 C      0.264  1.042  2.693  0.000    22.541     7.775
 505   8 O     -0.510  1.747  4.763  0.000    23.998     6.568
 506   6 C     -0.062  0.997  3.064  0.000    21.670     6.624
 507   6 C     -0.108  1.007  3.101  0.000    22.548     6.758
 508   6 C      0.368  1.023  2.609  0.000    20.759     7.457
 509   8 O     -0.672  1.785  4.886  0.000    27.947     7.088
 510   8 O     -0.643  1.762  4.881  0.000    27.196     6.992
 511   1 H      0.209  0.791  0.000  0.000     1.060     1.613
 512   1 H      0.096  0.904  0.000  0.000     1.818     2.108
 513   1 H      0.055  0.945  0.000  0.000     2.263     2.352
 514   1 H      0.039  0.961  0.000  0.000     2.463     2.454
 515   1 H      0.046  0.954  0.000  0.000     2.367     2.406
 516   1 H      0.043  0.957  0.000  0.000     2.410     2.428
 517   7 N     -0.164  1.208  3.956  0.000    24.554     7.360
 518   6 C      0.001  1.040  2.959  0.000    20.552     6.454
 519   6 C      0.266  1.038  2.696  0.000    22.520     7.772
 520   8 O     -0.479  1.735  4.744  0.000    23.326     6.475
 521   6 C     -0.043  1.045  2.998  0.000    21.314     6.566
 522   6 C     -0.161  0.980  3.181  0.000    23.661     6.933
 523   6 C     -0.162  0.977  3.185  0.000    23.677     6.934
 524   1 H      0.234  0.766  0.000  0.000     0.948     1.525
 525   1 H      0.075  0.925  0.000  0.000     2.027     2.226
 526   1 H      0.086  0.914  0.000  0.000     1.914     2.163
 527   1 H      0.082  0.918  0.000  0.000     1.963     2.191
 528   1 H      0.053  0.947  0.000  0.000     2.276     2.359
 529   1 H      0.050  0.950  0.000  0.000     2.316     2.380
 530   1 H      0.087  0.913  0.000  0.000     1.908     2.160
 531   1 H      0.055  0.945  0.000  0.000     2.259     2.350
 532   1 H      0.070  0.930  0.000  0.000     2.088     2.259
 533   7 N     -0.171  1.199  3.972  0.000    24.695     7.381
 534   6 C      0.012  1.036  2.952  0.000    20.369     6.424
 535   6 C      0.188  1.089  2.722  0.000    23.967     8.018
 536   8 O     -0.359  1.766  4.593  0.000    20.877     6.126
 537   6 C     -0.025  1.034  2.991  0.000    20.978     6.513
 538   6 C     -0.154  0.976  3.178  0.000    23.509     6.909
 539   6 C     -0.160  0.978  3.183  0.000    23.636     6.927
 540   1 H      0.218  0.782  0.000  0.000     1.018     1.580
 541   1 H      0.108  0.892  0.000  0.000     1.717     2.049
 542   1 H      0.061  0.939  0.000  0.000     2.189     2.314
 543   1 H      0.060  0.940  0.000  0.000     2.204     2.321
 544   1 H      0.054  0.946  0.000  0.000     2.275     2.358
 545   1 H      0.070  0.930  0.000  0.000     2.087     2.259
 546   1 H      0.067  0.933  0.000  0.000     2.113     2.273
 547   1 H      0.067  0.933  0.000  0.000     2.113     2.273
 548   1 H      0.068  0.932  0.000  0.000     2.109     2.271
 549   7 N     -0.407  1.289  4.118  0.000    30.556     8.210
 550   6 C      0.017  1.038  2.945  0.000    20.311     6.420
 551   6 C      0.207  1.091  2.702  0.000    23.603     7.957
 552   8 O     -0.380  1.761  4.619  0.000    21.279     6.185
 553   6 C      0.096  1.040  2.864  0.000    19.107     6.243
 554   8 O     -0.514  1.692  4.822  0.000    23.197     6.502
 555   6 C     -0.161  0.981  3.181  0.000    23.671     6.935
 556   1 H      0.188  0.812  0.000  0.000     1.169     1.694
 557   1 H      0.094  0.906  0.000  0.000     1.837     2.119
 558   1 H      0.057  0.943  0.000  0.000     2.229     2.335
 559   1 H      0.339  0.661  0.000  0.000     0.614     1.230
 560   1 H      0.069  0.931  0.000  0.000     2.099     2.266
 561   1 H      0.060  0.940  0.000  0.000     2.197     2.318
 562   1 H      0.071  0.929  0.000  0.000     2.078     2.254
 563   7 N     -0.401  1.282  4.119  0.000    30.403     8.189
 564   6 C      0.028  1.037  2.935  0.000    20.118     6.389
 565   6 C      0.199  1.088  2.714  0.000    23.771     7.985
 566   8 O     -0.367  1.757  4.609  0.000    21.026     6.148
 567   6 C     -0.151  0.982  3.169  0.000    23.463     6.904
 568   1 H      0.189  0.811  0.000  0.000     1.163     1.689
 569   1 H      0.076  0.924  0.000  0.000     2.015     2.220
 570   1 H      0.057  0.943  0.000  0.000     2.230     2.335
 571   1 H      0.079  0.921  0.000  0.000     1.984     2.203
 572   1 H      0.063  0.937  0.000  0.000     2.165     2.301
 573   7 N     -0.415  1.279  4.136  0.000    30.783     8.240
 574   6 C      0.031  1.025  2.944  0.000    20.063     6.379
 575   6 C      0.262  1.052  2.686  0.000    22.585     7.782
 576   8 O     -0.498  1.756  4.742  0.000    23.744     6.533
 577   6 C     -0.148  0.977  3.171  0.000    23.392     6.891
 578   1 H      0.196  0.804  0.000  0.000     1.127     1.663
 579   1 H      0.042  0.958  0.000  0.000     2.428     2.436
 580   1 H      0.057  0.943  0.000  0.000     2.239     2.340
 581   1 H      0.061  0.939  0.000  0.000     2.185     2.311
 582   1 H      0.071  0.929  0.000  0.000     2.078     2.254
 583   7 N     -0.185  1.211  3.975  0.000    25.013     7.428
 584   6 C      0.017  1.043  2.939  0.000    20.297     6.416
 585   6 C      0.198  1.092  2.709  0.000    23.775     7.985
 586   8 O     -0.366  1.753  4.613  0.000    21.011     6.146
 587   6 C     -0.161  0.986  3.175  0.000    23.671     6.934
 588   1 H      0.217  0.783  0.000  0.000     1.022     1.584
 589   1 H      0.099  0.901  0.000  0.000     1.794     2.095
 590   1 H      0.088  0.912  0.000  0.000     1.895     2.152
 591   1 H      0.089  0.911  0.000  0.000     1.889     2.149
 592   1 H      0.077  0.923  0.000  0.000     2.004     2.214
 593   1 H      0.189  0.811  0.000  0.000     1.165     1.691
 594   1 H      0.089  0.911  0.000  0.000     1.888     2.148
 595   1 H      0.170  0.830  0.000  0.000     1.272     1.767
 596   1 H      0.075  0.925  0.000  0.000     2.034     2.230
 597   1 H      0.181  0.819  0.000  0.000     1.209     1.722
 598   1 H      0.070  0.930  0.000  0.000     2.081     2.256
 599   1 H      0.191  0.809  0.000  0.000     1.152     1.681
 600   1 H      0.083  0.917  0.000  0.000     1.949     2.183
 601   1 H      0.187  0.813  0.000  0.000     1.176     1.699
 602   1 H      0.104  0.896  0.000  0.000     1.748     2.068
 603   1 H      0.184  0.816  0.000  0.000     1.192     1.710
 604   1 H      0.064  0.936  0.000  0.000     2.151     2.293
 605   1 H      0.185  0.815  0.000  0.000     1.187     1.706
 606   1 H      0.092  0.908  0.000  0.000     1.856     2.130
 607   1 H      0.182  0.818  0.000  0.000     1.201     1.716
 608   1 H      0.097  0.903  0.000  0.000     1.808     2.103
 609   1 H      0.194  0.806  0.000  0.000     1.136     1.670
 610   1 H      0.072  0.928  0.000  0.000     2.064     2.247
 611   1 H      0.175  0.825  0.000  0.000     1.245     1.748
 612   1 H      0.051  0.949  0.000  0.000     2.301     2.372
 613   1 H      0.177  0.823  0.000  0.000     1.233     1.739
 614   1 H      0.089  0.911  0.000  0.000     1.885     2.147

 Mol. C6AA /au·bohr⁶  :    3487207.246518
 Mol. C8AA /au·bohr⁸  :   78209223.418466
 Mol. α(0) /au        :       2793.415441

 
molecular dipole:
                 x           y           z       tot (Debye)
 q only:        1.276     -47.479     -22.795
   full:       -0.489     -43.131     -21.819     122.866
molecular quadrupole (traceless):
                xx          xy          yy          xz          yz          zz
 q only:    10302.605  -23839.702   -7573.494  -10985.397  -17332.342   -2729.111
  q+dip:     8395.409  -22014.808   -6066.330  -10991.497  -15925.028   -2329.079
   full:     8397.392  -22017.258   -6067.801  -10991.135  -15926.490   -2329.591
speedup  1.00
cpu  time for grad   24.79 s
wall time for grad   24.79 s

SCC energy    :    -985.0104148
rep           :      20.2623063
ES            :       3.6519763
AES           :      -0.1366427
AXC           :       0.1152250
disp          :      -0.7855817
XB            :       0.0000000
fix           :       0.0000000
Gborn         :       0.0000000
Gsasa         :       0.0000000
Ghb           :       0.0000000
Gshift        :       0.0000000
Gsolv         :      -1.0089702     -633.14
Etot ala COSMO:    -985.0104148
grad norm     :       3.2330178
total E       :    -964.6672732
atomizationE  :     167.7272681   105250.45
(atE without considering molecular charge,
 total energy contains solvation terms)
H-L gap (eV)  :          1.3946

------------------------------------------------------------------------
 * finished run on 2019/03/07 at 11:38:13.031     
------------------------------------------------------------------------
 total:
 * wall-time:     0 d,  0 h,  0 min, 26.865 sec
 *  cpu-time:     0 d,  0 h,  0 min, 26.681 sec
 * ratio c/w:     0.993 speedup
 SCF:
 * wall-time:     0 d,  0 h,  0 min, 26.132 sec
 *  cpu-time:     0 d,  0 h,  0 min, 26.131 sec
 * ratio c/w:     1.000 speedup

