      -----------------------------------------------------------      
     |                   =====================                   |     
     |                           x T B                           |     
     |                   =====================                   |     
     |                         S. Grimme                         |     
     |          Mulliken Center for Theoretical Chemistry        |     
     |                    University of Bonn                     |     
     |                Version 6.1 RC1 (SAW190329)                |     
      -----------------------------------------------------------      

   This program is distributed in the hope that it will be useful,
   but WITHOUT ANY WARRANTY; without even the implied warranty of
   MERCHANTABILITY or FITNESS FOR A PARTICULAR PURPOSE.
   
   FOR NON-COMMERCIAL, ACADEMIA USE ONLY.
   
   Cite this work as:
   S. Grimme, C. Bannwarth, P. Shushkov, J. Comput. Theory Chem., 2017,
   13, 1989-2009. DOI: 10.1021/acs.jctc.7b00118
   C. Bannwarth, S. Ehlert and S. Grimme., J. Comput. Theory Chem., 2019,
   just accepted. DOI: 10.1021/acs.jctc.8b01176
   
   for sTDA-xTB:
   S. Grimme and C. Bannwarth, J. Chem. Phys., 2016, 145, 054103.
   DOI: 10.1063/1.4959605
   
   in the mass-spec context:
   V. Asgeirsson, C. Bauer and S. Grimme, Chem. Sci., 2017, 8, 4879.
   DOI: 10.1039/c7sc00601b
   
   for metadynamics refer to:
   S. Grimme, ChemRxiv, Preprint. DOI: 10.26434/chemrxiv.7660532.v1
   
   with help from (in alphabetical order)
   C. Bannwarth, F. Bohle, G. Brandenburg, E. Caldeweyher, M. Checinski,
   S. Dohm, S. Ehlert, S. Ehrlich, F. März, H. Neugebauer, J. Pisarek,
   P. Pracht, P. Shushkov, and S. Spicher.
   
 * started run on 2019/05/31 at 06:33:09.830     

           -------------------------------------------------
          |                Calculation Setup                |
           -------------------------------------------------

          program call               : /home/lum/qr/xtb-190329/bin/xtb xtb_tmp.xyz --chrg 0 --grad --gfn 2 --etemp 500 --acc 0.1 --gbsa h2o --parallel 2
          hostname                   : cu39
          coordinate file            : xtb_tmp.xyz
          omp threads                :                     2
          number of atoms            :                   523
          number of electrons        :                  1422
          charge                     :                     0
          spin                       :                   0.0
          first test random number   :      0.35794376415444


molecular fragmentation (1/2 indicates fragments):
111111111111111111111111111111111111111111111111111111111111111111111111
111111222222222222222222222222222222222222222222222222222222222222222222
222222222222222222222222222222222222222222222222222222222222222222222222
222222222222222222222222222222222222222222222222222222222222222222222222
222222222222222222222222222222222222222222222222222222222222222222222222
222222222222222222222222222222222222222222222222222222222222222222222222
222222222222222222222222222222222222222222222222222222222222222222222222
2222211222222222222
# atoms in fragment 1/2:    80   443
 fragment masses (1/2) :      532.66     3073.57
CMA distance (Bohr)    :  16.365
constraining FC (au)   :  0.0500

########################################################################
# WARNING! Please study the warnings concerning your input carefully
#  - XTBPATH is not set, using XTBHOME instead
#  - Process number higher than OMP_NUM_THREADS, I hope you know what you are doing.
########################################################################

           ------------------------------------------------- 
          |                 G F N 2 - x T B                 |
          | Geometry, Frequencies, Noncovalent interactions |
          |            JCTC 2018 parametrisation            |
           ------------------------------------------------- 
 
             k(s)              :                1.8500
             k(p)              :                2.2300
             k(d)              :                2.2300
             k(f)              :                2.0000
             kEN (H0ij)        :               -2.0000
             D4 a1             :                0.5200
             D4 a2             :                5.0000
             D4 s6             :                1.0000
             D4 s8             :                2.7000
             D4 s9             :                5.0000
             alphaj            :                2.0000

  Z AO/shell   Hii/eV     exponent
  1     Wed Apr 25 08:07:45 CEST 2018   EN: 2.200 GM2: 0.406  GM3: 0.0800  RAES: 1.40
     1s    -10.707211    1.230000
  6     Wed Apr 25 08:07:45 CEST 2018   EN: 2.550 GM2: 0.538  GM3: 0.1500  RAES: 3.00
     2s    -13.970922    2.096432
     2p    -10.063292    1.800000
  7     Wed Apr 25 08:07:45 CEST 2018   EN: 3.040 GM2: 0.461  GM3:-0.0640  RAES: 1.90
     2s    -16.686243    2.339881
     2p    -12.523956    2.014332
  8     Wed Apr 25 08:07:45 CEST 2018   EN: 3.440 GM2: 0.452  GM3:-0.0517  RAES: 1.80
     2s    -20.229985    2.439742
     2p    -15.503117    2.137023
 16     Tue Apr 24 11:44:34 CEST 2018   EN: 2.580 GM2: 0.340  GM3:-0.0502  RAES: 3.10
     3s    -20.029654    1.981333
     3p    -11.377694    2.025643
     3d     -0.420282    1.702555

 Solvent             : h2o
 Using internal parameter file: .param_gbsa2_h2o
 Gsolv ref. state (COSMO-RS): gsolv [1 M gas/solution]
 temperature (mdtemp)       :    298.150000000000     
 dielectric constant        :    80.2000000000000     
 rho                        :    1.00000000000000     
 mass                       :    18.0000000000000     
 surface tension            :    15.5689454083859     
 probe radius               :   0.975313790000000     
 vdW radii scaling          :    1.00000000000000     
 Gshift (Eh)                :   1.857443126794793E-003
 c1                         :    1.55243817000000     
 soset                      :   0.130326360000000     
 HB correction              :  T
 Number of grid points      :          230

            Z     q(EN)     CN     RAES       Cart. coordinates
     1  N   5.0   -0.73    3.00    1.93    61.30391    57.22490    54.47485
     2  C   4.0    0.07    3.98    3.59    59.54296    55.55598    53.20042
     3  C   4.0    0.28    3.00    3.02    60.67103    54.47830    50.75142
     4  O   6.0   -0.47    1.00    1.80    59.31593    53.49666    49.15375
     5  C   4.0   -0.14    3.98    3.59    56.92641    56.73391    52.83168
     6  C   4.0   -0.15    3.98    3.59    55.41006    56.57493    55.28645
     7  C   4.0   -0.03    3.98    3.59    52.91633    58.02045    55.12945
     8  N   5.0   -0.47    3.02    1.93    51.67759    57.86918    57.57519
     9  C   4.0    0.36    3.00    3.02    49.27779    58.40895    58.05531
    10  N   5.0   -0.64    3.01    1.93    47.70232    59.07536    56.20118
    11  N   5.0   -0.64    3.02    1.93    48.36575    57.95039    60.35465
    12  H   1.0    0.26    1.00    1.43    61.44912    59.04667    53.91474
    13  H   1.0    0.12    0.99    1.43    59.34915    53.88844    54.43340
    14  H   1.0    0.12    0.99    1.43    57.16196    58.70270    52.25361
    15  H   1.0    0.13    0.99    1.43    55.96926    55.68927    51.33549
    16  H   1.0    0.14    0.99    1.43    55.00609    54.60679    55.73451
    17  H   1.0    0.10    0.99    1.43    56.57646    57.34714    56.79774
    18  H   1.0    0.11    0.99    1.43    53.28981    59.98959    54.59410
    19  H   1.0    0.13    0.99    1.43    51.70963    57.16445    53.68988
    20  H   1.0    0.23    1.00    1.43    52.80578    57.57732    59.09327
    21  H   1.0    0.26    1.00    1.43    48.41300    59.81815    54.60002
    22  H   1.0    0.26    1.00    1.43    45.91420    59.55800    56.64793
    23  H   1.0    0.26    1.00    1.43    49.59933    57.57121    61.76064
    24  H   1.0    0.26    1.00    1.43    46.62875    58.56938    60.82615
    25  N   5.0   -0.48    3.01    1.93    63.19038    54.57264    50.55643
    26  C   4.0    0.07    3.99    3.60    64.63578    53.19552    48.65652
    27  C   4.0    0.28    3.03    3.02    64.57611    50.40717    49.48258
    28  O   6.0   -0.38    1.00    1.80    66.30906    49.44087    50.65976
    29  C   4.0   -0.13    3.99    3.60    67.40536    53.97463    48.55278
    30  C   4.0   -0.10    3.98    3.58    68.05280    56.46844    47.24314
    31  C   4.0   -0.21    3.98    3.59    67.48220    56.36680    44.41659
    32  C   4.0   -0.22    3.98    3.59    66.71943    58.71339    48.46600
    33  H   1.0    0.26    1.00    1.43    64.19668    55.37514    51.96242
    34  H   1.0    0.13    0.99    1.43    63.71229    53.42431    46.82409
    35  H   1.0    0.12    0.99    1.43    68.14001    53.99558    50.48591
    36  H   1.0    0.14    0.99    1.43    68.35045    52.44693    47.53405
    37  H   1.0    0.11    0.99    1.43    70.09660    56.72546    47.47440
    38  H   1.0    0.11    0.99    1.43    68.43828    57.92048    43.46692
    39  H   1.0    0.12    0.99    1.43    68.16012    54.61068    43.59185
    40  H   1.0    0.14    0.99    1.43    65.46415    56.54201    44.08049
    41  H   1.0    0.09    0.99    1.43    67.29750    60.45980    47.55004
    42  H   1.0    0.13    0.99    1.43    64.68333    58.54666    48.27748
    43  H   1.0    0.10    0.99    1.43    67.19278    58.86582    50.46382
    44  N   5.0   -0.49    3.01    1.93    62.43515    49.17336    48.92730
    45  C   4.0    0.08    4.00    3.63    62.06416    46.71260    50.07303
    46  C   4.0    0.27    3.01    3.02    64.13790    44.86558    49.24405
    47  O   6.0   -0.40    1.00    1.80    65.04178    43.37929    50.77721
    48  C   4.0   -0.14    3.99    3.60    59.36741    45.77658    49.65636
    49  C   4.0   -0.03    3.03    3.02    57.48406    47.45922    50.97132
    50  C   4.0   -0.10    3.03    3.02    55.47194    48.48663    49.63777
    51  C   4.0   -0.09    3.03    3.02    57.70548    48.00208    53.53486
    52  C   4.0   -0.09    3.03    3.02    53.65501    49.90948    50.85506
    53  C   4.0   -0.08    3.02    3.02    55.92028    49.44786    54.77013
    54  C   4.0    0.10    3.03    3.02    53.83849    50.35691    53.43756
    55  O   6.0   -0.47    1.99    1.83    52.04987    51.68305    54.67679
    56  H   1.0    0.27    1.00    1.43    60.89681    50.17058    48.34492
    57  H   1.0    0.14    0.99    1.43    62.40218    46.88976    52.11648
    58  H   1.0    0.09    0.99    1.43    58.93667    45.68596    47.64458
    59  H   1.0    0.11    0.99    1.43    59.26252    43.85667    50.40740
    60  H   1.0    0.11    1.00    1.43    55.31378    48.15182    47.63510
    61  H   1.0    0.12    0.99    1.43    59.29377    47.28221    54.59861
    62  H   1.0    0.12    1.00    1.43    52.07677    50.65546    49.80559
    63  H   1.0    0.12    1.00    1.43    56.13463    49.83827    56.75967
    64  H   1.0    0.27    0.99    1.43    50.62994    51.97344    53.55826
    65  N   5.0   -0.29    3.04    1.93    64.92888    45.00571    46.84870
    66  C   4.0    0.06    4.05    3.70    67.05409    43.55347    45.91524
    67  C   4.0    0.07    3.00    3.02    68.96517    45.40259    44.77203
    68  O   6.0   -0.40    1.00    1.80    68.57281    47.66290    44.59293
    69  C   4.0   -0.14    4.01    3.64    65.82567    42.03165    43.77886
    70  C   4.0   -0.14    4.01    3.63    64.11249    44.02729    42.55153
    71  C   4.0   -0.03    4.03    3.67    63.59128    45.98336    44.65755
    72  H   1.0    0.13    0.99    1.43    67.92003    42.41412    47.40465
    73  H   1.0    0.10    0.99    1.43    67.18243    41.20653    42.47617
    74  H   1.0    0.11    0.99    1.43    64.70944    40.50333    44.59637
    75  H   1.0    0.13    0.99    1.43    65.07138    44.91708    40.96334
    76  H   1.0    0.10    0.99    1.43    62.37247    43.18363    41.86362
    77  H   1.0    0.15    0.99    1.43    64.38198    47.82401    44.15200
    78  H   1.0    0.09    0.99    1.43    61.58870    46.17370    45.05314
    79  N   5.0   -0.72    3.00    1.93    77.44557    63.94869    51.70473
    80  C   4.0    0.07    3.98    3.58    76.82391    62.11747    49.76912
    81  C   4.0    0.07    3.00    3.02    77.80150    62.92168    47.15322
    82  O   6.0   -0.42    1.00    1.80    76.68168    62.42334    45.20060
    83  C   4.0   -0.13    3.98    3.58    74.01085    61.39020    49.70366
    84  C   4.0   -0.10    3.97    3.58    72.02348    63.51271    49.84976
    85  C   4.0   -0.23    3.98    3.59    71.62492    64.56189    52.51821
    86  C   4.0   -0.21    3.98    3.59    72.49443    65.62797    47.94455
    87  H   1.0    0.26    1.00    1.43    76.57249    65.63811    51.56766
    88  H   1.0    0.12    0.99    1.43    77.91439    60.41346    50.22543
    89  H   1.0    0.12    0.99    1.43    73.74314    60.39832    47.91256
    90  H   1.0    0.09    0.99    1.43    73.63381    60.07533    51.25008
    91  H   1.0    0.10    0.99    1.43    70.23110    62.61265    49.34204
    92  H   1.0    0.10    0.99    1.43    69.79341    65.49218    52.66055
    93  H   1.0    0.10    0.99    1.43    71.62221    63.06678    53.93241
    94  H   1.0    0.10    0.99    1.43    73.04086    65.94181    53.08022
    95  H   1.0    0.10    0.99    1.43    70.91547    66.94403    47.96141
    96  H   1.0    0.12    0.99    1.43    74.20503    66.68030    48.38395
    97  H   1.0    0.14    0.99    1.43    72.69593    64.84044    46.05922
    98  N   5.0   -0.51    3.02    1.93    73.00907    44.36596    23.06837
    99  C   4.0    0.07    4.02    3.65    70.70093    43.43054    24.22718
   100  C   4.0    0.27    3.01    3.02    71.30063    41.04771    25.76659
   101  O   6.0   -0.39    1.00    1.80    73.17857    39.75869    25.36263
   102  C   4.0   -0.13    4.01    3.64    68.95073    42.89760    21.98357
   103  C   4.0   -0.13    4.01    3.64    70.80438    42.23273    19.87732
   104  C   4.0   -0.02    4.01    3.64    72.95858    44.10037    20.33208
   105  H   1.0    0.12    0.99    1.43    69.91914    44.84493    25.52440
   106  H   1.0    0.11    0.99    1.43    67.59958    41.40475    22.40148
   107  H   1.0    0.11    0.99    1.43    67.91432    44.61784    21.52062
   108  H   1.0    0.13    0.99    1.43    71.48010    40.30436    20.14210
   109  H   1.0    0.10    0.99    1.43    69.98011    42.42658    18.00757
   110  H   1.0    0.12    0.99    1.43    74.75360    43.39558    19.62045
   111  H   1.0    0.11    0.99    1.43    72.54238    45.94546    19.48694
   112  N   5.0   -0.49    3.01    1.93    69.56035    40.50619    27.52112
   113  C   4.0    0.07    3.99    3.61    69.88760    38.53746    29.38899
   114  C   4.0    0.27    3.00    3.02    67.62545    36.72047    29.36912
   115  O   6.0   -0.46    1.00    1.80    65.66134    37.21503    28.25680
   116  C   4.0   -0.13    4.02    3.65    70.19759    39.72294    32.02663
   117  C   4.0   -0.13    3.98    3.58    72.88664    40.65814    32.48583
   118  S   6.0   -0.15    2.02    3.10    73.27264    41.72829    35.72394
   119  C   4.0   -0.20    3.98    3.58    75.09227    39.13834    37.08073
   120  H   1.0    0.28    1.00    1.43    68.08891    41.71848    27.76697
   121  H   1.0    0.14    0.99    1.43    71.59685    37.47922    28.87059
   122  H   1.0    0.14    0.99    1.43    68.88485    41.32043    32.15758
   123  H   1.0    0.12    0.99    1.43    69.68941    38.32834    33.46411
   124  H   1.0    0.11    0.99    1.43    74.27971    39.16938    32.15295
   125  H   1.0    0.13    0.99    1.43    73.34510    42.25282    31.25403
   126  H   1.0    0.11    0.99    1.43    75.60340    39.69253    38.98313
   127  H   1.0    0.11    0.99    1.43    73.96539    37.42675    37.11619
   128  H   1.0    0.11    0.99    1.43    76.77636    38.83534    35.94923
   129  N   5.0   -0.47    3.01    1.93    67.97635    34.61937    30.72009
   130  C   4.0    0.09    3.99    3.60    66.15374    32.62409    31.08621
   131  C   4.0    0.27    3.01    3.02    65.84571    32.25722    33.93325
   132  O   6.0   -0.42    1.00    1.80    67.68494    32.35558    35.33285
   133  C   4.0    0.04    3.97    3.58    67.17589    30.12864    29.86698
   134  O   6.0   -0.45    1.99    1.82    69.83727    30.26965    29.83525
   135  C   4.0   -0.21    3.98    3.59    66.11864    29.88095    27.19100
   136  H   1.0    0.27    1.00    1.43    69.70252    34.20008    31.41385
   137  H   1.0    0.12    0.99    1.43    64.36891    33.18346    30.21217
   138  H   1.0    0.11    0.99    1.43    66.52750    28.51766    31.00946
   139  H   1.0    0.25    0.99    1.43    70.64766    28.66164    30.28830
   140  H   1.0    0.11    0.99    1.43    66.82086    28.15877    26.32342
   141  H   1.0    0.10    0.99    1.43    64.06465    29.84343    27.24599
   142  H   1.0    0.13    0.99    1.43    66.75186    31.49973    26.09983
   143  N   5.0   -0.47    3.01    1.93    63.48137    31.89379    34.75755
   144  C   4.0    0.06    3.98    3.59    62.81262    31.45368    37.38300
   145  C   4.0    0.05    3.00    3.02    60.95151    29.23640    37.47344
   146  O   6.0   -0.40    1.00    1.80    60.04045    28.37211    35.52493
   147  C   4.0   -0.13    3.99    3.60    61.50102    33.78729    38.55367
   148  C   4.0   -0.02    3.02    3.02    62.84588    36.25704    38.10361
   149  C   4.0   -0.08    3.04    3.02    65.45663    36.46345    38.15067
   150  C   4.0   -0.12    3.04    3.02    61.45700    38.44885    37.69086
   151  C   4.0   -0.10    3.03    3.02    66.65182    38.73352    37.66453
   152  C   4.0   -0.09    3.03    3.02    62.62457    40.73803    37.24843
   153  C   4.0    0.09    3.03    3.02    65.24683    40.88789    37.16093
   154  O   6.0   -0.47    1.99    1.83    66.35219    43.14053    36.61990
   155  H   1.0    0.26    1.00    1.43    62.07554    31.50315    33.51764
   156  H   1.0    0.13    0.99    1.43    64.52509    30.98960    38.44288
   157  H   1.0    0.11    0.99    1.43    59.59055    33.91965    37.78502
   158  H   1.0    0.09    0.99    1.43    61.36163    33.44861    40.58545
   159  H   1.0    0.15    1.00    1.43    66.60220    34.82256    38.51044
   160  H   1.0    0.10    1.00    1.43    59.42151    38.35244    37.72999
   161  H   1.0    0.11    0.99    1.43    68.69248    38.83311    37.64126
   162  H   1.0    0.11    1.00    1.43    61.52718    42.42636    36.96032
   163  H   1.0    0.26    0.99    1.43    68.17280    42.95143    36.57325
   164  N   5.0   -0.70    3.00    1.93    54.34360    26.50459    42.44662
   165  C   4.0    0.06    3.98    3.59    52.67225    26.62056    44.61361
   166  C   4.0    0.07    3.00    3.02    51.64645    23.95593    45.04745
   167  O   6.0   -0.40    1.00    1.80    50.57468    22.81563    43.33471
   168  C   4.0   -0.08    3.98    3.59    50.42626    28.40303    44.08114
   169  C   4.0   -0.17    3.98    3.59    51.33065    31.13761    43.76449
   170  C   4.0   -0.22    3.98    3.59    48.51881    28.18468    46.23350
   171  C   4.0   -0.24    3.98    3.58    49.62096    32.66996    42.02557
   172  H   1.0    0.29    1.00    1.43    53.66674    25.51010    40.96122
   173  H   1.0    0.10    0.99    1.43    53.73936    27.27686    46.25719
   174  H   1.0    0.13    0.99    1.43    49.55164    27.75719    42.31594
   175  H   1.0    0.10    0.99    1.43    51.40853    31.99672    45.63770
   176  H   1.0    0.09    0.99    1.43    53.24299    31.14165    42.99271
   177  H   1.0    0.12    0.99    1.43    47.02678    29.58088    46.03276
   178  H   1.0    0.12    0.99    1.43    47.66958    26.31094    46.25983
   179  H   1.0    0.10    0.99    1.43    49.46189    28.47835    48.03960
   180  H   1.0    0.09    0.99    1.43    50.21576    34.63665    41.97850
   181  H   1.0    0.10    0.99    1.43    49.71080    31.91597    40.11640
   182  H   1.0    0.12    0.99    1.43    47.67461    32.58295    42.66845
   183  N   5.0   -0.68    3.00    1.93    59.03380    35.51011    24.38340
   184  C   4.0    0.08    3.98    3.59    61.09845    37.31194    24.41236
   185  C   4.0    0.28    3.01    3.02    60.18388    39.85550    25.48258
   186  O   6.0   -0.39    1.00    1.80    58.22256    40.84402    24.76303
   187  C   4.0   -0.13    3.98    3.59    62.05917    37.69999    21.71183
   188  C   4.0   -0.12    3.98    3.59    62.99775    35.23118    20.54164
   189  C   4.0    0.27    3.00    3.02    60.87875    33.56520    19.54752
   190  O   6.0   -0.41    1.00    1.80    58.70330    34.29668    19.24188
   191  N   5.0   -0.66    3.00    1.93    61.58820    31.20470    18.96062
   192  H   1.0    0.32    1.00    1.43    57.98424    35.47200    22.77765
   193  H   1.0    0.14    0.99    1.43    62.59035    36.55788    25.63062
   194  H   1.0    0.15    0.99    1.43    60.53224    38.47399    20.55782
   195  H   1.0    0.10    0.99    1.43    63.59279    39.06844    21.77771
   196  H   1.0    0.11    0.99    1.43    64.23746    35.64952    18.94737
   197  H   1.0    0.10    0.99    1.43    64.09133    34.17968    21.93683
   198  H   1.0    0.25    1.00    1.43    63.34937    30.57334    19.29217
   199  H   1.0    0.29    1.00    1.43    60.27521    29.97709    18.33151
   200  N   5.0   -0.50    3.01    1.93    61.71969    40.87668    27.21388
   201  C   4.0    0.08    4.00    3.62    61.15106    43.25414    28.42976
   202  C   4.0    0.28    3.01    3.02    63.33282    45.09397    28.01129
   203  O   6.0   -0.44    1.00    1.80    65.54847    44.39746    28.00721
   204  C   4.0   -0.08    3.98    3.58    60.60940    42.85287    31.26573
   205  C   4.0   -0.21    3.98    3.59    59.78300    45.32965    32.47963
   206  C   4.0   -0.21    3.98    3.59    58.55809    40.84390    31.56696
   207  H   1.0    0.29    1.00    1.43    63.32776    39.96014    27.70507
   208  H   1.0    0.14    0.99    1.43    59.44406    43.98029    27.50755
   209  H   1.0    0.14    0.99    1.43    62.35947    42.20686    32.16488
   210  H   1.0    0.10    0.99    1.43    59.30571    45.00002    34.44738
   211  H   1.0    0.16    0.99    1.43    61.29546    46.71649    32.39865
   212  H   1.0    0.13    0.99    1.43    58.12464    46.07797    31.52284
   213  H   1.0    0.09    0.99    1.43    57.99907    40.70758    33.53484
   214  H   1.0    0.12    0.99    1.43    56.91519    41.36256    30.44415
   215  H   1.0    0.13    0.99    1.43    59.22636    39.01131    30.92554
   216  N   5.0   -0.49    3.01    1.93    62.63355    47.48413    27.56921
   217  C   4.0    0.07    3.99    3.61    64.44048    49.51833    27.30640
   218  C   4.0    0.26    3.01    3.02    65.17941    50.51933    29.93301
   219  O   6.0   -0.41    1.00    1.80    64.38264    49.55726    31.87643
   220  C   4.0   -0.14    3.98    3.59    63.39273    51.62403    25.63394
   221  C   4.0   -0.11    3.97    3.58    62.78713    50.80824    22.94307
   222  C   4.0    0.32    2.99    3.02    60.67446    52.55104    21.81326
   223  O   6.0   -0.40    1.00    1.80    58.84672    53.02515    23.22191
   224  O   6.0   -0.37    1.00    1.80    60.98001    53.29579    19.60447
   225  H   1.0    0.26    1.00    1.43    60.80897    48.01662    27.87522
   226  H   1.0    0.13    0.99    1.43    66.16368    48.72478    26.45643
   227  H   1.0    0.13    0.99    1.43    61.64773    52.32756    26.47856
   228  H   1.0    0.12    0.99    1.43    64.75570    53.16805    25.56778
   229  H   1.0    0.12    0.99    1.43    64.44698    50.88850    21.72089
   230  H   1.0    0.13    0.99    1.43    62.04511    48.88121    22.91943
   231  N   5.0   -0.51    3.01    1.93    66.68928    52.55638    29.89718
   232  C   4.0    0.08    3.99    3.60    68.28812    53.18269    32.01496
   233  C   4.0    0.26    3.01    3.02    68.05754    55.85222    33.14018
   234  O   6.0   -0.40    1.00    1.80    69.88795    56.75873    34.25455
   235  C   4.0   -0.09    3.98    3.59    71.03015    52.70473    31.18732
   236  C   4.0    0.32    2.99    3.02    71.73668    54.14676    28.71546
   237  O   6.0   -0.43    1.00    1.80    70.32245    53.90014    26.83076
   238  O   6.0   -0.35    1.00    1.80    73.71614    55.41626    28.76213
   239  H   1.0    0.28    1.00    1.43    67.56216    53.02583    28.22880
   240  H   1.0    0.14    0.99    1.43    67.79172    51.89063    33.57601
   241  H   1.0    0.14    0.99    1.43    72.33130    53.31526    32.65929
   242  H   1.0    0.12    0.99    1.43    71.28237    50.68415    30.81024
   243  N   5.0   -0.31    3.03    1.93    65.85817    57.09209    33.06672
   244  C   4.0    0.07    4.04    3.68    65.61119    59.56388    34.24520
   245  C   4.0    0.27    3.01    3.02    64.57282    59.32738    36.94858
   246  O   6.0   -0.40    1.00    1.80    63.48034    57.45365    37.72637
   247  C   4.0   -0.13    4.01    3.63    63.64583    60.87820    32.58248
   248  C   4.0   -0.14    4.01    3.63    61.83763    58.71079    31.95681
   249  C   4.0   -0.02    4.01    3.64    63.50083    56.33754    31.88927
   250  H   1.0    0.14    0.99    1.43    67.46135    60.47963    34.26929
   251  H   1.0    0.12    0.99    1.43    62.70708    62.42175    33.56005
   252  H   1.0    0.12    0.99    1.43    64.54538    61.59397    30.87667
   253  H   1.0    0.12    0.99    1.43    60.43154    58.52487    33.44630
   254  H   1.0    0.10    0.99    1.43    60.92151    58.99143    30.13892
   255  H   1.0    0.13    0.99    1.43    62.68104    54.77202    32.96619
   256  H   1.0    0.13    0.99    1.43    63.84345    55.70510    29.95696
   257  N   5.0   -0.49    3.01    1.93    64.72493    61.49234    38.26867
   258  C   4.0    0.09    3.99    3.60    64.30705    61.60160    40.98267
   259  C   4.0    0.28    3.01    3.02    61.87665    60.25314    41.75172
   260  O   6.0   -0.48    1.00    1.80    61.83433    58.67338    43.42644
   261  C   4.0   -0.03    3.98    3.59    64.23667    64.38983    41.79253
   262  O   6.0   -0.49    1.99    1.82    66.33301    65.60547    40.69079
   263  H   1.0    0.26    1.00    1.43    65.86398    62.89774    37.64427
   264  H   1.0    0.12    0.99    1.43    65.88134    60.66628    41.95434
   265  H   1.0    0.11    0.99    1.43    62.46841    65.26234    41.14762
   266  H   1.0    0.10    0.99    1.43    64.32398    64.47203    43.85978
   267  H   1.0    0.25    0.99    1.43    66.42310    67.32167    41.29749
   268  N   5.0   -0.49    3.00    1.93    59.76332    61.05305    40.59129
   269  C   4.0    0.07    4.00    3.61    57.32555    60.01730    41.31152
   270  C   4.0    0.26    3.01    3.02    55.42219    60.05859    39.14623
   271  O   6.0   -0.42    1.00    1.80    53.17849    60.36711    39.48988
   272  C   4.0   -0.09    3.98    3.59    56.20805    61.26678    43.69669
   273  C   4.0    0.27    3.00    3.02    55.41885    59.27331    45.64090
   274  O   6.0   -0.42    1.00    1.80    53.31165    59.18405    46.56661
   275  N   5.0   -0.66    3.00    1.93    57.27028    57.65745    46.21623
   276  H   1.0    0.25    1.00    1.43    59.83205    62.39068    39.23319
   277  H   1.0    0.14    0.99    1.43    57.65514    58.00695    41.71407
   278  H   1.0    0.12    0.99    1.43    57.61678    62.50186    44.55312
   279  H   1.0    0.14    0.99    1.43    54.54983    62.38022    43.18822
   280  H   1.0    0.30    1.00    1.43    57.00556    56.15476    47.36389
   281  H   1.0    0.31    1.00    1.43    59.01939    57.84927    45.46475
   282  N   5.0   -0.46    3.01    1.93    56.43537    59.61321    36.84775
   283  C   4.0    0.09    3.99    3.61    54.80382    59.38253    34.65941
   284  C   4.0    0.27    3.01    3.02    54.54126    56.54664    34.13808
   285  O   6.0   -0.44    1.00    1.80    53.25327    55.27442    35.58125
   286  C   4.0   -0.03    3.98    3.58    55.62740    61.15549    32.51152
   287  O   6.0   -0.46    1.99    1.83    56.57956    63.36678    33.64719
   288  H   1.0    0.25    1.00    1.43    58.30024    59.25356    36.67399
   289  H   1.0    0.16    0.99    1.43    52.95878    60.01855    35.36691
   290  H   1.0    0.09    0.99    1.43    57.08389    60.30916    31.30784
   291  H   1.0    0.10    0.99    1.43    53.97779    61.54421    31.32374
   292  H   1.0    0.25    0.99    1.43    56.68892    64.68678    32.39575
   293  N   5.0   -0.51    3.00    1.93    55.93523    55.51556    32.29285
   294  C   4.0    0.08    3.99    3.60    55.65634    52.88445    31.53535
   295  C   4.0    0.31    3.01    3.02    55.29661    51.16895    33.84894
   296  O   6.0   -0.44    1.00    1.80    53.43544    49.81669    34.03102
   297  C   4.0   -0.02    3.98    3.58    57.94617    52.11070    29.90642
   298  O   6.0   -0.52    1.99    1.82    57.57799    49.79467    28.66147
   299  H   1.0    0.21    1.00    1.43    56.86431    56.63382    31.05262
   300  H   1.0    0.13    0.99    1.43    53.93982    52.65924    30.38209
   301  H   1.0    0.11    0.99    1.43    58.29891    53.62460    28.53416
   302  H   1.0    0.12    0.99    1.43    59.62981    51.87243    31.08146
   303  H   1.0    0.28    0.99    1.43    56.77963    50.10370    27.05126
   304  N   5.0   -0.48    3.00    1.93    57.06470    51.29112    35.64427
   305  C   4.0    0.07    3.99    3.61    56.94159    49.68066    37.87049
   306  C   4.0    0.31    3.01    3.02    54.22765    49.53523    38.88273
   307  O   6.0   -0.46    1.00    1.80    53.21119    47.51702    39.32431
   308  C   4.0   -0.09    3.97    3.58    58.81539    50.58537    39.94229
   309  C   4.0   -0.19    3.98    3.59    59.12705    53.45792    39.99894
   310  C   4.0   -0.22    3.98    3.59    58.00192    49.67574    42.56740
   311  H   1.0    0.24    1.00    1.43    58.70536    52.20574    35.32721
   312  H   1.0    0.11    0.99    1.43    57.43198    47.73902    37.32674
   313  H   1.0    0.11    0.99    1.43    60.65311    49.74870    39.48977
   314  H   1.0    0.13    0.99    1.43    60.07276    53.98681    41.74342
   315  H   1.0    0.14    0.99    1.43    60.31183    54.15185    38.46981
   316  H   1.0    0.13    0.99    1.43    57.29848    54.38818    39.91971
   317  H   1.0    0.10    0.99    1.43    59.56539    49.96238    43.86951
   318  H   1.0    0.12    0.99    1.43    56.39291    50.77069    43.22392
   319  H   1.0    0.10    0.99    1.43    57.49403    47.68575    42.51792
   320  N   5.0   -0.49    3.01    1.93    53.21785    51.76945    39.57000
   321  C   4.0    0.07    4.00    3.62    50.81086    51.82736    40.87359
   322  C   4.0    0.30    3.01    3.02    48.68459    50.88485    39.16811
   323  O   6.0   -0.42    1.00    1.80    47.15983    49.30252    39.87882
   324  C   4.0   -0.14    3.98    3.59    50.25599    54.50148    41.83339
   325  C   4.0   -0.15    3.98    3.58    47.90437    54.56038    43.51530
   326  C   4.0   -0.03    3.98    3.59    48.43195    53.51627    46.17477
   327  N   5.0   -0.48    3.02    1.93    46.65167    51.54240    46.84551
   328  C   4.0    0.37    3.00    3.02    45.82001    50.96110    49.14093
   329  N   5.0   -0.65    3.01    1.93    46.50714    52.29355    51.18432
   330  N   5.0   -0.65    3.02    1.93    44.31733    48.97111    49.40076
   331  H   1.0    0.29    1.00    1.43    53.66973    53.32786    38.56069
   332  H   1.0    0.13    0.99    1.43    50.95589    50.47472    42.43393
   333  H   1.0    0.13    0.99    1.43    51.88336    55.19730    42.89167
   334  H   1.0    0.14    0.99    1.43    49.99812    55.74595    40.21092
   335  H   1.0    0.12    0.99    1.43    47.26582    56.50904    43.64237
   336  H   1.0    0.14    0.99    1.43    46.41807    53.46211    42.60388
   337  H   1.0    0.11    0.99    1.43    50.35327    52.75651    46.22704
   338  H   1.0    0.12    0.99    1.43    48.32423    55.07497    47.51615
   339  H   1.0    0.28    1.00    1.43    46.10872    50.35931    45.42687
   340  H   1.0    0.26    1.00    1.43    47.28185    54.01741    50.93434
   341  H   1.0    0.27    1.00    1.43    45.57736    51.97402    52.81999
   342  H   1.0    0.30    1.00    1.43    43.81057    47.97841    47.84746
   343  H   1.0    0.26    1.00    1.43    43.65280    48.41455    51.09366
   344  N   5.0   -0.48    3.01    1.93    48.59605    52.02040    36.90779
   345  C   4.0    0.03    4.00    3.62    46.77310    51.24253    35.02905
   346  C   4.0    0.32    3.01    3.02    46.65379    48.36061    34.85186
   347  O   6.0   -0.42    1.00    1.80    44.71670    47.21331    35.37727
   348  H   1.0    0.29    1.00    1.43    50.01379    53.18745    36.37826
   349  H   1.0    0.13    0.99    1.43    44.87786    51.90591    35.53055
   350  H   1.0    0.12    0.99    1.43    47.28690    51.99794    33.18666
   351  N   5.0   -0.47    3.01    1.93    48.82938    47.26080    34.22211
   352  C   4.0    0.08    3.99    3.61    48.99984    44.60750    33.55949
   353  C   4.0    0.29    3.01    3.02    48.15967    42.94159    35.75717
   354  O   6.0   -0.45    1.00    1.80    46.77608    41.10300    35.42880
   355  C   4.0   -0.21    3.99    3.60    51.69994    43.96711    32.80143
   356  H   1.0    0.30    1.00    1.43    50.38257    48.32211    33.86350
   357  H   1.0    0.15    0.99    1.43    47.70439    44.24060    31.97678
   358  H   1.0    0.10    0.99    1.43    51.84812    41.96313    32.38082
   359  H   1.0    0.12    0.99    1.43    52.21703    45.03350    31.12340
   360  H   1.0    0.13    0.99    1.43    52.99148    44.45835    34.31988
   361  N   5.0   -0.48    3.01    1.93    49.08443    43.54862    38.01913
   362  C   4.0    0.08    4.00    3.63    48.27941    42.16409    40.24838
   363  C   4.0    0.30    3.01    3.02    45.39121    42.19840    40.35625
   364  O   6.0   -0.45    1.00    1.80    44.14097    40.25507    40.53091
   365  C   4.0   -0.09    3.98    3.58    49.47662    43.26245    42.65213
   366  C   4.0   -0.22    3.98    3.59    48.02160    42.39472    44.99027
   367  C   4.0   -0.23    3.98    3.59    52.24765    42.47392    42.82268
   368  H   1.0    0.29    1.00    1.43    50.25642    45.04721    38.23867
   369  H   1.0    0.12    0.99    1.43    48.81462    40.17501    40.00790
   370  H   1.0    0.14    0.99    1.43    49.36817    45.31960    42.50294
   371  H   1.0    0.10    0.99    1.43    49.04139    42.94136    46.68273
   372  H   1.0    0.13    0.99    1.43    46.14770    43.23020    45.02967
   373  H   1.0    0.10    0.99    1.43    47.81695    40.35080    44.97011
   374  H   1.0    0.10    0.99    1.43    53.07419    43.21466    44.54956
   375  H   1.0    0.09    0.99    1.43    52.40421    40.42471    42.83857
   376  H   1.0    0.12    0.99    1.43    53.29940    43.21079    41.22129
   377  N   5.0   -0.46    3.01    1.93    44.37512    44.50360    40.35067
   378  C   4.0    0.09    4.00    3.62    41.66886    44.82695    40.45227
   379  C   4.0    0.30    3.01    3.02    40.34060    43.30276    38.39045
   380  O   6.0   -0.47    1.00    1.80    38.35643    42.18554    38.84177
   381  C   4.0   -0.09    3.99    3.60    40.97836    47.61082    40.18268
   382  C   4.0    0.29    3.00    3.02    41.99739    49.15355    42.37572
   383  O   6.0   -0.45    1.00    1.80    43.26208    48.24457    44.08035
   384  N   5.0   -0.65    3.00    1.93    41.39431    51.60616    42.31310
   385  H   1.0    0.31    1.00    1.43    45.44205    46.07951    40.12718
   386  H   1.0    0.13    0.99    1.43    40.97784    44.10329    42.26950
   387  H   1.0    0.15    0.99    1.43    41.76065    48.30387    38.40306
   388  H   1.0    0.11    0.99    1.43    38.92659    47.79982    40.09202
   389  H   1.0    0.28    1.00    1.43    41.88256    52.74370    43.76503
   390  H   1.0    0.26    1.00    1.43    40.31249    52.32026    40.92327
   391  N   5.0   -0.46    3.01    1.93    41.46958    43.33126    36.15194
   392  C   4.0    0.09    4.00    3.62    40.31924    42.24312    33.93460
   393  C   4.0    0.29    3.02    3.02    40.02791    39.40218    34.27188
   394  O   6.0   -0.46    1.00    1.80    38.10487    38.27959    33.60328
   395  C   4.0   -0.10    3.98    3.59    41.95212    42.74217    31.61796
   396  C   4.0    0.33    2.99    3.02    42.27866    45.62702    30.98531
   397  O   6.0   -0.37    1.00    1.80    40.56207    47.08122    31.65237
   398  O   6.0   -0.38    1.00    1.80    44.23353    46.18137    29.78992
   399  H   1.0    0.32    1.00    1.43    42.93468    44.52719    35.83358
   400  H   1.0    0.14    0.99    1.43    38.43550    43.07142    33.62895
   401  H   1.0    0.14    0.99    1.43    43.82397    41.91724    31.86562
   402  H   1.0    0.12    0.99    1.43    41.07947    41.88525    29.95500
   403  N   5.0   -0.48    3.01    1.93    42.03636    38.24169    35.25228
   404  C   4.0    0.07    4.00    3.61    42.04319    35.52963    35.61976
   405  C   4.0    0.29    3.01    3.02    40.22919    34.87387    37.77234
   406  O   6.0   -0.41    1.00    1.80    38.70474    33.13902    37.55569
   407  C   4.0   -0.14    3.98    3.59    44.70647    34.47383    36.06825
   408  C   4.0   -0.11    3.98    3.58    45.30273    32.22925    34.32484
   409  C   4.0   -0.23    3.98    3.59    48.08427    31.48876    34.51318
   410  C   4.0   -0.22    3.98    3.59    43.66135    29.93566    34.93814
   411  H   1.0    0.30    1.00    1.43    43.60778    39.25239    35.67161
   412  H   1.0    0.12    0.99    1.43    41.23272    34.67247    33.90976
   413  H   1.0    0.13    0.99    1.43    46.05821    35.99136    35.71277
   414  H   1.0    0.11    0.99    1.43    44.90919    33.88383    38.03369
   415  H   1.0    0.11    0.99    1.43    44.91813    32.81247    32.37428
   416  H   1.0    0.11    0.99    1.43    48.48735    29.95277    33.20790
   417  H   1.0    0.10    0.99    1.43    49.30136    33.08056    34.06076
   418  H   1.0    0.10    0.99    1.43    48.52202    30.83737    36.41144
   419  H   1.0    0.10    0.99    1.43    43.97762    28.46678    33.53434
   420  H   1.0    0.11    0.99    1.43    44.16159    29.17929    36.78313
   421  H   1.0    0.12    0.99    1.43    41.66213    30.40873    34.95991
   422  N   5.0   -0.47    3.01    1.93    40.39327    36.28173    39.84636
   423  C   4.0    0.08    3.99    3.61    38.66370    35.91125    41.95158
   424  C   4.0    0.30    3.01    3.02    35.93225    35.97312    40.99704
   425  O   6.0   -0.38    1.00    1.80    34.37216    34.36986    41.61862
   426  C   4.0   -0.13    3.99    3.60    39.22499    37.90618    43.96888
   427  C   4.0   -0.10    3.97    3.58    37.58364    37.72875    46.36066
   428  C   4.0   -0.23    3.98    3.59    39.04609    38.77030    48.62671
   429  C   4.0   -0.21    3.98    3.59    35.09791    39.16979    46.05544
   430  H   1.0    0.30    1.00    1.43    41.70347    37.67525    39.99061
   431  H   1.0    0.13    0.99    1.43    38.95742    34.01403    42.74110
   432  H   1.0    0.13    0.99    1.43    41.20522    37.63768    44.48071
   433  H   1.0    0.13    0.99    1.43    39.02560    39.77131    43.11035
   434  H   1.0    0.12    0.99    1.43    37.15270    35.73417    46.71340
   435  H   1.0    0.10    0.99    1.43    37.88613    38.68535    50.31951
   436  H   1.0    0.11    0.99    1.43    40.74751    37.66813    48.95764
   437  H   1.0    0.11    0.99    1.43    39.57576    40.72507    48.28553
   438  H   1.0    0.11    0.99    1.43    34.03038    39.14110    47.81171
   439  H   1.0    0.11    0.99    1.43    35.45946    41.12608    45.53661
   440  H   1.0    0.13    0.99    1.43    33.93337    38.32370    44.59222
   441  N   5.0   -0.47    3.01    1.93    35.38399    37.90896    39.48292
   442  C   4.0    0.08    3.99    3.61    32.87511    38.29662    38.46549
   443  C   4.0    0.30    3.01    3.02    32.08847    36.04200    36.83886
   444  O   6.0   -0.37    1.00    1.80    30.04483    34.99795    37.17957
   445  C   4.0   -0.20    3.98    3.59    32.77826    40.74593    36.96023
   446  H   1.0    0.31    1.00    1.43    36.68851    39.25583    39.08278
   447  H   1.0    0.13    0.99    1.43    31.50760    38.37609    40.02865
   448  H   1.0    0.11    0.99    1.43    30.89144    41.04551    36.21090
   449  H   1.0    0.12    0.99    1.43    33.28496    42.32384    38.17132
   450  H   1.0    0.14    0.99    1.43    34.11889    40.67706    35.40543
   451  N   5.0   -0.47    3.01    1.93    33.71718    35.34325    35.05264
   452  C   4.0    0.07    3.99    3.60    33.21122    33.17500    33.44419
   453  C   4.0    0.11    3.00    3.02    32.59395    30.88488    35.10759
   454  O   6.0   -0.39    1.00    1.80    30.70375    29.59129    34.74278
   455  C   4.0   -0.15    3.98    3.59    35.50895    32.62996    31.76349
   456  C   4.0   -0.17    3.98    3.59    35.50904    29.97760    30.61094
   457  C   4.0   -0.15    3.98    3.58    33.30140    29.46316    28.81505
   458  C   4.0   -0.06    3.98    3.59    33.23365    26.65547    28.15469
   459  N   5.0   -0.71    3.97    2.78    31.15567    26.03908    26.36250
   460  H   1.0    0.30    1.00    1.43    35.31279    36.35671    34.70611
   461  H   1.0    0.14    0.99    1.43    31.52292    33.55529    32.29993
   462  H   1.0    0.11    0.99    1.43    35.59569    34.05949    30.28322
   463  H   1.0    0.13    0.99    1.43    37.19198    32.83490    32.93634
   464  H   1.0    0.10    0.99    1.43    37.28700    29.71713    29.60269
   465  H   1.0    0.12    0.99    1.43    35.44594    28.59325    32.13588
   466  H   1.0    0.13    0.99    1.43    31.53739    29.97500    29.75171
   467  H   1.0    0.11    0.99    1.43    33.52042    30.60806    27.11758
   468  H   1.0    0.10    0.99    1.43    35.03298    26.07443    27.34072
   469  H   1.0    0.12    0.99    1.43    32.92262    25.57663    29.88342
   470  H   1.0    0.22    0.98    1.43    30.11902    24.38754    27.08641
   471  H   1.0    0.24    1.00    1.43    29.91380    27.51795    26.22619
   472  H   1.0    0.24    1.00    1.43    31.82238    25.63636    24.59370
   473  N   5.0   -0.68    3.00    1.93    46.32482    29.83896    59.48246
   474  C   4.0    0.06    3.98    3.58    47.01845    30.22530    56.84575
   475  C   4.0    0.08    3.00    3.02    49.85876    30.76098    56.73004
   476  O   6.0   -0.40    1.00    1.80    50.69151    32.64062    57.78817
   477  C   4.0   -0.12    3.99    3.60    45.52222    32.55141    55.92763
   478  C   4.0   -0.04    3.02    3.02    45.53752    33.04854    53.12874
   479  C   4.0   -0.11    3.03    3.02    47.32688    34.61032    52.01547
   480  C   4.0   -0.11    3.04    3.02    43.61211    32.08423    51.62479
   481  C   4.0   -0.12    3.03    3.02    47.16688    35.23146    49.48260
   482  C   4.0   -0.09    3.03    3.02    43.43551    32.67610    49.09434
   483  C   4.0    0.09    3.03    3.02    45.20460    34.29216    48.01291
   484  O   6.0   -0.50    1.99    1.83    44.91279    34.91900    45.53617
   485  H   1.0    0.27    1.00    1.43    45.97368    31.43367    60.47536
   486  H   1.0    0.10    0.99    1.43    46.50952    28.52983    55.78367
   487  H   1.0    0.10    0.99    1.43    43.56534    32.29140    56.52613
   488  H   1.0    0.13    0.99    1.43    46.30702    34.19704    56.89541
   489  H   1.0    0.12    1.00    1.43    48.83504    35.40712    53.13412
   490  H   1.0    0.11    1.00    1.43    42.19199    30.88277    52.45316
   491  H   1.0    0.10    1.00    1.43    48.53889    36.49508    48.65591
   492  H   1.0    0.12    1.00    1.43    41.90532    31.95906    47.95336
   493  H   1.0    0.24    0.99    1.43    46.24336    36.05476    45.01096
   494  N   5.0   -0.69    3.00    1.93    56.52651    31.48930    52.13539
   495  C   4.0    0.07    3.98    3.59    57.64010    31.94616    49.68296
   496  C   4.0    0.07    3.00    3.02    60.45975    31.36664    49.87572
   497  O   6.0   -0.38    1.00    1.80    61.68209    32.00631    51.73994
   498  C   4.0   -0.09    3.98    3.59    57.30944    34.71678    48.82764
   499  C   4.0   -0.24    3.98    3.59    58.10377    34.98043    46.06718
   500  C   4.0   -0.23    3.98    3.59    54.57664    35.56123    49.19306
   501  H   1.0    0.29    1.00    1.43    57.42303    32.25061    53.64823
   502  H   1.0    0.10    0.99    1.43    56.72229    30.68367    48.32756
   503  H   1.0    0.13    0.99    1.43    58.53233    35.89094    50.01658
   504  H   1.0    0.09    0.99    1.43    57.87600    36.92581    45.45638
   505  H   1.0    0.10    0.99    1.43    60.07184    34.44917    45.80306
   506  H   1.0    0.09    0.99    1.43    56.94401    33.76622    44.88166
   507  H   1.0    0.09    0.99    1.43    54.37927    37.52566    48.63346
   508  H   1.0    0.09    0.99    1.43    53.32131    34.40004    48.05563
   509  H   1.0    0.10    0.99    1.43    54.01477    35.37512    51.16068
   510  H   1.0    0.29    1.00    1.43    60.89851    57.32596    56.12348
   511  H   1.0    0.12    1.00    1.43    70.62558    44.76866    44.12998
   512  H   1.0    0.29    1.00    1.43    77.02917    63.32486    53.23117
   513  H   1.0    0.14    1.00    1.43    79.41566    63.89312    47.00542
   514  H   1.0    0.27    1.00    1.43    73.31898    45.94620    23.61551
   515  H   1.0    0.12    1.00    1.43    60.46659    28.47699    39.13452
   516  H   1.0    0.28    1.00    1.43    54.65016    28.07904    41.88120
   517  H   1.0    0.12    1.00    1.43    51.84615    23.12977    46.73525
   518  H   1.0    0.30    1.00    1.43    59.64954    33.93782    24.58675
   519  H   1.0    0.16    1.00    1.43    33.74418    30.41338    36.53087
   520  H   1.0    0.29    1.00    1.43    44.91087    28.89746    59.56545
   521  H   1.0    0.12    1.00    1.43    51.00542    29.58228    55.79897
   522  H   1.0    0.29    1.00    1.43    54.94896    32.12391    52.16969
   523  H   1.0    0.12    1.00    1.43    61.33500    30.45416    48.47131

           ------------------------------------------------- 
          |        Self-Consistent Charge Iterations        |
           ------------------------------------------------- 

          ...................................................
          :                      SETUP                      :
          :.................................................:
          :  # basis functions                1288          :
          :  # atomic orbitals                1287          :
          :  # shells                          777          :
          :  # electrons                      1422          :
          :  max. iterations                   250          :
          :  Hamiltonian                  GFN2-xTB          :
          :  restarted?                      false          :
          :  GBSA solvation                   true          :
          :  PC potential                    false          :
          :  electronic temp.          500.0000000     K    :
          :  accuracy                    0.1000000          :
          :  -> integral cutoff          0.3500000E+02      :
          :  -> integral neglect         0.1000000E-08      :
          :  -> SCF convergence          0.1000000E-06 Eh   :
          :  -> wf. convergence          0.1000000E-04 e    :
          :  Broyden damping             0.4000000          :
          ...................................................

 iter      E             dE          RMSdq      gap      omega  full diag
   1   -814.0275199 -0.814028E+03  0.421E+00    1.92       0.0  T
   2   -816.1002456 -0.207273E+01  0.220E+00    1.46       1.0  T
   3   -816.1868647 -0.866191E-01  0.117E+00    1.89       1.0  T
   4   -816.2213420 -0.344773E-01  0.285E-01    1.42       1.0  T
   5   -816.2401499 -0.188079E-01  0.132E-01    1.62       1.0  T
   6   -816.2412458 -0.109586E-02  0.625E-02    1.65       1.0  T
   7   -816.2414703 -0.224485E-03  0.306E-02    1.69       1.0  T
   8   -816.2415973 -0.127037E-03  0.147E-02    1.71       1.0  T
   9   -816.2416192 -0.219245E-04  0.728E-03    1.72       1.0  T
  10   -816.2416244 -0.519613E-05  0.329E-03    1.72       1.3  T
  11   -816.2416254 -0.987111E-06  0.131E-03    1.72       3.3  T
  12   -816.2416256 -0.133424E-06  0.671E-04    1.72       6.5  T
  13   -816.2416256 -0.444827E-07  0.306E-04    1.72      14.3  T
  14   -816.2416256 -0.101439E-07  0.120E-04    1.72      36.5  T
  15   -816.2416256 -0.156547E-08  0.552E-05    1.72      79.2  T
  16   -816.2416256 -0.270802E-09  0.260E-05    1.72     168.4  T

   *** convergence criteria satisfied after 16 iterations ***

         #    Occupation            Energy/Eh            Energy/eV
      -------------------------------------------------------------
         1        2.0000           -0.7500993             -20.4112
       ...           ...                  ...                  ...
       705        2.0000           -0.3667473              -9.9797
       706        2.0000           -0.3655340              -9.9467
       707        2.0000           -0.3621093              -9.8535
       708        2.0000           -0.3602935              -9.8041
       709        2.0000           -0.3591913              -9.7741
       710        2.0000           -0.3590207              -9.7695
       711        2.0000           -0.3575843              -9.7304 (HOMO)
       712                         -0.2942802              -8.0078 (LUMO)
       713                         -0.2841225              -7.7314
       714                         -0.2812181              -7.6523
       715                         -0.2781557              -7.5690
       716                         -0.2778403              -7.5604
       ...                                ...                  ...
      1287                          0.6737585              18.3339
      -------------------------------------------------------------
                  HL-Gap            0.0633041 Eh            1.7226 eV
             Fermi-level           -0.3253783 Eh           -8.8540 eV

 SCC (total)                   0 d,  0 h,  0 min, 28.840 sec
 SCC setup                      ...        0 min,  0.267 sec (  0.926%)
 Dispersion                     ...        0 min,  0.279 sec (  0.968%)
 integral evaluation            ...        0 min,  0.976 sec (  3.383%)
 zeroth order Hamiltonian       ...        0 min,  0.026 sec (  0.090%)
 iterations                     ...        0 min, 22.112 sec ( 76.674%)
 molecular gradient             ...        0 min,  5.013 sec ( 17.383%)
 printout                       ...        0 min,  0.166 sec (  0.575%)

         :::::::::::::::::::::::::::::::::::::::::::::::::::::
         ::                     SUMMARY                     ::
         :::::::::::::::::::::::::::::::::::::::::::::::::::::
         :: total energy             -806.471923761381 Eh   ::
         :: total w/o Gsasa/hb       -806.369329550867 Eh   ::
         :: gradient norm               0.594736087697 Eh/α ::
         :: HOMO-LUMO gap               1.722591198444 eV   ::
         ::.................................................::
         :: SCC energy               -816.264241820805 Eh   ::
         :: -> isotropic ES             2.656767991272 Eh   ::
         :: -> anisotropic ES          -0.134069794948 Eh   ::
         :: -> anisotropic XC           0.251635942517 Eh   ::
         :: -> dispersion              -0.677965318890 Eh   ::
         :: -> Gsolv                   -0.800348858348 Eh   ::
         ::    -> Gborn                -0.697754647834 Eh   ::
         ::    -> Gsasa                -0.024473654385 Eh   ::
         ::    -> Ghb                  -0.079977999257 Eh   ::
         ::    -> Gshift                0.001857443127 Eh   ::
         :: repulsion energy            9.733612726316 Eh   ::
         :: add. restraining            0.000000000000 Eh   ::
         :::::::::::::::::::::::::::::::::::::::::::::::::::::

           -------------------------------------------------
          |                Property Printout                |
           -------------------------------------------------

    * Orbital Energies and Occupations

         #    Occupation            Energy/Eh            Energy/eV
      -------------------------------------------------------------
         1        2.0000           -0.7500993             -20.4112
       ...           ...                  ...                  ...
       699        2.0000           -0.3786486             -10.3036
       700        2.0000           -0.3776188             -10.2755
       701        2.0000           -0.3698686             -10.0646
       702        2.0000           -0.3693045             -10.0493
       703        2.0000           -0.3691231             -10.0444
       704        2.0000           -0.3678575             -10.0099
       705        2.0000           -0.3667473              -9.9797
       706        2.0000           -0.3655340              -9.9467
       707        2.0000           -0.3621093              -9.8535
       708        2.0000           -0.3602935              -9.8041
       709        2.0000           -0.3591913              -9.7741
       710        2.0000           -0.3590207              -9.7695
       711        2.0000           -0.3575843              -9.7304 (HOMO)
       712                         -0.2942802              -8.0078 (LUMO)
       713                         -0.2841225              -7.7314
       714                         -0.2812181              -7.6523
       715                         -0.2781557              -7.5690
       716                         -0.2778403              -7.5604
       717                         -0.2774165              -7.5489
       718                         -0.2766789              -7.5288
       719                         -0.2707004              -7.3661
       720                         -0.2502912              -6.8108
       721                         -0.2447001              -6.6586
       722                         -0.2435335              -6.6269
       ...                                ...                  ...
      1287                          0.6737585              18.3339
      -------------------------------------------------------------
                  HL-Gap            0.0633041 Eh            1.7226 eV
             Fermi-level           -0.3253783 Eh           -8.8540 eV

   #   Z        covCN         q      C6AA      α(0)
   1   7 N      2.633    -0.400    30.378     8.186
   2   6 C      3.786     0.021    20.243     6.408
   3   6 C      2.749     0.254    22.719     7.805
   4   8 O      0.859    -0.482    23.396     6.485
   5   6 C      3.803    -0.082    22.068     6.688
   6   6 C      3.807    -0.088    22.163     6.702
   7   6 C      3.737    -0.030    21.191     6.569
   8   7 N      2.704    -0.129    23.810     7.247
   9   6 C      2.736     0.227    23.227     7.891
  10   7 N      2.650    -0.250    26.508     7.647
  11   7 N      2.654    -0.258    26.696     7.674
  12   1 H      0.860     0.161     1.326     1.804
  13   1 H      0.923     0.066     2.134     2.284
  14   1 H      0.924     0.053     2.287     2.365
  15   1 H      0.924     0.069     2.098     2.265
  16   1 H      0.925     0.086     1.922     2.168
  17   1 H      0.925     0.052     2.291     2.367
  18   1 H      0.924     0.077     2.007     2.215
  19   1 H      0.924     0.101     1.776     2.084
  20   1 H      0.860     0.226     0.983     1.553
  21   1 H      0.860     0.249     0.888     1.476
  22   1 H      0.860     0.251     0.879     1.469
  23   1 H      0.860     0.243     0.913     1.497
  24   1 H      0.860     0.252     0.875     1.465
  25   7 N      2.692    -0.170    24.680     7.378
  26   6 C      3.791     0.017    20.292     6.415
  27   6 C      2.774     0.277    22.322     7.738
  28   8 O      0.859    -0.499    23.768     6.536
  29   6 C      3.811    -0.067    21.781     6.643
  30   6 C      3.849    -0.009    20.708     6.473
  31   6 C      3.755    -0.113    22.708     6.795
  32   6 C      3.755    -0.121    22.871     6.819
  33   1 H      0.860     0.217     1.025     1.586
  34   1 H      0.924     0.072     2.063     2.246
  35   1 H      0.924     0.054     2.271     2.357
  36   1 H      0.924     0.043     2.408     2.427
  37   1 H      0.924     0.027     2.633     2.538
  38   1 H      0.925     0.020     2.736     2.587
  39   1 H      0.925     0.019     2.746     2.592
  40   1 H      0.925     0.063     2.166     2.301
  41   1 H      0.925     0.039     2.464     2.455
  42   1 H      0.925     0.060     2.197     2.318
  43   1 H      0.925     0.048     2.343     2.394
  44   7 N      2.689    -0.200    25.354     7.478
  45   6 C      3.807     0.032    20.025     6.370
  46   6 C      2.756     0.271    22.424     7.754
  47   8 O      0.859    -0.515    24.114     6.584
  48   6 C      3.810    -0.078    21.991     6.675
  49   6 C      2.970    -0.005    28.138     8.701
  50   6 C      2.925    -0.042    29.032     8.836
  51   6 C      2.925    -0.041    29.014     8.833
  52   6 C      2.918    -0.082    30.050     8.989
  53   6 C      2.916    -0.065    29.613     8.924
  54   6 C      2.848     0.141    24.921     8.182
  55   8 O      1.660    -0.396    20.765     6.152
  56   1 H      0.860     0.232     0.959     1.534
  57   1 H      0.923     0.063     2.169     2.303
  58   1 H      0.925     0.058     2.218     2.329
  59   1 H      0.924     0.063     2.161     2.299
  60   1 H      0.926     0.047     2.357     2.401
  61   1 H      0.926     0.016     2.790     2.612
  62   1 H      0.926     0.073     2.057     2.243
  63   1 H      0.926     0.053     2.288     2.365
  64   1 H      0.805     0.353     0.582     1.198
  65   7 N      2.766    -0.071    22.609     7.062
  66   6 C      3.849     0.023    20.161     6.387
  67   6 C      2.769     0.205    23.646     7.964
  68   8 O      0.856    -0.365    20.987     6.142
  69   6 C      3.832    -0.069    21.804     6.644
  70   6 C      3.828    -0.074    21.887     6.657
  71   6 C      3.778    -0.019    20.937     6.519
  72   1 H      0.924     0.091     1.866     2.136
  73   1 H      0.925     0.059     2.217     2.328
  74   1 H      0.924     0.077     2.007     2.215
  75   1 H      0.925     0.050     2.324     2.384
  76   1 H      0.925     0.071     2.070     2.250
  77   1 H      0.924     0.068     2.109     2.271
  78   1 H      0.925     0.081     1.973     2.196
  79   7 N      2.633    -0.388    30.033     8.139
  80   6 C      3.779     0.036    19.986     6.369
  81   6 C      2.762     0.201    23.719     7.976
  82   8 O      0.856    -0.389    21.471     6.213
  83   6 C      3.801    -0.075    21.937     6.668
  84   6 C      3.847    -0.010    20.729     6.476
  85   6 C      3.752    -0.113    22.732     6.799
  86   6 C      3.753    -0.106    22.575     6.775
  87   1 H      0.860     0.160     1.333     1.809
  88   1 H      0.924     0.073     2.049     2.238
  89   1 H      0.924     0.042     2.416     2.431
  90   1 H      0.924     0.044     2.403     2.424
  91   1 H      0.924     0.045     2.387     2.416
  92   1 H      0.925     0.043     2.412     2.429
  93   1 H      0.925     0.041     2.436     2.441
  94   1 H      0.925     0.036     2.500     2.473
  95   1 H      0.925     0.044     2.398     2.422
  96   1 H      0.925     0.024     2.677     2.559
  97   1 H      0.925     0.032     2.552     2.498
  98   7 N      2.706    -0.286    27.381     7.772
  99   6 C      3.820     0.037    19.944     6.355
 100   6 C      2.753     0.270    22.447     7.758
 101   8 O      0.858    -0.480    23.336     6.477
 102   6 C      3.834    -0.047    21.390     6.580
 103   6 C      3.833    -0.062    21.668     6.623
 104   6 C      3.767     0.017    20.321     6.425
 105   1 H      0.924     0.001     3.038     2.726
 106   1 H      0.925     0.026     2.638     2.540
 107   1 H      0.924     0.022     2.709     2.574
 108   1 H      0.924     0.058     2.224     2.332
 109   1 H      0.925     0.048     2.339     2.392
 110   1 H      0.925     0.053     2.282     2.363
 111   1 H      0.924     0.009     2.903     2.664
 112   7 N      2.691    -0.186    25.029     7.430
 113   6 C      3.795     0.019    20.265     6.410
 114   6 C      2.751     0.270    22.430     7.755
 115   8 O      0.858    -0.484    23.428     6.490
 116   6 C      3.839    -0.066    21.733     6.632
 117   6 C      3.795     0.000    20.585     6.461
 118  16 S      1.975    -0.237   151.186    20.695
 119   6 C      3.744    -0.067    21.850     6.668
 120   1 H      0.860     0.206     1.076     1.625
 121   1 H      0.923     0.080     1.983     2.202
 122   1 H      0.924     0.049     2.330     2.387
 123   1 H      0.924     0.071     2.069     2.250
 124   1 H      0.924     0.057     2.235     2.338
 125   1 H      0.924     0.022     2.706     2.572
 126   1 H      0.926     0.088     1.895     2.153
 127   1 H      0.925     0.075     2.027     2.227
 128   1 H      0.925     0.061     2.190     2.314
 129   7 N      2.695    -0.149    24.235     7.311
 130   6 C      3.790     0.006    20.491     6.447
 131   6 C      2.756     0.265    22.522     7.771
 132   8 O      0.858    -0.466    23.037     6.435
 133   6 C      3.723     0.118    18.746     6.183
 134   8 O      1.653    -0.480    22.466     6.398
 135   6 C      3.753    -0.134    23.135     6.859
 136   1 H      0.860     0.226     0.984     1.554
 137   1 H      0.924     0.072     2.063     2.246
 138   1 H      0.923     0.034     2.531     2.488
 139   1 H      0.802     0.353     0.582     1.199
 140   1 H      0.925     0.072     2.058     2.244
 141   1 H      0.925     0.055     2.261     2.351
 142   1 H      0.925     0.049     2.332     2.388
 143   7 N      2.690    -0.163    24.522     7.355
 144   6 C      3.787     0.020    20.252     6.410
 145   6 C      2.769     0.193    23.872     8.002
 146   8 O      0.856    -0.363    20.964     6.139
 147   6 C      3.810    -0.082    22.052     6.684
 148   6 C      2.965     0.003    27.960     8.673
 149   6 C      2.928    -0.044    29.099     8.847
 150   6 C      2.929    -0.046    29.136     8.852
 151   6 C      2.919    -0.077    29.932     8.972
 152   6 C      2.920    -0.062    29.542     8.913
 153   6 C      2.847     0.143    24.878     8.174
 154   8 O      1.659    -0.430    21.430     6.249
 155   1 H      0.860     0.214     1.039     1.597
 156   1 H      0.924     0.109     1.702     2.040
 157   1 H      0.924     0.075     2.034     2.230
 158   1 H      0.924     0.092     1.859     2.132
 159   1 H      0.926     0.066     2.125     2.279
 160   1 H      0.926     0.059     2.214     2.327
 161   1 H      0.925     0.037     2.492     2.468
 162   1 H      0.926     0.049     2.335     2.390
 163   1 H      0.804     0.316     0.674     1.290
 164   7 N      2.638    -0.384    29.934     8.126
 165   6 C      3.786     0.033    20.040     6.376
 166   6 C      2.771     0.206    23.624     7.960
 167   8 O      0.856    -0.381    21.303     6.188
 168   6 C      3.855    -0.021    20.918     6.505
 169   6 C      3.803    -0.061    21.667     6.627
 170   6 C      3.756    -0.114    22.732     6.798
 171   6 C      3.752    -0.110    22.668     6.790
 172   1 H      0.860     0.159     1.340     1.813
 173   1 H      0.924     0.055     2.262     2.352
 174   1 H      0.924     0.039     2.469     2.457
 175   1 H      0.924     0.048     2.344     2.394
 176   1 H      0.924     0.037     2.492     2.469
 177   1 H      0.925     0.052     2.300     2.372
 178   1 H      0.925     0.026     2.641     2.541
 179   1 H      0.925     0.046     2.376     2.411
 180   1 H      0.925     0.041     2.433     2.439
 181   1 H      0.925     0.031     2.576     2.510
 182   1 H      0.925     0.046     2.370     2.408
 183   7 N      2.636    -0.395    30.227     8.165
 184   6 C      3.787     0.028    20.117     6.388
 185   6 C      2.756     0.273    22.381     7.747
 186   8 O      0.858    -0.504    23.883     6.552
 187   6 C      3.808    -0.052    21.508     6.602
 188   6 C      3.807    -0.096    22.321     6.725
 189   6 C      2.743     0.293    22.031     7.685
 190   8 O      0.859    -0.503    23.860     6.549
 191   7 N      2.639    -0.295    27.593     7.801
 192   1 H      0.860     0.171     1.268     1.764
 193   1 H      0.924     0.054     2.268     2.355
 194   1 H      0.924     0.045     2.389     2.417
 195   1 H      0.925     0.014     2.833     2.632
 196   1 H      0.924     0.072     2.066     2.248
 197   1 H      0.924     0.065     2.136     2.286
 198   1 H      0.860     0.233     0.953     1.529
 199   1 H      0.860     0.240     0.925     1.506
 200   7 N      2.691    -0.185    25.015     7.428
 201   6 C      3.802     0.021    20.225     6.403
 202   6 C      2.756     0.278    22.288     7.731
 203   8 O      0.858    -0.507    23.930     6.559
 204   6 C      3.852    -0.011    20.729     6.476
 205   6 C      3.757    -0.123    22.915     6.825
 206   6 C      3.757    -0.120    22.862     6.817
 207   1 H      0.860     0.216     1.028     1.588
 208   1 H      0.924     0.062     2.180     2.309
 209   1 H      0.924     0.042     2.419     2.432
 210   1 H      0.925     0.060     2.202     2.320
 211   1 H      0.925     0.047     2.355     2.400
 212   1 H      0.925     0.042     2.423     2.434
 213   1 H      0.925     0.071     2.070     2.250
 214   1 H      0.925     0.042     2.427     2.436
 215   1 H      0.925     0.047     2.363     2.404
 216   7 N      2.690    -0.182    24.937     7.417
 217   6 C      3.795     0.036    19.977     6.365
 218   6 C      2.756     0.272    22.406     7.751
 219   8 O      0.858    -0.472    23.173     6.454
 220   6 C      3.807    -0.056    21.576     6.612
 221   6 C      3.796    -0.090    22.216     6.711
 222   6 C      2.683     0.370    20.721     7.449
 223   8 O      0.856    -0.633    26.946     6.960
 224   8 O      0.856    -0.643    27.189     6.991
 225   1 H      0.860     0.220     1.009     1.574
 226   1 H      0.923     0.044     2.391     2.418
 227   1 H      0.924     0.056     2.250     2.346
 228   1 H      0.924     0.031     2.577     2.510
 229   1 H      0.924     0.008     2.931     2.677
 230   1 H      0.924     0.021     2.724     2.581
 231   7 N      2.690    -0.223    25.869     7.554
 232   6 C      3.792     0.045    19.824     6.341
 233   6 C      2.758     0.258    22.649     7.793
 234   8 O      0.860    -0.512    24.054     6.576
 235   6 C      3.804    -0.093    22.262     6.717
 236   6 C      2.683     0.373    20.685     7.443
 237   8 O      0.856    -0.633    26.947     6.960
 238   8 O      0.856    -0.619    26.586     6.913
 239   1 H      0.859     0.218     1.021     1.583
 240   1 H      0.923     0.063     2.160     2.298
 241   1 H      0.925     0.053     2.287     2.365
 242   1 H      0.924     0.016     2.796     2.615
 243   7 N      2.758    -0.075    22.689     7.074
 244   6 C      3.838     0.014    20.320     6.413
 245   6 C      2.753     0.272    22.395     7.749
 246   8 O      0.858    -0.459    22.897     6.416
 247   6 C      3.829    -0.078    21.969     6.669
 248   6 C      3.830    -0.071    21.838     6.649
 249   6 C      3.763    -0.003    20.673     6.481
 250   1 H      0.924     0.071     2.071     2.250
 251   1 H      0.925     0.094     1.837     2.120
 252   1 H      0.925     0.069     2.099     2.265
 253   1 H      0.925     0.069     2.096     2.264
 254   1 H      0.925     0.061     2.185     2.311
 255   1 H      0.924     0.054     2.269     2.356
 256   1 H      0.924     0.041     2.437     2.441
 257   7 N      2.691    -0.185    25.016     7.428
 258   6 C      3.793     0.012    20.380     6.429
 259   6 C      2.758     0.277    22.320     7.737
 260   8 O      0.859    -0.437    22.426     6.349
 261   6 C      3.678     0.067    19.669     6.353
 262   8 O      1.656    -0.488    22.624     6.421
 263   1 H      0.860     0.226     0.983     1.553
 264   1 H      0.924     0.081     1.968     2.194
 265   1 H      0.924     0.055     2.260     2.351
 266   1 H      0.924     0.063     2.162     2.299
 267   1 H      0.805     0.359     0.567     1.183
 268   7 N      2.687    -0.174    24.774     7.392
 269   6 C      3.799     0.004    20.511     6.448
 270   6 C      2.757     0.272    22.398     7.750
 271   8 O      0.859    -0.426    22.215     6.319
 272   6 C      3.807    -0.115    22.689     6.781
 273   6 C      2.742     0.283    22.212     7.717
 274   8 O      0.858    -0.463    22.990     6.429
 275   7 N      2.639    -0.285    27.354     7.768
 276   1 H      0.860     0.204     1.087     1.633
 277   1 H      0.923     0.101     1.773     2.082
 278   1 H      0.925     0.081     1.968     2.194
 279   1 H      0.924     0.097     1.810     2.104
 280   1 H      0.860     0.229     0.969     1.542
 281   1 H      0.860     0.217     1.022     1.584
 282   7 N      2.694    -0.165    24.560     7.360
 283   6 C      3.795     0.000    20.579     6.460
 284   6 C      2.756     0.264    22.548     7.776
 285   8 O      0.859    -0.457    22.852     6.409
 286   6 C      3.674     0.060    19.797     6.376
 287   8 O      1.656    -0.464    22.124     6.350
 288   1 H      0.860     0.189     1.164     1.690
 289   1 H      0.923     0.129     1.542     1.942
 290   1 H      0.924     0.030     2.593     2.518
 291   1 H      0.924     0.052     2.298     2.371
 292   1 H      0.805     0.353     0.582     1.198
 293   7 N      2.687    -0.181    24.930     7.416
 294   6 C      3.790     0.006    20.482     6.446
 295   6 C      2.754     0.286    22.154     7.708
 296   8 O      0.859    -0.469    23.102     6.444
 297   6 C      3.676     0.073    19.575     6.339
 298   8 O      1.655    -0.456    21.968     6.327
 299   1 H      0.860     0.203     1.091     1.636
 300   1 H      0.923     0.077     2.008     2.216
 301   1 H      0.924     0.044     2.400     2.423
 302   1 H      0.924     0.056     2.249     2.345
 303   1 H      0.805     0.333     0.631     1.247
 304   7 N      2.687    -0.164    24.540     7.357
 305   6 C      3.795     0.011    20.397     6.431
 306   6 C      2.757     0.286    22.148     7.707
 307   8 O      0.858    -0.463    22.974     6.426
 308   6 C      3.848    -0.028    21.043     6.525
 309   6 C      3.755    -0.127    23.000     6.838
 310   6 C      3.755    -0.131    23.071     6.849
 311   1 H      0.860     0.197     1.121     1.658
 312   1 H      0.923     0.063     2.163     2.300
 313   1 H      0.924     0.049     2.336     2.390
 314   1 H      0.925     0.077     2.014     2.219
 315   1 H      0.925     0.037     2.487     2.466
 316   1 H      0.925     0.046     2.365     2.405
 317   1 H      0.925     0.065     2.136     2.286
 318   1 H      0.925     0.074     2.047     2.237
 319   1 H      0.925     0.055     2.260     2.351
 320   7 N      2.690    -0.189    25.109     7.442
 321   6 C      3.802     0.004    20.506     6.447
 322   6 C      2.759     0.274    22.365     7.744
 323   8 O      0.858    -0.473    23.191     6.457
 324   6 C      3.806    -0.087    22.147     6.699
 325   6 C      3.802    -0.091    22.234     6.713
 326   6 C      3.736    -0.034    21.269     6.581
 327   7 N      2.701    -0.143    24.093     7.290
 328   6 C      2.735     0.223    23.309     7.905
 329   7 N      2.647    -0.259    26.735     7.679
 330   7 N      2.655    -0.253    26.585     7.658
 331   1 H      0.860     0.211     1.053     1.608
 332   1 H      0.924     0.107     1.725     2.054
 333   1 H      0.924     0.084     1.939     2.177
 334   1 H      0.924     0.060     2.204     2.322
 335   1 H      0.925     0.092     1.862     2.134
 336   1 H      0.924     0.060     2.200     2.319
 337   1 H      0.924     0.088     1.900     2.156
 338   1 H      0.925     0.111     1.690     2.033
 339   1 H      0.860     0.224     0.990     1.558
 340   1 H      0.860     0.242     0.916     1.499
 341   1 H      0.860     0.262     0.839     1.435
 342   1 H      0.860     0.242     0.915     1.499
 343   1 H      0.860     0.259     0.849     1.443
 344   7 N      2.689    -0.172    24.725     7.385
 345   6 C      3.750    -0.022    21.029     6.540
 346   6 C      2.753     0.293    22.034     7.687
 347   8 O      0.858    -0.487    23.504     6.500
 348   1 H      0.860     0.219     1.014     1.578
 349   1 H      0.924     0.085     1.928     2.171
 350   1 H      0.925     0.062     2.172     2.305
 351   7 N      2.692    -0.200    25.342     7.477
 352   6 C      3.795     0.036    19.970     6.363
 353   6 C      2.761     0.278    22.304     7.734
 354   8 O      0.859    -0.514    24.106     6.583
 355   6 C      3.758    -0.124    22.939     6.828
 356   1 H      0.860     0.237     0.936     1.516
 357   1 H      0.923     0.048     2.340     2.392
 358   1 H      0.925     0.065     2.142     2.289
 359   1 H      0.925     0.053     2.285     2.364
 360   1 H      0.925     0.076     2.022     2.224
 361   7 N      2.691    -0.174    24.761     7.390
 362   6 C      3.806     0.017    20.280     6.411
 363   6 C      2.761     0.281    22.238     7.723
 364   8 O      0.858    -0.494    23.650     6.520
 365   6 C      3.852    -0.028    21.030     6.522
 366   6 C      3.756    -0.131    23.063     6.847
 367   6 C      3.756    -0.129    23.039     6.844
 368   1 H      0.860     0.224     0.991     1.559
 369   1 H      0.924     0.072     2.065     2.247
 370   1 H      0.924     0.064     2.153     2.295
 371   1 H      0.925     0.090     1.883     2.146
 372   1 H      0.925     0.053     2.287     2.365
 373   1 H      0.925     0.040     2.449     2.447
 374   1 H      0.925     0.072     2.059     2.244
 375   1 H      0.925     0.049     2.338     2.391
 376   1 H      0.925     0.050     2.323     2.384
 377   7 N      2.692    -0.176    24.818     7.399
 378   6 C      3.804     0.035    19.980     6.364
 379   6 C      2.759     0.277    22.321     7.737
 380   8 O      0.858    -0.502    23.836     6.546
 381   6 C      3.813    -0.107    22.539     6.757
 382   6 C      2.745     0.288    22.117     7.700
 383   8 O      0.859    -0.455    22.804     6.402
 384   7 N      2.640    -0.277    27.149     7.738
 385   1 H      0.860     0.234     0.950     1.527
 386   1 H      0.924     0.086     1.915     2.164
 387   1 H      0.924     0.077     2.007     2.215
 388   1 H      0.924     0.075     2.028     2.227
 389   1 H      0.860     0.258     0.853     1.446
 390   1 H      0.860     0.218     1.019     1.582
 391   7 N      2.693    -0.196    25.260     7.465
 392   6 C      3.800     0.051    19.720     6.323
 393   6 C      2.764     0.272    22.400     7.751
 394   8 O      0.858    -0.508    23.964     6.563
 395   6 C      3.804    -0.094    22.292     6.722
 396   6 C      2.681     0.380    20.560     7.420
 397   8 O      0.856    -0.623    26.701     6.928
 398   8 O      0.856    -0.651    27.399     7.018
 399   1 H      0.860     0.231     0.963     1.537
 400   1 H      0.923     0.044     2.395     2.420
 401   1 H      0.924     0.031     2.579     2.511
 402   1 H      0.924     0.021     2.721     2.580
 403   7 N      2.692    -0.185    25.015     7.428
 404   6 C      3.799     0.028    20.107     6.385
 405   6 C      2.758     0.277    22.323     7.737
 406   8 O      0.859    -0.502    23.833     6.545
 407   6 C      3.805    -0.076    21.955     6.670
 408   6 C      3.849    -0.011    20.730     6.476
 409   6 C      3.757    -0.116    22.776     6.804
 410   6 C      3.756    -0.119    22.837     6.814
 411   1 H      0.860     0.221     1.005     1.570
 412   1 H      0.923     0.067     2.117     2.275
 413   1 H      0.924     0.059     2.214     2.327
 414   1 H      0.924     0.059     2.210     2.325
 415   1 H      0.924     0.028     2.614     2.529
 416   1 H      0.925     0.050     2.322     2.383
 417   1 H      0.925     0.037     2.496     2.471
 418   1 H      0.925     0.047     2.362     2.403
 419   1 H      0.925     0.051     2.308     2.376
 420   1 H      0.925     0.044     2.396     2.421
 421   1 H      0.925     0.041     2.441     2.443
 422   7 N      2.691    -0.190    25.119     7.444
 423   6 C      3.798     0.030    20.077     6.380
 424   6 C      2.755     0.290    22.077     7.694
 425   8 O      0.858    -0.517    24.162     6.590
 426   6 C      3.808    -0.081    22.048     6.684
 427   6 C      3.848    -0.008    20.683     6.469
 428   6 C      3.757    -0.124    22.937     6.829
 429   6 C      3.755    -0.113    22.719     6.796
 430   1 H      0.860     0.228     0.973     1.545
 431   1 H      0.923     0.062     2.178     2.308
 432   1 H      0.924     0.079     1.989     2.205
 433   1 H      0.924     0.050     2.319     2.381
 434   1 H      0.924     0.027     2.635     2.539
 435   1 H      0.925     0.053     2.277     2.360
 436   1 H      0.925     0.047     2.352     2.398
 437   1 H      0.925     0.058     2.221     2.330
 438   1 H      0.925     0.051     2.313     2.378
 439   1 H      0.925     0.045     2.387     2.416
 440   1 H      0.925     0.015     2.813     2.623
 441   7 N      2.692    -0.197    25.282     7.468
 442   6 C      3.796     0.034    19.999     6.368
 443   6 C      2.758     0.281    22.248     7.724
 444   8 O      0.859    -0.506    23.915     6.557
 445   6 C      3.757    -0.126    22.974     6.834
 446   1 H      0.860     0.226     0.982     1.553
 447   1 H      0.923     0.060     2.196     2.317
 448   1 H      0.925     0.065     2.144     2.290
 449   1 H      0.925     0.074     2.046     2.237
 450   1 H      0.925     0.050     2.315     2.379
 451   7 N      2.690    -0.181    24.919     7.414
 452   6 C      3.793     0.033    20.034     6.374
 453   6 C      2.766     0.220    23.366     7.916
 454   8 O      0.856    -0.356    20.819     6.118
 455   6 C      3.805    -0.072    21.877     6.659
 456   6 C      3.804    -0.074    21.908     6.664
 457   6 C      3.801    -0.095    22.308     6.725
 458   6 C      3.733    -0.049    21.537     6.624
 459   7 N      3.472    -0.149    24.207     7.307
 460   1 H      0.860     0.219     1.016     1.579
 461   1 H      0.924     0.082     1.960     2.189
 462   1 H      0.925     0.065     2.139     2.287
 463   1 H      0.924     0.056     2.242     2.341
 464   1 H      0.924     0.069     2.091     2.262
 465   1 H      0.924     0.051     2.309     2.376
 466   1 H      0.924     0.073     2.050     2.239
 467   1 H      0.925     0.083     1.953     2.185
 468   1 H      0.925     0.120     1.614     1.987
 469   1 H      0.924     0.111     1.684     2.029
 470   1 H      0.847     0.313     0.677     1.290
 471   1 H      0.859     0.295     0.730     1.338
 472   1 H      0.859     0.304     0.702     1.312
 473   7 N      2.640    -0.389    30.068     8.144
 474   6 C      3.781     0.040    19.922     6.358
 475   6 C      2.767     0.205    23.649     7.964
 476   8 O      0.856    -0.357    20.848     6.122
 477   6 C      3.814    -0.076    21.931     6.666
 478   6 C      2.966    -0.005    28.145     8.702
 479   6 C      2.925    -0.042    29.036     8.837
 480   6 C      2.928    -0.042    29.034     8.837
 481   6 C      2.918    -0.075    29.873     8.963
 482   6 C      2.917    -0.058    29.439     8.897
 483   6 C      2.848     0.143    24.878     8.175
 484   8 O      1.659    -0.421    21.261     6.225
 485   1 H      0.860     0.169     1.276     1.770
 486   1 H      0.924     0.046     2.373     2.409
 487   1 H      0.924     0.054     2.268     2.355
 488   1 H      0.924     0.064     2.158     2.297
 489   1 H      0.926     0.045     2.388     2.416
 490   1 H      0.926     0.039     2.462     2.454
 491   1 H      0.926     0.055     2.252     2.347
[...]
   190  O   1.954        C  189 1.631    N  191 0.194
   191  N   3.387        C  189 1.307    H  198 0.927    H  199 0.921    O  190 0.194
   192  H   0.971        N  183 0.939
   193  H   0.997        C  184 0.956
   194  H   0.998        C  187 0.973
   195  H   0.999        C  187 0.975
   196  H   0.995        C  188 0.952
   197  H   0.996        C  188 0.962
   198  H   0.946        N  191 0.927
   199  H   0.942        N  191 0.921
   200  N   3.465        C  185 1.295    C  201 0.987    H  207 0.896    O  186 0.196
   201  C   3.965        N  200 0.987    H  208 0.951    C  204 0.947    C  202 0.945
   202  C   3.939        O  203 1.605    N  216 1.306    C  201 0.945
   203  O   1.944        C  202 1.605    N  216 0.188
   204  C   3.985        C  205 1.008    C  206 1.007    H  209 0.965    C  201 0.947
   205  C   3.992        C  204 1.008    H  212 0.983    H  211 0.977    H  210 0.975
   206  C   3.991        C  204 1.007    H  214 0.986    H  215 0.986    H  213 0.980
   207  H   0.953        N  200 0.896
   208  H   0.996        C  201 0.951
   209  H   0.998        C  204 0.965
   210  H   0.996        C  205 0.975
   211  H   0.998        C  205 0.977
   212  H   0.998        C  205 0.983
   213  H   0.994        C  206 0.980
   214  H   0.998        C  206 0.986
   215  H   0.998        C  206 0.986
   216  N   3.470        C  202 1.306    C  217 0.993    H  225 0.892    O  203 0.188
   217  C   3.972        N  216 0.993    C  220 0.979    H  226 0.945    C  218 0.930
   218  C   3.950        O  219 1.639    N  231 1.288    C  217 0.930
   219  O   1.964        C  218 1.639    N  231 0.187
   220  C   3.992        C  221 1.007    C  217 0.979    H  228 0.971    H  227 0.962
   221  C   3.986        C  220 1.007    H  229 0.983    H  230 0.967    C  222 0.904
   222  C   3.935        O  224 1.515    O  223 1.495    C  221 0.904
   223  O   1.795        C  222 1.495    O  224 0.216
   224  O   1.804        C  222 1.515    O  223 0.216
   225  H   0.951        N  216 0.892
   226  H   0.998        C  217 0.945
   227  H   0.997        C  220 0.962
   228  H   0.998        C  220 0.971
   229  H   1.000        C  221 0.983
   230  H   1.000        C  221 0.967
   231  N   3.429        C  218 1.288    C  232 0.982    H  239 0.847    O  219 0.187
   232  C   3.966        N  231 0.982    C  235 0.978    C  233 0.940    H  240 0.937
   233  C   3.955        O  234 1.605    N  243 1.311    C  232 0.940
   234  O   1.927        C  233 1.605    N  243 0.194
   235  C   3.988        C  232 0.978    H  241 0.975    H  242 0.969    C  236 0.922
   236  C   3.933        O  238 1.537    O  237 1.451    C  235 0.922
   237  O   1.843        C  236 1.451    O  238 0.211
   238  O   1.826        C  236 1.537    O  237 0.211
   239  H   0.953        N  231 0.847
   240  H   0.996        C  232 0.937
   241  H   0.997        C  235 0.975
   242  H   0.999        C  235 0.969
   243  N   3.529        C  233 1.311    C  249 0.978    C  244 0.966    O  234 0.194
   244  C   3.958        C  247 0.975    N  243 0.966    H  250 0.953    C  245 0.930
   245  C   3.955        O  246 1.661    N  257 1.286    C  244 0.930
   246  O   1.989        C  245 1.661    N  257 0.196
   247  C   3.984        C  248 1.004    C  244 0.975    H  252 0.975    H  251 0.970
   248  C   3.991        C  247 1.004    C  249 0.998    H  254 0.974    H  253 0.968
   249  C   3.965        C  248 0.998    N  243 0.978    H  256 0.967    H  255 0.966
   250  H   0.995        C  244 0.953
   251  H   0.991        C  247 0.970
   252  H   0.995        C  247 0.975
   253  H   0.995        C  248 0.968
   254  H   0.996        C  248 0.974
   255  H   0.997        C  249 0.966
   256  H   0.998        C  249 0.967
   257  N   3.437        C  245 1.286    C  258 0.970    H  263 0.910    O  246 0.196
   258  C   3.959        C  261 0.974    N  257 0.970    H  264 0.944    C  259 0.944
   259  C   3.956        O  260 1.646    N  268 1.286    C  258 0.944
   260  O   2.014        C  259 1.646    N  268 0.195
   261  C   3.954        O  262 1.003    C  258 0.974    H  266 0.968    H  265 0.964
   262  O   1.927        C  261 1.003    H  267 0.856
   263  H   0.949        N  257 0.910
   264  H   0.993        C  258 0.944
   265  H   0.997        C  261 0.964
   266  H   0.995        C  261 0.968
   267  H   0.870        O  262 0.856
   268  N   3.464        C  259 1.286    C  269 0.976    H  276 0.925    O  260 0.195
   269  C   3.955        N  268 0.976    C  272 0.970    C  270 0.947    H  277 0.917
   270  C   3.950        O  271 1.687    N  282 1.247    C  269 0.947
   271  O   2.018        C  270 1.687    N  282 0.193
   272  C   3.979        C  269 0.970    H  279 0.966    H  278 0.958    C  273 0.954
   273  C   3.957        O  274 1.652    N  275 1.327    C  272 0.954
   274  O   1.963        C  273 1.652    N  275 0.211
   275  N   3.415        C  273 1.327    H  280 0.906    H  281 0.900    O  274 0.211
   276  H   0.958        N  268 0.925
   277  H   0.990        C  269 0.917
   278  H   0.993        C  272 0.958
   279  H   0.990        C  272 0.966
   280  H   0.947        N  275 0.906
   281  H   0.953        N  275 0.900
   282  N   3.454        C  270 1.247    C  283 0.982    H  288 0.924    O  271 0.193
   283  C   3.960        N  282 0.982    C  286 0.981    C  284 0.935    H  289 0.934
   284  C   3.941        O  285 1.615    N  293 1.295    C  283 0.935
   285  O   1.993        C  284 1.615    N  293 0.189
   286  C   3.965        O  287 1.011    C  283 0.981    H  291 0.969    H  290 0.954
   287  O   1.931        C  286 1.011    H  292 0.862
   288  H   0.964        N  282 0.924
   289  H   0.983        C  283 0.934
   290  H   0.999        C  286 0.954
   291  H   0.997        C  286 0.969
   292  H   0.875        O  287 0.862
   293  N   3.461        C  284 1.295    C  294 0.977    H  299 0.912    O  285 0.189
   294  C   3.964        N  293 0.977    C  297 0.966    H  300 0.950    C  295 0.935
   295  C   3.955        O  296 1.613    N  304 1.318    C  294 0.935
   296  O   1.995        C  295 1.613    N  304 0.196
   297  C   3.953        O  298 1.006    C  294 0.966    H  302 0.965    H  301 0.962
   298  O   1.985        C  297 1.006    H  303 0.875
   299  H   0.958        N  293 0.912
   300  H   0.993        C  294 0.950
   301  H   0.998        C  297 0.962
   302  H   0.997        C  297 0.965
   303  H   0.889        O  298 0.875
   304  N   3.476        C  295 1.318    C  305 0.963    H  311 0.921    O  296 0.196
   305  C   3.945        N  304 0.963    C  308 0.958    H  312 0.951    C  306 0.938
   306  C   3.952        O  307 1.653    N  320 1.271    C  305 0.938
   307  O   1.979        C  306 1.653    N  320 0.183
   308  C   3.983        C  309 1.008    C  310 1.005    H  313 0.968    C  305 0.958
   309  C   3.992        C  308 1.008    H  315 0.980    H  314 0.976    H  316 0.975
   310  C   3.987        C  308 1.005    H  319 0.984    H  318 0.981    H  317 0.979
   311  H   0.961        N  304 0.921
   312  H   0.996        C  305 0.951
   313  H   0.997        C  308 0.968
   314  H   0.994        C  309 0.976
   315  H   0.999        C  309 0.980
   316  H   0.998        C  309 0.975
   317  H   0.995        C  310 0.979
   318  H   0.995        C  310 0.981
   319  H   0.997        C  310 0.984
   320  N   3.427        C  306 1.271    C  321 0.975    H  331 0.890    O  307 0.183
   321  C   3.955        C  324 0.976    N  320 0.975    H  332 0.947    C  322 0.935
   322  C   3.937        O  323 1.626    N  344 1.290    C  321 0.935
   323  O   1.979        C  322 1.626    N  344 0.192
   324  C   3.980        C  325 1.006    C  321 0.976    H  334 0.971    H  333 0.966
   325  C   3.986        C  324 1.006    C  326 1.000    H  335 0.972    H  336 0.967
   326  C   3.955        C  325 1.000    N  327 0.991    H  338 0.955    H  337 0.953
   327  N   3.480        C  328 1.323    C  326 0.991    H  339 0.893    N  330 0.111
   328  C   3.977        N  330 1.334    N  327 1.323    N  329 1.284
   329  N   3.349        C  328 1.284    H  341 0.912    H  340 0.911
   330  N   3.411        C  328 1.334    H  343 0.913    H  342 0.905    N  327 0.111
   331  H   0.955        N  320 0.890
   332  H   0.988        C  321 0.947
   333  H   0.993        C  324 0.966
   334  H   0.996        C  324 0.971
   335  H   0.991        C  325 0.972
   336  H   0.996        C  325 0.967
   337  H   0.992        C  326 0.953
   338  H   0.988        C  326 0.955
   339  H   0.950        N  327 0.893
   340  H   0.941        N  329 0.911
   341  H   0.931        N  329 0.912
   342  H   0.941        N  330 0.905
   343  H   0.932        N  330 0.913
   344  N   3.463        C  322 1.290    C  345 0.999    H  348 0.908    O  323 0.192
   345  C   3.974        N  344 0.999    H  350 0.965    H  349 0.961    C  346 0.944
   346  C   3.944        O  347 1.602    N  351 1.322    C  345 0.944
   347  O   1.993        C  346 1.602    N  351 0.193
   348  H   0.952        N  344 0.908
   349  H   0.992        C  345 0.961
   350  H   0.996        C  345 0.965
   351  N   3.463        C  346 1.322    C  352 0.974    H  356 0.879    O  347 0.193
   352  C   3.967        C  355 0.995    N  351 0.974    H  357 0.950    C  353 0.941
   353  C   3.952        O  354 1.588    N  361 1.336    C  352 0.941
   354  O   1.936        C  353 1.588    N  361 0.197
   355  C   3.987        C  352 0.995    H  359 0.982    H  358 0.982    H  360 0.980
   356  H   0.944        N  351 0.879
   357  H   0.997        C  352 0.950
   358  H   0.995        C  355 0.982
   359  H   0.997        C  355 0.982
   360  H   0.994        C  355 0.980
   361  N   3.484        C  353 1.336    C  362 0.964    H  368 0.902    O  354 0.197
   362  C   3.946        C  365 0.964    N  361 0.964    H  369 0.952    C  363 0.934
   363  C   3.945        O  364 1.607    N  377 1.316    C  362 0.934
   364  O   1.960        C  363 1.607    N  377 0.194
   365  C   3.980        C  367 1.008    C  366 1.006    C  362 0.964    H  370 0.960
   366  C   3.988        C  365 1.006    H  373 0.984    H  372 0.983    H  371 0.979
   367  C   3.990        C  365 1.008    H  375 0.985    H  376 0.983    H  374 0.981
   368  H   0.950        N  361 0.902
   369  H   0.994        C  362 0.952
   370  H   0.996        C  365 0.960
   371  H   0.992        C  366 0.979
   372  H   0.997        C  366 0.983
   373  H   0.998        C  366 0.984
   374  H   0.994        C  367 0.981
   375  H   0.998        C  367 0.985
   376  H   0.998        C  367 0.983
   377  N   3.477        C  363 1.316    C  378 0.987    H  385 0.888    O  364 0.194
   378  C   3.971        N  377 0.987    C  381 0.985    H  386 0.947    C  379 0.935
   379  C   3.941        O  380 1.581    N  391 1.333    C  378 0.935
   380  O   1.945        C  379 1.581    N  391 0.191
   381  C   3.987        C  378 0.985    C  382 0.970    H  388 0.955    H  387 0.946
   382  C   3.956        O  383 1.621    N  384 1.327    C  381 0.970
   383  O   1.975        C  382 1.621    N  384 0.198
   384  N   3.406        C  382 1.327    H  390 0.935    H  389 0.910    O  383 0.198
   385  H   0.945        N  377 0.888
   386  H   0.992        C  378 0.947
   387  H   0.994        C  381 0.946
   388  H   0.994        C  381 0.955
   389  H   0.932        N  384 0.910
   390  H   0.953        N  384 0.935
   391  N   3.479        C  379 1.333    C  392 0.983    H  399 0.863    O  380 0.191
   392  C   3.974        C  395 0.983    N  391 0.983    H  400 0.952    C  393 0.942
   393  C   3.952        O  394 1.581    N  403 1.332    C  392 0.942
   394  O   1.927        C  393 1.581    N  403 0.193
   395  C   3.980        C  392 0.983    H  401 0.971    H  402 0.966    C  396 0.894
   396  C   3.935        O  397 1.520    O  398 1.492    C  395 0.894
   397  O   1.817        C  396 1.520    O  398 0.215
   398  O   1.793        C  396 1.492    O  397 0.215
   399  H   0.947        N  391 0.863
   400  H   0.998        C  392 0.952
   401  H   0.999        C  395 0.971
   402  H   0.999        C  395 0.966
   403  N   3.484        C  393 1.332    C  404 0.972    H  411 0.892    O  394 0.193
   404  C   3.955        C  407 0.978    N  403 0.972    H  412 0.948    C  405 0.933
   405  C   3.951        O  406 1.614    N  422 1.326    C  404 0.933
   406  O   1.940        C  405 1.614    N  422 0.199
   407  C   3.985        C  408 0.994    C  404 0.978    H  414 0.973    H  413 0.967
   408  C   3.993        C  410 1.010    C  409 1.008    C  407 0.994    H  415 0.968
   409  C   3.994        C  408 1.008    H  417 0.987    H  416 0.985    H  418 0.979
   410  C   3.994        C  408 1.010    H  420 0.986    H  419 0.986    H  421 0.982
   411  H   0.951        N  403 0.892
   412  H   0.995        C  404 0.948
   413  H   0.996        C  407 0.967
   414  H   0.996        C  407 0.973
   415  H   0.999        C  408 0.968
   416  H   0.997        C  409 0.985
   417  H   0.999        C  409 0.987
   418  H   0.998        C  409 0.979
   419  H   0.997        C  410 0.986
   420  H   0.998        C  410 0.986
   421  H   0.998        C  410 0.982
   422  N   3.475        C  405 1.326    C  423 0.970    H  430 0.889    O  406 0.199
   423  C   3.960        C  426 0.980    N  422 0.970    H  431 0.954    C  424 0.936
   424  C   3.943        O  425 1.616    N  441 1.310    C  423 0.936
   425  O   1.929        C  424 1.616    N  441 0.194
   426  C   3.982        C  427 0.992    C  423 0.980    H  433 0.970    H  432 0.964
   427  C   3.992        C  429 1.010    C  428 1.007    C  426 0.992    H  434 0.969
   428  C   3.993        C  427 1.007    H  437 0.986    H  435 0.985    H  436 0.985
   429  C   3.995        C  427 1.010    H  439 0.986    H  438 0.985    H  440 0.984
   430  H   0.948        N  422 0.889
   431  H   0.996        C  423 0.954
   432  H   0.993        C  426 0.964
   433  H   0.997        C  426 0.970
   434  H   0.999        C  427 0.969
   435  H   0.997        C  428 0.985
   436  H   0.998        C  428 0.985
   437  H   0.997        C  428 0.986
   438  H   0.997        C  429 0.985
   439  H   0.998        C  429 0.986
   440  H   1.000        C  429 0.984
   441  N   3.464        C  424 1.310    C  442 0.980    H  446 0.878    O  425 0.194
   442  C   3.970        C  445 0.998    N  441 0.980    H  447 0.954    C  443 0.934
   443  C   3.948        O  444 1.617    N  451 1.322    C  442 0.934
   444  O   1.940        C  443 1.617    N  451 0.199
   445  C   3.988        C  442 0.998    H  448 0.983    H  450 0.981    H  449 0.979
   446  H   0.949        N  441 0.878
   447  H   0.996        C  442 0.954
   448  H   0.995        C  445 0.983
   449  H   0.994        C  445 0.979
   450  H   0.997        C  445 0.981
   451  N   3.477        C  443 1.322    C  452 0.968    H  460 0.891    O  444 0.199
   452  C   3.959        C  453 0.971    C  455 0.969    N  451 0.968    H  461 0.950
   453  C   3.901        O  454 1.896    C  452 0.971    H  519 0.957
   454  O   2.038        C  453 1.896
   455  C   3.982        C  456 1.004    H  462 0.972    C  452 0.969    H  463 0.967
   456  C   3.990        C  455 1.004    C  457 1.003    H  464 0.973    H  465 0.970
   457  C   3.987        C  458 1.011    C  456 1.003    H  467 0.971    H  466 0.969
   458  C   3.920        C  457 1.011    H  469 0.968    H  468 0.965    N  459 0.958
   459  N   3.663        C  458 0.958    H  472 0.897    H  471 0.897    H  470 0.891
   460  H   0.952        N  451 0.891
   461  H   0.993        C  452 0.950
   462  H   0.996        C  455 0.972
   463  H   0.996        C  455 0.967
   464  H   0.995        C  456 0.973
   465  H   0.997        C  456 0.970
   466  H   0.995        C  457 0.969
   467  H   0.993        C  457 0.971
   468  H   0.986        C  458 0.965
   469  H   0.988        C  458 0.968
   470  H   0.902        N  459 0.891
   471  H   0.913        N  459 0.897
   472  H   0.908        N  459 0.897
   473  N   2.997        C  474 1.003    H  485 0.954    H  520 0.953
   474  C   3.984        N  473 1.003    C  475 0.975    H  486 0.970    C  477 0.949
   475  C   3.896        O  476 1.911    C  474 0.975    H  521 0.955
   476  O   2.045        C  475 1.911
   477  C   3.992        C  478 1.012    H  487 0.967    H  488 0.967    C  474 0.949
   478  C   3.988        C  479 1.411    C  480 1.401    C  477 1.012
   479  C   3.991        C  481 1.449    C  478 1.411    H  489 0.968    C  482 0.107
   480  C   3.991        C  482 1.462    C  478 1.401    H  490 0.969    C  481 0.104
   481  C   3.985        C  479 1.449    C  483 1.373    H  491 0.963    C  480 0.104
   482  C   3.990        C  480 1.462    C  483 1.361    H  492 0.969    C  479 0.107
   483  C   3.932        C  481 1.373    C  482 1.361    O  484 1.064
   484  O   2.105        C  483 1.064    H  493 0.871
   485  H   0.971        N  473 0.954
   486  H   0.998        C  474 0.970
   487  H   0.997        C  477 0.967
   488  H   0.995        C  477 0.967
   489  H   0.998        C  479 0.968
   490  H   0.998        C  480 0.969
   491  H   0.997        C  481 0.963
   492  H   0.998        C  482 0.969
   493  H   0.897        O  484 0.871
   494  N   2.998        C  495 1.019    H  501 0.956    H  522 0.942
   495  C   3.984        N  494 1.019    C  496 0.989    H  502 0.955    C  498 0.930
   496  C   3.896        O  497 1.884    C  495 0.989    H  523 0.956
   497  O   2.032        C  496 1.884
   498  C   3.992        C  499 1.009    C  500 1.007    H  503 0.969    C  495 0.930
   499  C   3.994        C  498 1.009    H  505 0.985    H  504 0.984    H  506 0.983
   500  C   3.993        C  498 1.007    H  507 0.980    H  508 0.976    H  509 0.976
   501  H   0.975        N  494 0.956
   502  H   0.997        C  495 0.955
   503  H   0.999        C  498 0.969
   504  H   0.996        C  499 0.984
   505  H   0.999        C  499 0.985
   506  H   0.997        C  499 0.983
   507  H   0.996        C  500 0.980
   508  H   0.998        C  500 0.976
   509  H   0.998        C  500 0.976
   510  H   0.965        N    1 0.951
   511  H   0.995        C   67 0.953
   512  H   0.963        N   79 0.950
   513  H   0.996        C   81 0.955
   514  H   0.976        N   98 0.961
   515  H   0.990        C  145 0.950
   516  H   0.966        N  164 0.941
   517  H   0.995        C  166 0.956
   518  H   0.967        N  183 0.956
   519  H   0.996        C  453 0.957
   520  H   0.965        N  473 0.953
   521  H   0.996        C  475 0.955
   522  H   0.966        N  494 0.942
   523  H   0.996        C  496 0.956
 
molecular dipole:
                 x           y           z       tot (Debye)
 q only:      -34.304       0.724      50.558
   full:      -30.556       3.387      45.547     139.675
molecular quadrupole (traceless):
                xx          xy          yy          xz          yz          zz
 q only:    -6346.491   -2342.161     627.311    2492.245    4653.178    5719.181
  q+dip:    -5875.646   -1886.642     851.210    2278.117    4446.864    5024.436
   full:    -5881.735   -1888.900     853.618    2276.238    4451.232    5028.117


           -------------------------------------------------
          | TOTAL ENERGY             -806.471923761381 Eh   |
          | GRADIENT NORM               0.594736087697 Eh/α |
          | HOMO-LUMO GAP               1.722591198444 eV   |
           -------------------------------------------------

------------------------------------------------------------------------
 * finished run on 2019/05/31 at 06:33:39.403     
------------------------------------------------------------------------
 total:
 * wall-time:     0 d,  0 h,  0 min, 29.571 sec
 *  cpu-time:     0 d,  0 h,  0 min, 58.172 sec
 * ratio c/w:     1.967 speedup
 SCF:
 * wall-time:     0 d,  0 h,  0 min, 28.850 sec
 *  cpu-time:     0 d,  0 h,  0 min, 56.921 sec
 * ratio c/w:     1.973 speedup

