      -----------------------------------------------------------      
     |                   =====================                   |     
     |                           x T B                           |     
     |                   =====================                   |     
     |                         S. Grimme                         |     
     |          Mulliken Center for Theoretical Chemistry        |     
     |                    University of Bonn                     |     
     |                 Version 6.0.1 (SAW181210)                 |     
      -----------------------------------------------------------      

   This program is distributed in the hope that it will be useful,
   but WITHOUT ANY WARRANTY; without even the implied warranty of
   MERCHANTABILITY or FITNESS FOR A PARTICULAR PURPOSE.
   
   FOR NON-COMMERCIAL, ACADEMIA USE ONLY.
   
   Cite this work as:
   S. Grimme, C. Bannwarth, P. Shushkov, J. Comput. Theory Chem., 2017,
   13, 1989-2009.
   C. Bannwarth, S. Ehlert and S. Grimme., ChemRxiv, 2018, preprint.
   http://doi.org/10.26434/chemrxiv.7246238.v1
   
   for sTDA-xTB:
   S. Grimme and C. Bannwarth, J. Chem. Phys., 2016, 145, 054103.
   
   in the mass-spec context:
   V. Asgeirsson, C. Bauer and S. Grimme, Chem. Sci., 2017, 8, 4879.
   
   if GBSA is used:
   P. Shushkov, F. März and S. Grimme, unpublished.
   
   for ANC optimizer:
   S. Grimme, unpublished.
   Rational Function algorithm used in ANCopt:
   F. Eckert, P. Pulay, H.-J. Werner, J. Comput. Chem., 1997, 18, 1473.
   
   with help from (in alphabetical order)
   C. Bannwarth, F. Bohle, G. Brandenburg, E. Caldeweyher, M. Checinski,
   S. Dohm, S. Ehlert, S. Ehrlich, F. März, H. Neugebauer, J. Pisarek,
   P. Pracht, P. Shushkov, and S. Spicher.
   
 * started run on 2019/02/13 at 00:16:52.405     
========================================================================
 # omp threads = 16
========================================================================
number of atoms            : 503
number of electrons        : 1412
charge                     : -4
spin                       : .0
first test random number   : .8521

########################################################################
# WARNING! Please study the warnings concerning your input carefully
#  - Process number higher than OMP_NUM_THREADS, I hope you know what you are doing.
########################################################################

           ------------------------------------------------- 
          |                 G F N 2 - x T B                 |
          | Geometry, Frequencies, Noncovalent interactions |
          |            JCTC 2018 parametrisation            |
           ------------------------------------------------- 
 
      method parameters     
 k(s)        :  1.8500
 k(p)        :  2.2300
 k(d)        :  2.2300
 k(f)        :  2.0000
 kEN (H0ij)  : -2.0000
 D4 a1       :  0.5200
 D4 a2       :  5.0000
 D4 s6       :  1.0000
 D4 s8       :  2.7000
 D4 s9       :  5.0000
 alphaj      :  2.0000

 Solvent             : h2o
 Using internal parameter file: .param_gbsa2_h2o
 Gsolv ref. state (COSMO-RS): gsolv [1 M gas/solution]
 temperature (mdtemp)       :    298.150000000000     
 dielectric constant        :    80.2000000000000     
 rho                        :    1.00000000000000     
 mass                       :    18.0000000000000     
 surface tension            :    15.5689454083859     
 probe radius               :   0.975313790000000     
 vdW radii scaling          :    1.00000000000000     
 Gshift (Eh)                :   1.857443126794793E-003
 c1                         :    1.55243817000000     
 soset                      :   0.130326360000000     
 HB correction              :  T

            Z     q(EN)     CN     RAES       Cart. coordinates
     1  N   5.0   -0.22    3.25    1.97   380.68699   139.77445   205.30385
     2  C   4.0    0.02    4.24    4.07   381.35907   137.83374   207.09046
     3  C   4.0    0.06    3.22    3.04   379.85313   138.23853   209.52647
     4  O   6.0   -0.32    1.14    1.80   379.29339   140.37336   210.23112
     5  C   4.0   -0.04    4.33    4.25   384.19569   137.98723   207.77268
     6  C   4.0   -0.02    3.56    3.14   385.83665   137.50281   205.51167
     7  C   4.0   -0.05    3.49    3.11   386.32352   139.41768   203.77964
     8  C   4.0   -0.05    3.46    3.10   386.84805   135.12320   205.06907
     9  C   4.0   -0.04    3.44    3.09   387.74351   138.97048   201.64015
    10  C   4.0   -0.06    3.43    3.09   388.28204   134.65199   202.93388
    11  C   4.0    0.06    3.45    3.09   388.72101   136.56917   201.18830
    12  O   6.0   -0.24    2.11    1.84   390.09087   136.19669   199.05566
    13  H   1.0    0.09    1.04    1.43   380.31508   141.47715   206.09126
    14  H   1.0    0.02    1.05    1.44   380.92880   135.98515   206.28055
    15  H   1.0    0.05    1.03    1.43   384.56029   139.86838   208.54810
    16  H   1.0    0.03    1.03    1.43   384.54486   136.55993   209.21885
    17  H   1.0    0.05    1.03    1.43   385.59656   141.29585   204.12192
    18  H   1.0    0.04    1.03    1.43   386.51183   133.62189   206.41355
    19  H   1.0    0.07    1.03    1.43   388.15356   140.47548   200.32834
    20  H   1.0    0.04    1.03    1.43   389.05812   132.78791   202.62889
    21  H   1.0    0.11    1.04    1.43   390.51104   134.42246   198.88443
    22  N   5.0   -0.21    3.24    1.97   415.54645   143.20842   232.96211
    23  C   4.0    0.03    4.21    4.02   415.14834   145.42388   234.52422
    24  C   4.0    0.07    3.18    3.03   412.61532   146.70879   233.87957
    25  O   6.0   -0.31    1.14    1.80   412.51640   148.73548   232.78168
    26  C   4.0   -0.03    4.28    4.16   417.33598   147.25467   234.13166
    27  C   4.0    0.24    3.11    3.03   419.99887   145.98373   234.29838
    28  O   6.0   -0.33    1.17    1.80   420.36365   144.34143   235.92782
    29  O   6.0   -0.32    1.16    1.80   421.59469   146.82274   232.76134
    30  H   1.0    0.12    1.06    1.44   416.32548   143.52326   231.24036
    31  H   1.0    0.03    1.05    1.44   415.08809   144.75341   236.48519
    32  H   1.0    0.06    1.03    1.43   417.16820   148.10718   232.26481
    33  H   1.0    0.03    1.02    1.43   417.25575   148.73691   235.56245
    34  N   5.0   -0.19    3.26    1.97   404.16584   145.10172   232.09018
    35  C   4.0    0.03    4.32    4.23   402.63404   143.47905   230.50483
    36  C   4.0    0.15    3.48    3.11   404.13140   142.88574   228.11951
    37  O   6.0   -0.32    1.38    1.80   405.83575   144.27769   227.37588
    38  C   4.0   -0.02    4.29    4.18   400.21426   144.81733   229.66550
    39  C   4.0    0.24    3.11    3.03   398.47576   145.55985   231.87811
    40  O   6.0   -0.32    1.21    1.80   399.39911   146.52137   233.80049
    41  O   6.0   -0.30    1.17    1.80   396.15407   145.13272   231.55300
    42  H   1.0    0.10    1.05    1.44   403.21934   146.52627   232.95437
    43  H   1.0    0.04    1.04    1.44   402.16540   141.70939   231.48572
    44  H   1.0    0.07    1.03    1.43   400.68869   146.53931   228.62152
    45  H   1.0    0.07    1.03    1.43   399.13824   143.58940   228.40991
    46  N   5.0   -0.14    3.49    2.07   403.48446   140.79173   226.88455
    47  C   4.0    0.04    4.46    4.48   404.53988   140.37247   224.38963
    48  C   4.0    0.15    3.43    3.09   403.25174   142.23292   222.57431
    49  O   6.0   -0.31    1.30    1.80   401.08070   142.96024   222.93853
    50  C   4.0   -0.05    4.34    4.27   404.21140   137.64866   223.50094
    51  C   4.0   -0.03    4.18    3.95   406.19302   135.84038   224.59883
    52  C   4.0   -0.08    4.12    3.83   406.05813   135.71252   227.47660
    53  C   4.0   -0.09    4.10    3.81   405.82435   133.21355   223.46300
    54  H   1.0    0.09    1.07    1.44   401.86510   139.88204   227.33950
    55  H   1.0    0.05    1.06    1.44   406.55147   140.84436   224.49736
    56  H   1.0    0.04    1.03    1.43   402.31923   137.00337   224.00536
    57  H   1.0    0.04    1.03    1.43   404.36332   137.63285   221.44368
    58  H   1.0    0.04    1.05    1.44   408.06358   136.53598   224.05502
    59  H   1.0    0.03    1.00    1.43   407.34255   134.26842   228.17451
    60  H   1.0    0.04    1.00    1.43   406.57349   137.50230   228.34178
    61  H   1.0    0.03    1.00    1.43   404.14944   135.23600   228.07539
    62  H   1.0    0.03    1.00    1.43   407.23314   131.92027   224.20501
    63  H   1.0    0.03    1.00    1.43   403.96707   132.47962   223.94441
    64  H   1.0    0.03    1.00    1.43   405.98429   133.26710   221.41693
    65  N   5.0   -0.15    3.49    2.07   404.69321   143.02847   220.66621
    66  C   4.0    0.04    4.41    4.39   403.82384   144.85369   218.81376
    67  C   4.0    0.16    3.43    3.09   403.09956   143.34358   216.44886
    68  O   6.0   -0.32    1.27    1.80   404.61781   142.86724   214.76095
    69  C   4.0   -0.04    4.24    4.09   405.86495   146.83430   218.29968
    70  C   4.0   -0.04    4.17    3.95   406.15138   148.78315   220.42226
    71  C   4.0   -0.04    4.16    3.92   407.60676   147.85548   222.74656
    72  C   4.0   -0.03    4.13    3.86   407.41107   149.79938   224.87338
    73  N   5.0   -0.11    4.03    2.94   408.31878   148.73056   227.30956
    74  H   1.0    0.11    1.11    1.45   406.42795   142.25589   220.33349
    75  H   1.0    0.06    1.06    1.44   402.11595   145.76009   219.55794
    76  H   1.0    0.05    1.03    1.43   407.64932   145.86341   217.94468
    77  H   1.0    0.06    1.04    1.43   405.30620   147.83964   216.58743
    78  H   1.0    0.04    1.03    1.43   407.08832   150.43586   219.62263
    79  H   1.0    0.06    1.03    1.43   404.26316   149.38570   221.00485
    80  H   1.0    0.07    1.04    1.43   406.75653   146.10488   223.41012
    81  H   1.0    0.04    1.02    1.43   409.57062   147.50528   222.22426
    82  H   1.0    0.03    1.02    1.43   408.48294   151.49826   224.41976
    83  H   1.0    0.07    1.03    1.43   405.42186   150.30680   225.09071
    84  H   1.0    0.06    1.02    1.43   408.02151   149.97439   228.76532
    85  H   1.0    0.10    1.09    1.44   407.26914   147.07768   227.69535
    86  H   1.0    0.06    1.02    1.43   410.19709   148.25373   227.22665
    87  N   5.0   -0.13    3.47    2.06   400.78632   142.30252   216.53890
    88  C   4.0    0.04    4.43    4.44   399.76055   140.99491   214.36133
    89  C   4.0    0.16    3.44    3.09   399.44358   142.85002   212.16501
    90  O   6.0   -0.30    1.25    1.80   399.10273   145.12556   212.49728
    91  C   4.0   -0.04    4.33    4.25   397.22821   139.77089   215.06074
    92  C   4.0   -0.02    3.56    3.15   395.88299   138.54805   212.87400
    93  C   4.0   -0.03    3.47    3.10   396.51353   136.11278   212.11734
    94  C   4.0   -0.04    3.46    3.10   393.92139   139.78113   211.63471
    95  C   4.0   -0.03    3.37    3.07   395.18141   134.90891   210.21734
    96  C   4.0   -0.04    3.37    3.07   392.58367   138.58184   209.73198
    97  C   4.0   -0.04    3.37    3.07   393.19510   136.13544   209.03350
    98  H   1.0    0.11    1.10    1.44   399.47964   143.06192   217.72235
    99  H   1.0    0.05    1.06    1.44   401.11473   139.54675   213.75941
   100  H   1.0    0.04    1.03    1.43   397.61632   138.35321   216.50603
   101  H   1.0    0.05    1.03    1.43   396.03320   141.23300   215.89110
   102  H   1.0    0.06    1.03    1.43   398.05788   135.14697   213.03357
   103  H   1.0    0.05    1.03    1.43   393.42431   141.69580   212.16945
   104  H   1.0    0.07    1.03    1.43   395.71455   133.01788   209.67090
   105  H   1.0    0.05    1.03    1.43   391.05658   139.57104   208.79867
   106  H   1.0    0.05    1.03    1.43   392.10997   135.21751   207.56990
   107  N   5.0   -0.14    3.50    2.08   399.57487   141.75630   209.89869
   108  C   4.0    0.04    4.45    4.45   399.54822   143.14974   207.54730
   109  C   4.0    0.16    3.46    3.10   397.30576   142.23482   205.99112
   110  O   6.0   -0.30    1.28    1.80   397.12819   140.02423   205.30963
   111  C   4.0   -0.02    4.29    4.18   402.03181   142.67931   206.16868
   112  C   4.0    0.25    3.15    3.03   402.06266   144.32344   203.76625
   113  O   6.0   -0.33    1.28    1.80   400.62703   143.63636   202.00795
   114  O   6.0   -0.32    1.26    1.80   403.51903   146.15810   203.73056
   115  H   1.0    0.11    1.09    1.44   400.08305   139.91272   209.73045
   116  H   1.0    0.07    1.07    1.44   399.28906   145.16032   207.95846
   117  H   1.0    0.05    1.03    1.43   403.60374   143.20698   207.39122
   118  H   1.0    0.07    1.03    1.43   402.13879   140.67417   205.69390
   119  N   5.0   -0.14    3.52    2.09   395.52054   143.94932   205.52826
   120  C   4.0    0.04    4.44    4.44   393.12526   143.30704   204.39783
   121  C   4.0    0.16    3.41    3.08   393.01514   143.81304   201.54779
   122  O   6.0   -0.30    1.24    1.80   390.99971   143.89845   200.42076
   123  C   4.0   -0.03    4.27    4.14   390.97444   144.64863   205.75166
   124  C   4.0    0.25    3.11    3.03   391.13237   147.59377   205.52396
   125  O   6.0   -0.28    1.23    1.80   393.23339   148.53039   205.00382
   126  O   6.0   -0.29    1.16    1.80   389.12008   148.75248   205.89814
   127  H   1.0    0.12    1.09    1.44   395.71489   145.82204   205.89947
   128  H   1.0    0.06    1.06    1.44   392.90847   141.24280   204.59498
   129  H   1.0    0.05    1.03    1.43   389.17125   144.06120   204.95356
   130  H   1.0    0.04    1.02    1.43   390.99907   144.20573   207.77006
   131  N   5.0   -0.13    3.55    2.11   395.26112   143.84142   200.39717
   132  C   4.0    0.04    4.47    4.50   395.54952   143.78851   197.68436
   133  C   4.0    0.14    3.42    3.08   396.50313   141.18347   196.83654
   134  O   6.0   -0.32    1.22    1.80   395.90364   140.25165   194.81689
   135  C   4.0    0.05    4.23    4.05   397.35254   145.89434   196.79768
   136  O   6.0   -0.25    2.12    1.84   396.19835   148.20918   197.48791
   137  C   4.0   -0.09    4.08    3.77   397.83397   145.77691   193.95710
   138  H   1.0    0.11    1.11    1.44   396.83762   144.08788   201.45030
   139  H   1.0    0.07    1.06    1.44   393.67599   144.11426   196.86752
   140  H   1.0    0.05    1.03    1.43   399.13621   145.67981   197.86246
   141  H   1.0    0.10    1.03    1.43   397.04126   149.55265   196.57902
   142  H   1.0    0.03    1.00    1.43   399.17780   147.23605   193.42345
   143  H   1.0    0.04    1.01    1.43   398.58555   143.94253   193.43563
   144  H   1.0    0.04    1.00    1.43   396.06102   146.06997   192.96278
   145  N   5.0   -0.14    3.52    2.09   398.07919   140.07606   198.47759
   146  C   4.0    0.03    4.45    4.46   399.43809   137.78413   197.91060
   147  C   4.0    0.15    3.42    3.08   398.69279   135.49077   199.50694
   148  O   6.0   -0.32    1.22    1.80   398.89919   133.35710   198.64812
   149  C   4.0    0.05    4.25    4.10   402.31313   138.18471   198.34238
   150  O   6.0   -0.27    2.15    1.85   402.78950   138.76085   200.91082
   151  C   4.0   -0.08    4.07    3.74   403.36684   140.20023   196.57880
   152  H   1.0    0.10    1.11    1.44   398.58273   141.05382   200.03846
   153  H   1.0    0.05    1.06    1.44   399.07130   137.32351   195.92722
   154  H   1.0    0.04    1.04    1.43   403.25257   136.36905   198.01626
   155  H   1.0    0.14    1.07    1.44   402.16345   140.45316   201.24938
   156  H   1.0    0.04    1.00    1.43   405.38480   140.40482   196.89616
   157  H   1.0    0.03    1.00    1.43   403.01600   139.68551   194.62616
   158  H   1.0    0.05    1.00    1.43   402.46173   142.00543   196.97617
   159  N   5.0   -0.14    3.43    2.04   397.99218   135.97245   201.88671
   160  C   4.0    0.02    4.26    4.11   397.56743   133.99216   203.70408
   161  C   4.0    0.16    3.32    3.06   399.86828   133.36048   205.34081
   162  O   6.0   -0.30    1.22    1.80   399.71726   131.81363   207.04597
   163  H   1.0    0.11    1.10    1.44   397.84380   137.75333   202.55746
   164  H   1.0    0.05    1.03    1.43   396.03243   134.53940   204.96689
   165  H   1.0    0.05    1.03    1.43   397.05659   132.26900   202.67998
   166  N   5.0   -0.13    3.51    2.09   402.03722   134.45974   204.63740
   167  C   4.0    0.03    4.42    4.42   404.32483   134.16638   206.09972
   168  C   4.0    0.15    3.41    3.08   404.10052   135.54799   208.63247
   169  O   6.0   -0.30    1.27    1.80   402.44332   137.11247   209.05892
   170  C   4.0   -0.04    4.29    4.18   406.55346   135.18709   204.56943
   171  C   4.0   -0.04    4.19    3.97   407.17266   133.51175   202.29962
   172  C   4.0   -0.04    4.19    3.98   409.02373   134.88974   200.56412
   173  C   4.0   -0.05    4.11    3.82   410.04812   133.26864   198.41913
   174  N   5.0   -0.12    4.02    2.92   411.50936   131.09879   199.42707
   175  H   1.0    0.10    1.10    1.44   401.98503   135.94951   203.43177
   176  H   1.0    0.05    1.06    1.44   404.55024   132.14629   206.50461
   177  H   1.0    0.05    1.03    1.43   406.06465   137.08438   203.91963
   178  H   1.0    0.05    1.03    1.43   408.21380   135.35986   205.78198
   179  H   1.0    0.04    1.03    1.43   407.99837   131.76528   203.01755
   180  H   1.0    0.04    1.03    1.43   405.42935   133.07243   201.28991
   181  H   1.0    0.04    1.03    1.43   408.08905   136.55185   199.78478
   182  H   1.0    0.06    1.04    1.43   410.60348   135.57274   201.69161
   183  H   1.0    0.03    1.02    1.43   408.50536   132.58080   197.23640
   184  H   1.0    0.03    1.02    1.43   411.30804   134.43491   197.28324
   185  H   1.0    0.04    1.02    1.43   412.78959   130.45286   198.13343
   186  H   1.0    0.10    1.14    1.45   412.51216   131.61517   201.19706
   187  H   1.0    0.04    1.02    1.43   410.32068   129.65966   199.92621
   188  N   5.0   -0.14    3.49    2.07   405.85697   134.89089   210.33383
   189  C   4.0    0.04    4.43    4.43   406.08784   136.11089   212.75460
   190  C   4.0    0.15    3.44    3.09   408.72224   137.25504   213.00605
   191  O   6.0   -0.32    1.28    1.80   410.57988   136.25224   212.05292
   192  C   4.0   -0.03    4.34    4.28   405.82432   134.18577   214.92993
   193  C   4.0   -0.01    3.55    3.14   403.31798   132.86374   214.98187
   194  C   4.0   -0.03    3.49    3.11   402.82369   130.91155   213.29552
   195  C   4.0   -0.05    3.46    3.10   401.48981   133.48993   216.75544
   196  C   4.0   -0.03    3.43    3.09   400.57419   129.59768   213.37381
   197  C   4.0   -0.06    3.43    3.09   399.24434   132.15401   216.88534
   198  C   4.0    0.06    3.45    3.10   398.78788   130.19660   215.20094
   199  O   6.0   -0.26    2.11    1.84   396.61100   128.80207   215.31349
   200  H   1.0    0.09    1.07    1.44   407.26250   133.66374   209.92247
   201  H   1.0    0.06    1.06    1.44   404.63774   137.57904   212.86543
   202  H   1.0    0.06    1.04    1.43   407.31690   132.78681   214.65730
   203  H   1.0    0.04    1.03    1.43   406.14419   135.17768   216.70889
   204  H   1.0    0.06    1.03    1.43   404.24529   130.39808   211.93153
   205  H   1.0    0.04    1.03    1.43   401.82208   135.00753   218.08011
   206  H   1.0    0.06    1.03    1.43   400.22032   128.11318   212.03286
   207  H   1.0    0.04    1.03    1.43   397.85953   132.63224   218.31266
   208  H   1.0    0.11    1.04    1.43   395.60712   129.38611   216.71981
   209  N   5.0   -0.14    3.51    2.09   408.84131   139.28326   214.49885
   210  C   4.0    0.03    4.46    4.47   411.18304   140.55685   215.06306
   211  C   4.0    0.14    3.42    3.08   411.29613   141.03406   217.90320
   212  O   6.0   -0.32    1.31    1.80   409.40916   141.06499   219.23831
   213  C   4.0   -0.04    4.32    4.23   411.40160   143.05956   213.57384
   214  C   4.0   -0.01    3.59    3.16   411.54061   142.41821   210.81458
   215  C   4.0   -0.04    3.48    3.11   409.34437   142.13458   209.40552
   216  C   4.0   -0.05    3.46    3.10   413.84398   141.85262   209.69010
   217  C   4.0   -0.04    3.43    3.09   409.43169   141.25777   206.94949
   218  C   4.0   -0.05    3.44    3.09   413.94748   140.94622   207.24869
   219  C   4.0    0.07    3.45    3.09   411.73704   140.58660   205.87081
   220  O   6.0   -0.25    2.12    1.84   411.78106   139.61958   203.50141
   221  H   1.0    0.11    1.09    1.44   407.25083   140.25811   214.93768
   222  H   1.0    0.05    1.06    1.44   412.71296   139.28350   214.48962
   223  H   1.0    0.05    1.03    1.43   409.73268   144.20597   213.96220
   224  H   1.0    0.04    1.03    1.43   413.09046   144.06991   214.18181
   225  H   1.0    0.06    1.03    1.43   407.53326   142.57157   210.24903
   226  H   1.0    0.04    1.03    1.43   415.57094   142.11522   210.74634
   227  H   1.0    0.06    1.03    1.43   407.71645   141.04900   205.86178
   228  H   1.0    0.05    1.03    1.43   415.72817   140.46690   206.37908
   229  H   1.0    0.14    1.08    1.44   413.28942   138.54406   203.31487
   230  N   5.0   -0.15    3.47    2.06   413.62291   141.44911   218.78723
   231  C   4.0    0.03    4.35    4.29   414.11000   141.75334   221.45633
   232  C   4.0    0.14    3.44    3.09   416.29409   143.59972   221.81975
   233  O   6.0   -0.32    1.25    1.80   418.16736   143.51862   220.47378
   234  C   4.0   -0.07    4.11    3.82   414.87071   139.22846   222.65726
   235  H   1.0    0.08    1.07    1.44   415.13216   141.16020   217.64564
   236  H   1.0    0.05    1.06    1.44   412.35790   142.44730   222.30525
   237  H   1.0    0.05    1.00    1.43   415.36453   139.48622   224.63189
   238  H   1.0    0.04    1.00    1.43   413.31438   137.89982   222.49897
   239  H   1.0    0.05    1.00    1.43   416.50059   138.45613   221.67216
   240  N   5.0   -0.14    3.45    2.05   415.95657   145.28924   223.69925
   241  C   4.0    0.03    4.35    4.29   418.13336   146.59650   224.76001
   242  C   4.0    0.08    3.25    3.04   419.38428   144.71046   226.56703
   243  O   6.0   -0.31    1.18    1.80   418.08085   143.50484   228.07081
   244  C   4.0   -0.04    4.25    4.09   417.42663   149.03053   226.13744
   245  C   4.0   -0.05    4.20    4.00   419.85222   150.47413   226.77171
   246  C   4.0   -0.06    4.16    3.92   419.39088   153.18391   227.66184
   247  C   4.0   -0.04    4.12    3.85   418.21700   153.26740   230.29455
   248  N   5.0   -0.13    4.01    2.89   418.21343   155.91656   231.26762
   249  H   1.0    0.08    1.07    1.44   414.58909   144.88627   224.97565
   250  H   1.0    0.05    1.06    1.44   419.41808   147.01610   223.20489
   251  H   1.0    0.04    1.03    1.43   416.26267   150.16964   224.88028
   252  H   1.0    0.05    1.03    1.43   416.39295   148.56034   227.85813
   253  H   1.0    0.05    1.02    1.43   420.92179   149.44079   228.20580
   254  H   1.0    0.03    1.03    1.43   421.02463   150.53086   225.07577
   255  H   1.0    0.03    1.03    1.43   421.22862   154.11674   227.71525
   256  H   1.0    0.04    1.03    1.43   418.20572   154.16207   226.28828
   257  H   1.0    0.04    1.02    1.43   416.27803   152.56915   230.26032
   258  H   1.0    0.04    1.02    1.43   419.32744   152.07200   231.55860
   259  H   1.0    0.04    1.02    1.43   417.38398   155.98311   233.02372
   260  H   1.0    0.03    1.02    1.43   420.04510   156.56308   231.40624
   261  H   1.0    0.04    1.02    1.43   417.22593   157.05393   230.03007
   262  N   5.0   -0.21    3.23    1.96   424.19738   148.20265   218.03436
   263  C   4.0    0.03    4.23    4.06   422.07483   146.67042   217.26070
   264  C   4.0    0.08    3.21    3.04   422.92632   144.52174   215.52732
   265  O   6.0   -0.31    1.13    1.80   424.67425   144.73573   214.02654
   266  C   4.0   -0.03    4.33    4.25   420.07121   148.24733   215.85009
   267  C   4.0   -0.02    3.56    3.15   418.85098   150.12911   217.58248
   268  C   4.0   -0.06    3.48    3.11   420.03396   152.40426   218.15324
   269  C   4.0   -0.04    3.47    3.10   416.53269   149.60482   218.68921
   270  C   4.0   -0.05    3.43    3.09   418.94842   154.10134   219.80974
   271  C   4.0   -0.06    3.44    3.09   415.39741   151.31786   220.30437
   272  C   4.0    0.06    3.45    3.10   416.61446   153.57216   220.89533
   273  O   6.0   -0.27    2.12    1.84   415.62638   155.25473   222.55737
   274  H   1.0    0.09    1.03    1.43   425.36257   148.81230   216.65277
   275  H   1.0    0.06    1.06    1.44   421.24407   145.88377   218.98107
   276  H   1.0    0.05    1.03    1.43   420.97711   149.18464   214.25500
   277  H   1.0    0.05    1.03    1.43   418.65769   146.95013   215.09565
   278  H   1.0    0.04    1.03    1.43   421.82411   152.85147   217.28234
   279  H   1.0    0.05    1.03    1.43   415.61811   147.82976   218.27120
   280  H   1.0    0.04    1.03    1.43   419.87666   155.85679   220.26142
   281  H   1.0    0.04    1.03    1.43   413.55642   150.89920   221.07907
   282  H   1.0    0.11    1.04    1.43   413.90761   154.77327   222.95790
   283  N   5.0   -0.20    3.22    1.96   419.23648   137.19938   212.05616
   284  C   4.0    0.03    4.32    4.24   417.00723   135.74413   211.41243
   285  C   4.0    0.14    3.42    3.08   416.83516   133.39017   213.08593
   286  O   6.0   -0.32    1.23    1.80   418.73009   132.15910   213.63341
   287  C   4.0   -0.04    4.28    4.15   417.11685   134.95345   208.63207
   288  C   4.0   -0.03    4.19    3.98   414.64064   133.79707   207.73076
   289  C   4.0    0.24    3.12    3.03   414.42898   133.78554   204.82607
   290  O   6.0   -0.34    1.37    1.80   413.52458   131.81413   203.85708
   291  O   6.0   -0.34    1.24    1.80   415.07828   135.69432   203.62774
   292  H   1.0    0.08    1.03    1.43   420.90137   136.53583   211.40610
   293  H   1.0    0.05    1.06    1.44   415.35665   136.94620   211.72906
   294  H   1.0    0.05    1.03    1.43   417.50414   136.62492   207.48536
   295  H   1.0    0.04    1.02    1.43   418.67042   133.61771   208.35851
   296  H   1.0    0.05    1.02    1.43   414.38743   131.87046   208.41901
   297  H   1.0    0.06    1.03    1.43   413.06203   134.93942   208.42390
   298  N   5.0   -0.14    3.49    2.07   414.52005   132.80668   213.88115
   299  C   4.0    0.03    4.39    4.35   413.99974   130.55587   215.34097
   300  C   4.0    0.06    3.22    3.04   411.77793   129.14514   214.14639
   301  O   6.0   -0.30    1.14    1.80   410.17287   130.19237   212.85183
   302  C   4.0   -0.03    4.24    4.08   413.55964   131.12729   218.17786
   303  C   4.0   -0.08    4.12    3.85   415.73836   132.70780   219.22000
   304  C   4.0   -0.08    4.12    3.83   411.05815   132.46536   218.66767
   305  H   1.0    0.11    1.10    1.44   413.00176   133.79575   213.24456
   306  H   1.0    0.04    1.07    1.44   415.66276   129.33216   215.22211
   307  H   1.0    0.02    1.05    1.44   413.54127   129.29055   219.12725
   308  H   1.0    0.03    1.00    1.43   415.56537   132.87653   221.25834
   309  H   1.0    0.04    1.00    1.43   417.54648   131.84252   218.77489
   310  H   1.0    0.05    1.00    1.43   415.71513   134.58967   218.39145
   311  H   1.0    0.03    1.00    1.43   410.88858   132.89987   220.66624
   312  H   1.0    0.05    1.00    1.43   410.95859   134.22264   217.60523
   313  H   1.0    0.04    1.00    1.43   409.47476   131.27282   218.12926
   314  N   5.0   -0.20    3.24    1.96   428.28188   145.77122   208.73220
   315  C   4.0    0.02    4.22    4.04   427.39196   146.31504   206.20310
   316  C   4.0    0.06    3.21    3.04   427.99498   149.04986   205.49395
   317  O   6.0   -0.33    1.20    1.80   427.75924   150.77093   207.03398
   318  C   4.0   -0.05    4.36    4.31   424.51917   145.95984   206.07468
   319  C   4.0   -0.02    4.19    3.97   423.61054   143.35023   206.95445
   320  C   4.0   -0.08    4.10    3.81   420.72518   143.30637   206.90683
   321  C   4.0   -0.09    4.10    3.80   424.69696   141.22770   205.33029
   322  H   1.0    0.10    1.03    1.43   426.99234   145.62803   210.13315
   323  H   1.0    0.02    1.05    1.44   428.37133   145.04526   204.89418
   324  H   1.0    0.06    1.03    1.43   423.62517   147.39201   207.26447
   325  H   1.0    0.03    1.03    1.43   423.90162   146.28020   204.13292
   326  H   1.0    0.05    1.06    1.44   424.21704   143.06111   208.91152
   327  H   1.0    0.03    1.00    1.43   420.02124   141.54982   207.70988
   328  H   1.0    0.06    1.00    1.43   419.96416   144.87676   207.99204
   329  H   1.0    0.03    1.00    1.43   420.03417   143.45483   204.97663
   330  H   1.0    0.03    1.00    1.43   423.81016   139.43815   205.81611
   331  H   1.0    0.02    1.00    1.43   424.33610   141.58917   203.33952
   332  H   1.0    0.02    1.00    1.43   426.72294   141.03780   205.61762
   333  N   5.0   -0.24    3.15    1.95   426.47173   155.30490   204.12946
   334  C   4.0   -0.00    4.15    3.90   424.19144   156.70414   204.65066
   335  C   4.0    0.14    3.30    3.05   422.77868   155.92923   207.04892
   336  O   6.0   -0.32    1.23    1.80   421.02604   157.20919   207.86147
   337  H   1.0    0.08    1.02    1.43   427.92494   155.50082   205.35168
   338  H   1.0    0.03    1.02    1.43   424.60546   158.72260   204.78983
   339  H   1.0    0.03    1.03    1.43   422.90554   156.41087   203.05640
   340  N   5.0   -0.14    3.38    2.01   423.58172   153.82053   208.17472
   341  C   4.0    0.01    4.25    4.10   422.48493   152.93527   210.51517
   342  C   4.0    0.15    3.31    3.05   419.85994   151.74481   210.14862
   343  O   6.0   -0.32    1.21    1.80   419.59444   149.49495   209.69646
   344  H   1.0    0.11    1.12    1.45   425.05836   152.80078   207.48018
   345  H   1.0    0.05    1.03    1.43   423.75283   151.49591   211.27090
   346  H   1.0    0.04    1.03    1.43   422.31545   154.52144   211.83216
   347  N   5.0   -0.14    3.45    2.05   417.93613   153.34554   210.52162
   348  C   4.0    0.03    4.41    4.40   415.32291   152.52085   210.64256
   349  C   4.0    0.14    3.53    3.13   413.88842   153.40150   208.29348
   350  O   6.0   -0.30    1.27    1.80   413.57790   155.66240   207.86905
   351  C   4.0   -0.04    4.36    4.31   414.08633   153.68651   212.99099
   352  C   4.0   -0.02    4.18    3.97   411.36424   152.79553   213.43674
   353  C   4.0   -0.08    4.11    3.82   411.26338   150.03588   214.27061
   354  C   4.0   -0.08    4.11    3.82   410.12554   154.43885   215.46236
   355  H   1.0    0.10    1.07    1.44   418.26429   155.22920   210.43027
   356  H   1.0    0.05    1.07    1.44   415.37460   150.46441   210.75467
   357  H   1.0    0.04    1.03    1.43   415.23627   153.23079   214.64126
   358  H   1.0    0.05    1.03    1.43   414.07899   155.73293   212.72357
   359  H   1.0    0.06    1.05    1.44   410.28371   153.00945   211.67963
   360  H   1.0    0.04    1.00    1.43   409.32166   149.51924   214.69797
   361  H   1.0    0.04    1.00    1.43   411.94030   148.77310   212.79954
   362  H   1.0    0.04    1.01    1.43   412.40609   149.77624   215.95401
   363  H   1.0    0.05    1.00    1.43   408.17933   153.83912   215.75723
   364  H   1.0    0.04    1.00    1.43   411.15796   154.26720   217.22903
   365  H   1.0    0.04    1.00    1.43   410.10254   156.41063   214.88753
   366  N   5.0   -0.09    3.67    2.23   413.06273   151.65230   206.65658
   367  C   4.0    0.03    4.61    4.68   411.61176   152.52916   204.48782
   368  C   4.0    0.16    3.47    3.10   409.17255   153.76354   205.44182
   369  O   6.0   -0.31    1.31    1.80   407.95700   152.89839   207.21340
   370  C   4.0   -0.05    4.32    4.23   411.11710   150.14157   202.93097
   371  C   4.0   -0.04    4.26    4.13   411.10965   148.05173   204.92055
   372  C   4.0   -0.01    4.33    4.26   413.08012   148.91291   206.85021
   373  H   1.0    0.04    1.05    1.44   412.72177   153.94364   203.46529
   374  H   1.0    0.04    1.02    1.43   409.33363   150.22779   201.91029
   375  H   1.0    0.03    1.02    1.43   412.65674   149.86181   201.59484
   376  H   1.0    0.05    1.03    1.43   409.25258   147.95096   205.80710
   377  H   1.0    0.04    1.02    1.43   411.54125   146.20033   204.14175
   378  H   1.0    0.04    1.02    1.43   412.56464   148.27323   208.73865
   379  H   1.0    0.04    1.02    1.43   414.96513   148.19857   206.38321
   380  N   5.0   -0.15    3.46    2.05   408.44342   155.82408   204.16018
   381  C   4.0    0.03    4.34    4.27   406.40864   157.43687   205.04843
   382  C   4.0    0.15    3.45    3.10   403.98396   155.94957   205.56322
   383  O   6.0   -0.31    1.23    1.80   402.55524   156.54513   207.27371
   384  C   4.0   -0.09    4.11    3.83   405.86291   159.49404   203.10411
   385  H   1.0    0.06    1.07    1.44   409.60851   156.58858   202.85688
   386  H   1.0    0.05    1.05    1.44   406.93820   158.28911   206.86589
   387  H   1.0    0.03    1.00    1.43   404.28745   160.63536   203.75911
   388  H   1.0    0.02    1.00    1.43   407.51236   160.69614   202.88213
   389  H   1.0    0.03    1.00    1.43   405.36226   158.64667   201.30223
   390  N   5.0   -0.14    3.56    2.12   403.47066   154.11442   203.88827
   391  C   4.0    0.04    4.45    4.47   401.24080   152.56086   203.95434
   392  C   4.0    0.16    3.39    3.08   401.12826   150.68308   206.15492
   393  O   6.0   -0.29    1.23    1.80   399.27483   149.29696   206.42365
   394  C   4.0    0.06    4.25    4.11   401.07398   151.21119   201.35897
   395  O   6.0   -0.26    2.16    1.85   403.45370   150.20349   200.72718
   396  C   4.0   -0.08    4.08    3.77   400.31357   153.08865   199.30330
   397  H   1.0    0.09    1.09    1.44   404.78698   153.49243   202.64069
   398  H   1.0    0.05    1.06    1.44   399.55476   153.74182   204.22314
   399  H   1.0    0.07    1.03    1.43   399.64081   149.71388   201.52964
   400  H   1.0    0.16    1.09    1.44   403.68819   148.63952   201.70601
   401  H   1.0    0.04    1.00    1.43   400.63768   152.22280   197.47226
   402  H   1.0    0.04    1.00    1.43   398.33024   153.56351   199.51855
   403  H   1.0    0.03    1.00    1.43   401.45397   154.78754   199.45335
   404  N   5.0   -0.13    3.51    2.09   403.06044   150.72953   207.77331
   405  C   4.0    0.04    4.35    4.29   403.12507   149.24256   210.06186
   406  C   4.0    0.16    3.38    3.07   402.35338   150.85619   212.34810
   407  O   6.0   -0.31    1.23    1.80   403.65219   151.04051   214.24333
   408  C   4.0   -0.06    4.12    3.84   405.71893   148.06223   210.40279
   409  H   1.0    0.12    1.12    1.45   404.62340   151.80335   207.45162
   410  H   1.0    0.07    1.07    1.44   401.67245   147.77088   209.90043
   411  H   1.0    0.06    1.00    1.43   405.70030   146.83999   212.05186
   412  H   1.0    0.05    1.00    1.43   406.16326   146.94806   208.73503
   413  H   1.0    0.06    1.00    1.43   407.11499   149.54559   210.63965
   414  N   5.0   -0.13    3.53    2.10   400.12493   152.02591   212.06710
   415  C   4.0    0.04    4.44    4.45   398.94624   153.58422   213.95571
   416  C   4.0    0.15    3.43    3.09   397.39137   152.12526   215.88906
   417  O   6.0   -0.30    1.24    1.80   396.52709   153.18611   217.76174
   418  C   4.0    0.06    4.26    4.11   397.06319   155.43089   212.62426
   419  O   6.0   -0.24    2.15    1.85   395.83438   154.14890   210.62761
   420  C   4.0   -0.07    4.06    3.73   398.41991   157.74812   211.58413
   421  H   1.0    0.11    1.09    1.44   399.06676   151.77794   210.49140
   422  H   1.0    0.05    1.05    1.44   400.39586   154.65090   214.97460
   423  H   1.0    0.05    1.04    1.43   395.66874   156.01189   214.05297
   424  H   1.0    0.16    1.08    1.44   394.30253   153.34459   211.29737
   425  H   1.0    0.04    1.00    1.43   397.04298   158.92653   210.62446
   426  H   1.0    0.03    1.00    1.43   399.27514   158.78761   213.12863
   427  H   1.0    0.07    1.02    1.43   399.85166   157.16999   210.23537
   428  N   5.0   -0.13    3.50    2.08   396.96115   149.68359   215.40550
   429  C   4.0    0.04    4.47    4.49   394.94495   148.34874   216.67985
   430  C   4.0    0.16    3.45    3.09   395.98872   146.97370   219.00220
   431  O   6.0   -0.31    1.31    1.80   396.52169   144.71619   218.96140
   432  C   4.0   -0.03    4.29    4.17   393.64649   146.52140   214.87408
   433  C   4.0   -0.03    4.19    3.97   392.60790   147.86688   212.54461
   434  C   4.0    0.25    3.14    3.03   390.90539   150.11781   213.35606
   435  O   6.0   -0.29    1.17    1.80   388.85708   149.58186   214.36757
   436  O   6.0   -0.31    1.24    1.80   391.74263   152.30065   212.99236
   437  H   1.0    0.10    1.09    1.44   397.71194   148.84074   213.86775
   438  H   1.0    0.07    1.07    1.44   393.57811   149.77065   217.33453
   439  H   1.0    0.06    1.03    1.43   395.02049   145.09293   214.30664
   440  H   1.0    0.05    1.03    1.43   392.09049   145.61696   215.88684
   441  H   1.0    0.06    1.02    1.43   394.12249   148.55845   211.31888
   442  H   1.0    0.05    1.02    1.43   391.43753   146.57533   211.43647
   443  N   5.0   -0.13    3.47    2.06   396.29377   148.41504   221.03611
   444  C   4.0    0.04    4.44    4.44   396.88171   147.30818   223.48207
   445  C   4.0    0.16    3.49    3.11   394.96582   145.20347   223.98721
   446  O   6.0   -0.30    1.24    1.80   392.68540   145.63671   223.96027
   447  C   4.0   -0.03    4.27    4.15   396.66522   149.27070   225.56187
   448  C   4.0    0.25    3.09    3.02   399.06091   151.00220   225.75515
   449  O   6.0   -0.30    1.19    1.80   401.13318   150.00865   225.29586
   450  O   6.0   -0.30    1.16    1.80   398.67827   153.22213   226.41862
   451  H   1.0    0.10    1.07    1.44   395.90000   150.28096   220.92234
   452  H   1.0    0.07    1.06    1.44   398.80660   146.54117   223.45041
   453  H   1.0    0.06    1.02    1.43   394.98978   150.44268   225.28415
   454  H   1.0    0.06    1.03    1.43   396.46566   148.30917   227.38429
   455  N   5.0   -0.13    3.48    2.07   395.96499   142.95496   224.53173
   456  C   4.0    0.04    4.39    4.37   394.40886   140.77635   225.03348
   457  C   4.0    0.07    3.22    3.04   395.32343   139.38562   227.39135
   458  O   6.0   -0.31    1.14    1.80   397.55289   139.08222   227.90243
   459  C   4.0   -0.02    4.26    4.12   394.37140   138.87800   222.80333
   460  C   4.0   -0.07    4.10    3.81   392.86706   139.95124   220.59284
   461  C   4.0   -0.07    4.13    3.86   397.04554   138.17659   221.99558
   462  H   1.0    0.11    1.11    1.44   397.83596   142.67107   224.21318
   463  H   1.0    0.05    1.07    1.44   392.48867   141.49730   225.32874
   464  H   1.0    0.03    1.06    1.44   393.40400   137.16449   223.44640
   465  H   1.0    0.04    1.00    1.43   392.87673   138.62498   219.02650
   466  H   1.0    0.05    1.00    1.43   390.90783   140.29832   221.12095
   467  H   1.0    0.07    1.01    1.43   393.68159   141.73041   219.96698
   468  H   1.0    0.03    1.00    1.43   396.96437   136.60754   220.67770
   469  H   1.0    0.06    1.00    1.43   397.95610   139.78326   221.09849
   470  H   1.0    0.05    1.01    1.43   398.14503   137.61008   223.63435
   471  N   5.0   -0.21    3.24    1.97   388.60012   130.67486   216.51622
   472  C   4.0    0.03    4.22    4.03   386.73248   131.67135   214.78019
   473  C   4.0    0.06    3.21    3.04   386.13228   129.63469   212.77756
   474  O   6.0   -0.31    1.14    1.80   387.74332   128.11421   212.14171
   475  C   4.0   -0.05    4.27    4.15   387.81722   133.97186   213.37991
   476  C   4.0   -0.04    4.22    4.04   388.62090   136.11942   215.14707
   477  C   4.0    0.14    3.22    3.04   386.42113   137.32316   216.53269
   478  O   6.0   -0.32    1.19    1.80   386.21963   137.26581   218.83197
   479  N   5.0   -0.19    3.19    1.95   384.68891   138.43841   215.03550
   480  H   1.0    0.09    1.03    1.43   390.34777   130.46568   215.77169
   481  H   1.0    0.03    1.04    1.44   385.03240   132.18207   215.83590
   482  H   1.0    0.05    1.03    1.43   389.47176   133.38353   212.29424
   483  H   1.0    0.03    1.03    1.43   386.38035   134.65395   212.07187
   484  H   1.0    0.04    1.03    1.43   389.92560   135.43156   216.58621
   485  H   1.0    0.04    1.03    1.43   389.56913   137.58830   214.05106
   486  H   1.0    0.08    1.03    1.43   384.95539   138.65484   213.16757
   487  H   1.0    0.09    1.03    1.43   383.17786   139.29485   215.81196
   488  H   1.0    0.09    1.10    1.44   381.96633   140.00402   204.20697
   489  H   1.0    0.03    1.04    1.43   379.31471   136.75260   210.56242
   490  H   1.0    0.10    1.07    1.44   416.59050   142.13003   233.76185
   491  H   1.0    0.05    1.04    1.44   410.98635   145.88153   234.36246
   492  H   1.0    0.09    1.07    1.44   404.88155   144.17711   233.32526
   493  H   1.0    0.05    1.04    1.43   421.25687   144.46021   226.52385
   494  H   1.0    0.08    1.09    1.44   423.63149   149.60498   218.81268
   495  H   1.0    0.05    1.05    1.44   422.04438   142.85160   215.58957
   496  H   1.0    0.08    1.07    1.44   419.08731   138.77351   211.42971
   497  H   1.0    0.03    1.05    1.44   411.58973   127.28325   214.40912
   498  H   1.0    0.07    1.07    1.44   429.10074   144.28059   208.73764
   499  H   1.0    0.03    1.04    1.44   428.59321   149.46381   203.74986
   500  H   1.0    0.10    1.09    1.44   426.12407   153.64019   204.10860
   501  H   1.0    0.04    1.05    1.44   394.07062   138.66810   228.61065
   502  H   1.0    0.09    1.07    1.44   388.75427   131.72257   217.84705
   503  H   1.0    0.03    1.04    1.43   384.41435   129.55726   211.99412

  Z AO/shell   Hii/eV     exponent
  1     Wed Apr 25 08:07:45 CEST 2018   EN: 2.200 GM2: 0.406  GM3: 0.0800  RAES: 1.40
     1s    -10.707211    1.230000
  6     Wed Apr 25 08:07:45 CEST 2018   EN: 2.550 GM2: 0.538  GM3: 0.1500  RAES: 3.00
     2s    -13.970922    2.096432
     2p    -10.063292    1.800000
  7     Wed Apr 25 08:07:45 CEST 2018   EN: 3.040 GM2: 0.461  GM3:-0.0640  RAES: 1.90
     2s    -16.686243    2.339881
     2p    -12.523956    2.014332
  8     Wed Apr 25 08:07:45 CEST 2018   EN: 3.440 GM2: 0.452  GM3:-0.0517  RAES: 1.80
     2s    -20.229985    2.439742
     2p    -15.503117    2.137023
 no old-style atom pair restraining (fixing) potential

molecular fragmentation (1/2 indicates fragments):
111111111111111111111222222222222222222222222222222222222222222222222222
222222222222222222222222222222222222222222222222222222222222222222222222
222222222222222222222222222222222222222222222222222222222222222222222222
222222222222222222222222222222222222222222222222222222222222222222222222
222222222222222222222222222222222222222222222222222222222222222222222222
222222222222222222222222222222222222222222222222222222222222222222222222
22222222222222222222222222222222222222222222222222222221122222222222222
# atoms in fragment 1/2:    23   480
 fragment masses (1/2) :      165.19     3416.77
CMA distance (Bohr)    :  23.599
constraining FC (au)   :  0.0500
           ------------------------------------------------- 
          |        Self-Consistent Charge Iterations        |
           ------------------------------------------------- 

 Ncao       : 1262
 Nao        : 1262
 Nshell     : 756
 Nel        : 1412
 T(el)      :   500.0
 intcut     :    35.0
 scfconv/Eh :  0.100E-06
   qconv/e  :  0.100E-04
 intneglect :  0.100E-08
 broydamp   :      0.400
 iter      E             dE          RMSdq      gap      omega  full diag
   1   -812.5339068 -0.812534E+03  0.479E+00    3.24       0.0  T
   2   -814.6674249 -0.213352E+01  0.225E+00    1.84       1.0  T
   3   -814.8031688 -0.135744E+00  0.129E+00    2.11       1.0  T
   4   -814.9333859 -0.130217E+00  0.273E-01    1.31       1.0  T
   5   -814.9420704 -0.868451E-02  0.144E-01    1.36       1.0  T
   6   -814.9437755 -0.170507E-02  0.684E-02    1.31       1.0  T
   7   -814.9443971 -0.621551E-03  0.315E-02    1.28       1.0  T
   8   -814.9445026 -0.105572E-03  0.167E-02    1.27       1.0  T
   9   -814.9445411 -0.384414E-04  0.786E-03    1.25       1.0  T
  10   -814.9445491 -0.804646E-05  0.347E-03    1.24       1.3  T
  11   -814.9445508 -0.170042E-05  0.159E-03    1.24       2.8  T
  12   -814.9445511 -0.285286E-06  0.765E-04    1.24       5.8  T
  13   -814.9445512 -0.869368E-07  0.381E-04    1.24      11.7  T
  14   -814.9445512 -0.171912E-07  0.173E-04    1.24      25.7  T
  15   -814.9445512 -0.408477E-08  0.890E-05    1.24      50.1  T
  16   -814.9445512 -0.111686E-08  0.472E-05    1.24      94.6  T
speedup 13.91
cpu  time for SCC    1 m  6.6 s
wall time for SCC    0 m  4.8 s

   *** convergence criteria satisfied after 16 iterations ***

          eigenvalues
 #    :         694        695        696        697        698        699        700        701
 occ. :        2.000      2.000      2.000      2.000      2.000      2.000      2.000      2.000
 eps  :       -10.316    -10.273    -10.168    -10.157    -10.046    -10.013     -9.990     -9.867
 #    :         702        703        704        705        706        707        708        709
 occ. :        2.000      2.000      2.000      2.000      2.000      0.000      0.000      0.000
 eps  :        -9.814     -9.803     -9.756     -9.704     -9.460     -8.220     -8.040     -7.965
 #    :         710        711        712        713        714        715        716        717
 occ. :        0.000      0.000      0.000      0.000      0.000      0.000      0.000      0.000
 eps  :        -7.951     -7.895     -7.755     -7.658     -7.483     -6.977     -6.935     -6.829


   #   Z            q   n(s)   n(p)   n(d)      C6AA      α(0)
   1   7 N     -0.375  1.307  4.067  0.000    29.677     8.091
   2   6 C      0.036  1.060  2.904  0.000    19.984     6.368
   3   6 C      0.194  1.088  2.718  0.000    23.850     7.998
   4   8 O     -0.380  1.765  4.615  0.000    21.290     6.186
   5   6 C     -0.060  1.054  3.006  0.000    21.641     6.622
   6   6 C     -0.004  1.075  2.929  0.000    28.113     8.697
   7   6 C     -0.038  1.078  2.959  0.000    28.936     8.822
   8   6 C     -0.045  1.084  2.961  0.000    29.109     8.848
   9   6 C     -0.059  1.077  2.982  0.000    29.457     8.900
  10   6 C     -0.078  1.080  2.998  0.000    29.944     8.973
  11   6 C      0.146  1.045  2.809  0.000    24.819     8.165
  12   8 O     -0.441  1.731  4.711  0.000    21.669     6.284
  13   1 H      0.157  0.843  0.000  0.000     1.355     1.823
  14   1 H      0.082  0.918  0.000  0.000     1.958     2.188
  15   1 H      0.020  0.980  0.000  0.000     2.729     2.583
  16   1 H      0.046  0.954  0.000  0.000     2.371     2.408
  17   1 H      0.007  0.993  0.000  0.000     2.938     2.681
  18   1 H      0.064  0.936  0.000  0.000     2.151     2.293
  19   1 H      0.034  0.966  0.000  0.000     2.528     2.486
  20   1 H      0.069  0.931  0.000  0.000     2.100     2.266
  21   1 H      0.363  0.637  0.000  0.000     0.558     1.173
  22   7 N     -0.389  1.308  4.081  0.000    30.076     8.145
  23   6 C      0.048  1.053  2.899  0.000    19.792     6.338
  24   6 C      0.192  1.100  2.708  0.000    23.897     8.006
  25   8 O     -0.347  1.730  4.616  0.000    20.644     6.092
  26   6 C     -0.105  1.072  3.033  0.000    22.496     6.752
  27   6 C      0.374  1.023  2.603  0.000    20.661     7.438
  28   8 O     -0.654  1.778  4.875  0.000    27.478     7.028
  29   8 O     -0.647  1.769  4.878  0.000    27.303     7.006
  30   1 H      0.176  0.824  0.000  0.000     1.236     1.741
  31   1 H      0.040  0.960  0.000  0.000     2.447     2.446
  32   1 H      0.049  0.951  0.000  0.000     2.335     2.390
  33   1 H      0.025  0.975  0.000  0.000     2.664     2.552
  34   7 N     -0.380  1.300  4.080  0.000    29.823     8.111
  35   6 C      0.053  1.050  2.897  0.000    19.702     6.322
  36   6 C      0.263  1.054  2.683  0.000    22.569     7.781
  37   8 O     -0.458  1.704  4.753  0.000    22.864     6.411
  38   6 C     -0.076  1.062  3.014  0.000    21.950     6.669
  39   6 C      0.371  1.025  2.604  0.000    20.706     7.447
  40   8 O     -0.613  1.752  4.861  0.000    26.450     6.895
  41   8 O     -0.680  1.788  4.892  0.000    28.162     7.115
  42   1 H      0.165  0.835  0.000  0.000     1.306     1.790
  43   1 H      0.006  0.994  0.000  0.000     2.964     2.693
  44   1 H      0.017  0.983  0.000  0.000     2.775     2.605
  45   1 H      0.002  0.998  0.000  0.000     3.030     2.722
  46   7 N     -0.156  1.241  3.916  0.000    24.383     7.334
  47   6 C      0.015  1.065  2.920  0.000    20.322     6.417
  48   6 C      0.277  1.042  2.680  0.000    22.309     7.735
  49   8 O     -0.514  1.758  4.757  0.000    24.103     6.582
  50   6 C     -0.072  1.057  3.015  0.000    21.875     6.658
  51   6 C     -0.015  1.059  2.955  0.000    20.802     6.487
  52   6 C     -0.124  1.042  3.082  0.000    22.943     6.830
  53   6 C     -0.123  1.043  3.081  0.000    22.916     6.825
  54   1 H      0.198  0.802  0.000  0.000     1.116     1.655
  55   1 H      0.101  0.899  0.000  0.000     1.773     2.083
  56   1 H      0.052  0.948  0.000  0.000     2.294     2.369
  57   1 H      0.044  0.956  0.000  0.000     2.396     2.421
  58   1 H      0.049  0.951  0.000  0.000     2.331     2.388
  59   1 H      0.064  0.936  0.000  0.000     2.158     2.297
  60   1 H      0.040  0.960  0.000  0.000     2.448     2.447
  61   1 H      0.037  0.963  0.000  0.000     2.486     2.466
  62   1 H      0.063  0.937  0.000  0.000     2.160     2.298
  63   1 H      0.045  0.955  0.000  0.000     2.380     2.413
  64   1 H      0.040  0.960  0.000  0.000     2.445     2.445
  65   7 N     -0.187  1.257  3.930  0.000    25.043     7.432
  66   6 C      0.036  1.057  2.907  0.000    19.983     6.365
  67   6 C      0.271  1.053  2.675  0.000    22.414     7.753
  68   8 O     -0.485  1.732  4.753  0.000    23.457     6.494
  69   6 C     -0.069  1.050  3.018  0.000    21.811     6.649
  70   6 C     -0.064  1.050  3.014  0.000    21.727     6.636
  71   6 C     -0.091  1.055  3.037  0.000    22.239     6.714
  72   6 C     -0.042  1.057  2.985  0.000    21.418     6.606
  73   7 N     -0.154  1.234  3.920  0.000    24.322     7.325
  74   1 H      0.256  0.744  0.000  0.000     0.862     1.454
  75   1 H      0.029  0.971  0.000  0.000     2.597     2.520
  76   1 H      0.076  0.924  0.000  0.000     2.019     2.222
  77   1 H      0.044  0.956  0.000  0.000     2.397     2.421
  78   1 H      0.067  0.933  0.000  0.000     2.114     2.273
  79   1 H      0.021  0.979  0.000  0.000     2.725     2.581
  80   1 H      0.070  0.930  0.000  0.000     2.091     2.261
  81   1 H      0.089  0.911  0.000  0.000     1.890     2.150
  82   1 H      0.118  0.882  0.000  0.000     1.628     1.996
  83   1 H      0.095  0.905  0.000  0.000     1.835     2.119
  84   1 H      0.289  0.711  0.000  0.000     0.749     1.355
  85   1 H      0.299  0.701  0.000  0.000     0.717     1.327
  86   1 H      0.288  0.712  0.000  0.000     0.751     1.358
  87   7 N     -0.189  1.263  3.926  0.000    25.088     7.439
  88   6 C      0.044  1.057  2.899  0.000    19.837     6.341
  89   6 C      0.290  1.039  2.671  0.000    22.083     7.695
  90   8 O     -0.539  1.763  4.777  0.000    24.676     6.660
  91   6 C     -0.078  1.054  3.024  0.000    21.979     6.673
  92   6 C      0.005  1.081  2.914  0.000    27.899     8.664
  93   6 C     -0.037  1.081  2.956  0.000    28.929     8.820
  94   6 C     -0.036  1.075  2.960  0.000    28.890     8.814
  95   6 C     -0.028  1.082  2.946  0.000    28.695     8.784
  96   6 C     -0.029  1.076  2.953  0.000    28.723     8.789
  97   6 C     -0.033  1.079  2.954  0.000    28.815     8.803
  98   1 H      0.211  0.789  0.000  0.000     1.052     1.607
  99   1 H      0.067  0.933  0.000  0.000     2.116     2.275
 100   1 H      0.086  0.914  0.000  0.000     1.916     2.164
 101   1 H      0.047  0.953  0.000  0.000     2.352     2.398
 102   1 H      0.058  0.942  0.000  0.000     2.221     2.331
 103   1 H     -0.024  1.024  0.000  0.000     3.507     2.929
 104   1 H      0.080  0.920  0.000  0.000     1.977     2.199
 105   1 H      0.008  0.992  0.000  0.000     2.920     2.672
 106   1 H      0.056  0.944  0.000  0.000     2.243     2.342
 107   7 N     -0.202  1.265  3.937  0.000    25.380     7.482
 108   6 C      0.068  1.044  2.888  0.000    19.445     6.278
 109   6 C      0.279  1.044  2.677  0.000    22.275     7.729
 110   8 O     -0.480  1.718  4.762  0.000    23.354     6.479
 111   6 C     -0.082  1.061  3.021  0.000    22.061     6.686
 112   6 C      0.375  1.021  2.604  0.000    20.648     7.437
 113   8 O     -0.627  1.754  4.873  0.000    26.790     6.939
 114   8 O     -0.576  1.754  4.822  0.000    25.525     6.774
 115   1 H      0.240  0.760  0.000  0.000     0.925     1.506
 116   1 H      0.022  0.978  0.000  0.000     2.704     2.571
 117   1 H      0.031  0.969  0.000  0.000     2.577     2.510
 118   1 H      0.056  0.944  0.000  0.000     2.242     2.342
 119   7 N     -0.190  1.252  3.938  0.000    25.130     7.445
 120   6 C      0.056  1.051  2.893  0.000    19.642     6.311
 121   6 C      0.280  1.042  2.678  0.000    22.261     7.726
 122   8 O     -0.485  1.735  4.750  0.000    23.460     6.494
 123   6 C     -0.081  1.062  3.018  0.000    22.037     6.683
 124   6 C      0.375  1.022  2.602  0.000    20.640     7.435
 125   8 O     -0.638  1.776  4.862  0.000    27.082     6.977
 126   8 O     -0.638  1.769  4.869  0.000    27.070     6.976
 127   1 H      0.190  0.810  0.000  0.000     1.156     1.685
 128   1 H      0.060  0.940  0.000  0.000     2.199     2.319
 129   1 H      0.050  0.950  0.000  0.000     2.326     2.385
 130   1 H      0.003  0.997  0.000  0.000     3.007     2.712
 131   7 N     -0.187  1.242  3.944  0.000    25.044     7.433
 132   6 C      0.022  1.063  2.914  0.000    20.201     6.400
 133   6 C      0.269  1.043  2.688  0.000    22.448     7.758
 134   8 O     -0.451  1.727  4.724  0.000    22.724     6.391
 135   6 C      0.127  1.044  2.829  0.000    18.617     6.161
 136   8 O     -0.505  1.750  4.754  0.000    22.993     6.473
 137   6 C     -0.142  1.047  3.095  0.000    23.290     6.882
 138   1 H      0.193  0.807  0.000  0.000     1.141     1.673
 139   1 H      0.086  0.914  0.000  0.000     1.920     2.167
 140   1 H      0.013  0.987  0.000  0.000     2.843     2.637
 141   1 H      0.337  0.663  0.000  0.000     0.619     1.236
 142   1 H      0.079  0.921  0.000  0.000     1.988     2.205
 143   1 H      0.069  0.931  0.000  0.000     2.092     2.262
 144   1 H      0.076  0.924  0.000  0.000     2.017     2.221
 145   7 N     -0.186  1.242  3.944  0.000    25.034     7.431
 146   6 C     -0.001  1.068  2.933  0.000    20.614     6.465
 147   6 C      0.270  1.039  2.691  0.000    22.438     7.757
 148   8 O     -0.461  1.728  4.733  0.000    22.941     6.422
 149   6 C      0.110  1.051  2.839  0.000    18.869     6.201
 150   8 O     -0.473  1.710  4.763  0.000    22.323     6.378
 151   6 C     -0.137  1.044  3.093  0.000    23.190     6.867
 152   1 H      0.197  0.803  0.000  0.000     1.122     1.659
 153   1 H      0.106  0.894  0.000  0.000     1.731     2.057
 154   1 H      0.081  0.919  0.000  0.000     1.966     2.193
 155   1 H      0.293  0.707  0.000  0.000     0.742     1.353
 156   1 H      0.081  0.919  0.000  0.000     1.965     2.192
 157   1 H      0.080  0.920  0.000  0.000     1.980     2.201
 158   1 H      0.034  0.966  0.000  0.000     2.534     2.490
 159   7 N     -0.172  1.236  3.936  0.000    24.727     7.385
 160   6 C     -0.036  1.051  2.985  0.000    21.284     6.581
 161   6 C      0.277  1.040  2.683  0.000    22.318     7.736
 162   8 O     -0.476  1.737  4.739  0.000    23.256     6.466
 163   1 H      0.195  0.805  0.000  0.000     1.129     1.665
 164   1 H      0.076  0.924  0.000  0.000     2.025     2.225
 165   1 H      0.117  0.883  0.000  0.000     1.634     1.999
 166   7 N     -0.174  1.242  3.932  0.000    24.768     7.391
 167   6 C      0.020  1.062  2.919  0.000    20.247     6.407
 168   6 C      0.279  1.044  2.678  0.000    22.283     7.730
 169   8 O     -0.516  1.755  4.761  0.000    24.131     6.586
 170   6 C     -0.064  1.052  3.012  0.000    21.728     6.635
 171   6 C     -0.077  1.053  3.024  0.000    21.972     6.674
 172   6 C     -0.083  1.049  3.033  0.000    22.077     6.689
 173   6 C     -0.035  1.053  2.982  0.000    21.296     6.587
 174   7 N     -0.191  1.255  3.936  0.000    25.141     7.447
 175   1 H      0.203  0.797  0.000  0.000     1.090     1.635
 176   1 H      0.086  0.914  0.000  0.000     1.916     2.165
 177   1 H      0.045  0.955  0.000  0.000     2.380     2.413
 178   1 H      0.043  0.957  0.000  0.000     2.404     2.425
 179   1 H      0.068  0.932  0.000  0.000     2.107     2.270
 180   1 H      0.057  0.943  0.000  0.000     2.235     2.338
 181   1 H      0.060  0.940  0.000  0.000     2.194     2.316
 182   1 H      0.072  0.928  0.000  0.000     2.068     2.249
 183   1 H      0.104  0.896  0.000  0.000     1.753     2.070
 184   1 H      0.109  0.891  0.000  0.000     1.702     2.040
 185   1 H      0.281  0.719  0.000  0.000     0.773     1.377
 186   1 H      0.305  0.695  0.000  0.000     0.697     1.308
 187   1 H      0.268  0.732  0.000  0.000     0.818     1.417
 188   7 N     -0.167  1.238  3.929  0.000    24.617     7.369
 189   6 C      0.031  1.055  2.913  0.000    20.052     6.376
 190   6 C      0.269  1.045  2.687  0.000    22.460     7.761
 191   8 O     -0.474  1.728  4.745  0.000    23.208     6.459
 192   6 C     -0.077  1.057  3.020  0.000    21.954     6.669
 193   6 C     -0.003  1.075  2.928  0.000    28.096     8.694
 194   6 C     -0.038  1.084  2.955  0.000    28.956     8.825
 195   6 C     -0.046  1.081  2.965  0.000    29.140     8.852
 196   6 C     -0.053  1.075  2.978  0.000    29.318     8.879
 197   6 C     -0.076  1.077  2.999  0.000    29.894     8.966
 198   6 C      0.145  1.046  2.809  0.000    24.846     8.169
 199   8 O     -0.423  1.717  4.706  0.000    21.301     6.230
 200   1 H      0.222  0.778  0.000  0.000     1.000     1.566
 201   1 H      0.040  0.960  0.000  0.000     2.455     2.451
 202   1 H      0.086  0.914  0.000  0.000     1.916     2.164
 203   1 H      0.054  0.946  0.000  0.000     2.269     2.356
 204   1 H      0.050  0.950  0.000  0.000     2.315     2.379
 205   1 H      0.031  0.969  0.000  0.000     2.572     2.508
 206   1 H      0.066  0.934  0.000  0.000     2.130     2.282
 207   1 H      0.037  0.963  0.000  0.000     2.484     2.464
 208   1 H      0.336  0.664  0.000  0.000     0.621     1.238
 209   7 N     -0.168  1.242  3.927  0.000    24.640     7.372
 210   6 C      0.020  1.063  2.917  0.000    20.240     6.405
 211   6 C      0.266  1.040  2.693  0.000    22.506     7.769
 212   8 O     -0.470  1.732  4.738  0.000    23.133     6.449
 213   6 C     -0.076  1.057  3.020  0.000    21.948     6.669
 214   6 C     -0.001  1.074  2.927  0.000    28.054     8.688
 215   6 C     -0.039  1.080  2.959  0.000    28.971     8.827
 216   6 C     -0.044  1.080  2.964  0.000    29.091     8.845
 217   6 C     -0.059  1.072  2.986  0.000    29.463     8.901
 218   6 C     -0.069  1.078  2.990  0.000    29.708     8.938
 219   6 C      0.148  1.045  2.807  0.000    24.780     8.158
 220   8 O     -0.438  1.716  4.722  0.000    21.600     6.274
 221   1 H      0.207  0.793  0.000  0.000     1.073     1.623
 222   1 H      0.081  0.919  0.000  0.000     1.972     2.196
 223   1 H      0.053  0.947  0.000  0.000     2.285     2.364
 224   1 H      0.072  0.928  0.000  0.000     2.063     2.246
 225   1 H      0.003  0.997  0.000  0.000     3.008     2.712
 226   1 H      0.056  0.944  0.000  0.000     2.249     2.345
 227   1 H      0.007  0.993  0.000  0.000     2.938     2.680
 228   1 H      0.060  0.940  0.000  0.000     2.198     2.318
 229   1 H      0.355  0.645  0.000  0.000     0.577     1.194
 230   7 N     -0.155  1.238  3.917  0.000    24.352     7.329
 231   6 C      0.010  1.061  2.929  0.000    20.418     6.434
 232   6 C      0.268  1.043  2.689  0.000    22.477     7.764
 233   8 O     -0.453  1.741  4.712  0.000    22.763     6.397
 234   6 C     -0.128  1.042  3.086  0.000    23.011     6.839
 235   1 H      0.214  0.786  0.000  0.000     1.038     1.596
 236   1 H      0.085  0.915  0.000  0.000     1.924     2.169
 237   1 H      0.071  0.929  0.000  0.000     2.072     2.251
 238   1 H      0.070  0.930  0.000  0.000     2.083     2.257
 239   1 H      0.070  0.930  0.000  0.000     2.084     2.257
 240   7 N     -0.172  1.266  3.906  0.000    24.731     7.386
 241   6 C      0.021  1.061  2.918  0.000    20.231     6.404
 242   6 C      0.206  1.088  2.707  0.000    23.634     7.962
 243   8 O     -0.371  1.758  4.613  0.000    21.103     6.159
 244   6 C     -0.086  1.058  3.028  0.000    22.135     6.698
 245   6 C     -0.075  1.049  3.026  0.000    21.933     6.667
 246   6 C     -0.098  1.055  3.043  0.000    22.361     6.732
 247   6 C     -0.048  1.059  2.989  0.000    21.528     6.623
 248   7 N     -0.151  1.233  3.918  0.000    24.249     7.314
 249   1 H      0.213  0.787  0.000  0.000     1.043     1.600
 250   1 H      0.093  0.907  0.000  0.000     1.851     2.127
 251   1 H      0.092  0.908  0.000  0.000     1.862     2.134
 252   1 H      0.064  0.936  0.000  0.000     2.150     2.293
 253   1 H      0.052  0.948  0.000  0.000     2.294     2.369
 254   1 H      0.061  0.939  0.000  0.000     2.187     2.313
 255   1 H      0.086  0.914  0.000  0.000     1.914     2.164
 256   1 H      0.095  0.905  0.000  0.000     1.832     2.117
 257   1 H      0.114  0.886  0.000  0.000     1.662     2.016
 258   1 H      0.103  0.897  0.000  0.000     1.760     2.075
 259   1 H      0.298  0.702  0.000  0.000     0.718     1.328
 260   1 H      0.300  0.700  0.000  0.000     0.714     1.324
 261   1 H      0.307  0.693  0.000  0.000     0.694     1.305
 262   7 N     -0.382  1.314  4.068  0.000    29.882     8.119
 263   6 C      0.035  1.058  2.907  0.000    20.001     6.370
 264   6 C      0.201  1.088  2.711  0.000    23.728     7.978
 265   8 O     -0.378  1.748  4.630  0.000    21.240     6.179
 266   6 C     -0.061  1.051  3.010  0.000    21.663     6.625
 267   6 C     -0.004  1.078  2.926  0.000    28.119     8.698
 268   6 C     -0.046  1.082  2.965  0.000    29.144     8.853
 269   6 C     -0.041  1.082  2.959  0.000    29.024     8.835
 270   6 C     -0.063  1.076  2.987  0.000    29.565     8.916
 271   6 C     -0.082  1.079  3.004  0.000    30.063     8.991
 272   6 C      0.142  1.043  2.815  0.000    24.908     8.179
 273   8 O     -0.410  1.705  4.705  0.000    21.036     6.192
 274   1 H      0.160  0.840  0.000  0.000     1.335     1.810
 275   1 H      0.081  0.919  0.000  0.000     1.974     2.197
 276   1 H      0.040  0.960  0.000  0.000     2.449     2.447
 277   1 H      0.031  0.969  0.000  0.000     2.579     2.511
 278   1 H      0.043  0.957  0.000  0.000     2.403     2.424
 279   1 H      0.028  0.972  0.000  0.000     2.608     2.525
 280   1 H      0.071  0.929  0.000  0.000     2.077     2.254
 281   1 H      0.050  0.950  0.000  0.000     2.320     2.382
 282   1 H      0.344  0.656  0.000  0.000     0.603     1.220
 283   7 N     -0.380  1.311  4.069  0.000    29.824     8.111
 284   6 C      0.032  1.059  2.909  0.000    20.043     6.376
 285   6 C      0.272  1.046  2.682  0.000    22.407     7.752
 286   8 O     -0.494  1.745  4.749  0.000    23.652     6.521
 287   6 C     -0.052  1.052  2.999  0.000    21.493     6.600
 288   6 C     -0.094  1.060  3.034  0.000    22.291     6.722
 289   6 C      0.367  1.026  2.607  0.000    20.778     7.460
 290   8 O     -0.573  1.745  4.828  0.000    25.443     6.763
 291   8 O     -0.597  1.758  4.839  0.000    26.034     6.841
 292   1 H      0.163  0.837  0.000  0.000     1.313     1.795
 293   1 H      0.032  0.968  0.000  0.000     2.564     2.504
 294   1 H      0.041  0.959  0.000  0.000     2.436     2.441
 295   1 H      0.028  0.972  0.000  0.000     2.609     2.526
 296   1 H      0.021  0.979  0.000  0.000     2.724     2.581
 297   1 H      0.033  0.967  0.000  0.000     2.540     2.493
 298   7 N     -0.171  1.239  3.931  0.000    24.696     7.381
 299   6 C      0.020  1.062  2.918  0.000    20.249     6.408
 300   6 C      0.194  1.087  2.719  0.000    23.859     7.999
 301   8 O     -0.371  1.757  4.614  0.000    21.112     6.160
 302   6 C     -0.017  1.065  2.951  0.000    20.835     6.492
 303   6 C     -0.120  1.040  3.080  0.000    22.850     6.815
 304   6 C     -0.118  1.038  3.079  0.000    22.806     6.809
 305   1 H      0.211  0.789  0.000  0.000     1.051     1.606
 306   1 H      0.095  0.905  0.000  0.000     1.831     2.116
 307   1 H      0.064  0.936  0.000  0.000     2.151     2.294
 308   1 H      0.065  0.935  0.000  0.000     2.136     2.286
 309   1 H      0.057  0.943  0.000  0.000     2.238     2.339
 310   1 H      0.041  0.959  0.000  0.000     2.439     2.442
 311   1 H      0.067  0.933  0.000  0.000     2.122     2.278
 312   1 H      0.032  0.968  0.000  0.000     2.556     2.500
 313   1 H      0.038  0.962  0.000  0.000     2.480     2.463
 314   7 N     -0.377  1.302  4.075  0.000    29.742     8.100
 315   6 C      0.041  1.054  2.904  0.000    19.898     6.354
 316   6 C      0.193  1.095  2.711  0.000    23.872     8.002
 317   8 O     -0.369  1.744  4.624  0.000    21.063     6.153
 318   6 C     -0.065  1.060  3.005  0.000    21.727     6.635
 319   6 C     -0.006  1.056  2.950  0.000    20.651     6.464
 320   6 C     -0.109  1.040  3.069  0.000    22.633     6.783
 321   6 C     -0.113  1.040  3.074  0.000    22.723     6.797
 322   1 H      0.165  0.835  0.000  0.000     1.303     1.788
 323   1 H      0.053  0.947  0.000  0.000     2.288     2.365
 324   1 H      0.047  0.953  0.000  0.000     2.361     2.403
 325   1 H      0.037  0.963  0.000  0.000     2.487     2.466
 326   1 H      0.040  0.960  0.000  0.000     2.454     2.450
 327   1 H      0.026  0.974  0.000  0.000     2.640     2.541
 328   1 H      0.042  0.958  0.000  0.000     2.420     2.433
 329   1 H      0.035  0.965  0.000  0.000     2.513     2.479
 330   1 H      0.036  0.964  0.000  0.000     2.499     2.472
 331   1 H      0.043  0.957  0.000  0.000     2.410     2.428
 332   1 H      0.043  0.957  0.000  0.000     2.412     2.429
 333   7 N     -0.380  1.315  4.066  0.000    29.835     8.112
 334   6 C     -0.022  1.050  2.972  0.000    21.054     6.548
 335   6 C      0.261  1.048  2.691  0.000    22.602     7.785
 336   8 O     -0.521  1.757  4.764  0.000    24.259     6.604
 337   1 H      0.174  0.826  0.000  0.000     1.248     1.750
 338   1 H      0.075  0.925  0.000  0.000     2.036     2.231
 339   1 H      0.068  0.932  0.000  0.000     2.105     2.269
 340   7 N     -0.183  1.243  3.940  0.000    24.965     7.421
 341   6 C     -0.024  1.052  2.972  0.000    21.072     6.548
 342   6 C      0.273  1.041  2.686  0.000    22.390     7.748
 343   8 O     -0.478  1.744  4.734  0.000    23.305     6.472
 344   1 H      0.228  0.772  0.000  0.000     0.972     1.545
 345   1 H      0.088  0.912  0.000  0.000     1.900     2.156
 346   1 H      0.077  0.923  0.000  0.000     2.016     2.220
 347   7 N     -0.172  1.249  3.923  0.000    24.723     7.385
 348   6 C      0.022  1.059  2.919  0.000    20.207     6.401
 349   6 C      0.262  1.048  2.690  0.000    22.584     7.783
 350   8 O     -0.499  1.749  4.750  0.000    23.751     6.534
 351   6 C     -0.076  1.061  3.016  0.000    21.950     6.669
 352   6 C     -0.004  1.053  2.951  0.000    20.609     6.457
 353   6 C     -0.121  1.041  3.080  0.000    22.880     6.820
 354   6 C     -0.117  1.042  3.074  0.000    22.782     6.805
 355   1 H      0.220  0.780  0.000  0.000     1.008     1.573
 356   1 H      0.069  0.931  0.000  0.000     2.100     2.266
 357   1 H      0.070  0.930  0.000  0.000     2.090     2.261
 358   1 H      0.061  0.939  0.000  0.000     2.183     2.310
 359   1 H      0.003  0.997  0.000  0.000     3.000     2.709
 360   1 H      0.034  0.966  0.000  0.000     2.536     2.491
 361   1 H      0.024  0.976  0.000  0.000     2.678     2.559
 362   1 H      0.069  0.931  0.000  0.000     2.101     2.267
 363   1 H      0.028  0.972  0.000  0.000     2.609     2.526
 364   1 H      0.064  0.936  0.000  0.000     2.149     2.292
 365   1 H      0.037  0.963  0.000  0.000     2.487     2.466
 366   7 N     -0.083  1.232  3.851  0.000    22.851     7.100
 367   6 C      0.018  1.068  2.914  0.000    20.239     6.401
 368   6 C      0.280  1.044  2.676  0.000    22.257     7.725
 369   8 O     -0.497  1.755  4.742  0.000    23.728     6.531
 370   6 C     -0.072  1.054  3.018  0.000    21.853     6.652
 371   6 C     -0.059  1.046  3.013  0.000    21.619     6.616
 372   6 C     -0.002  1.051  2.952  0.000    20.667     6.481
 373   1 H      0.078  0.922  0.000  0.000     1.999     2.211
 374   1 H      0.056  0.944  0.000  0.000     2.246     2.343
 375   1 H      0.088  0.912  0.000  0.000     1.894     2.152
 376   1 H      0.035  0.965  0.000  0.000     2.519     2.482
 377   1 H      0.062  0.938  0.000  0.000     2.177     2.308
 378   1 H      0.053  0.947  0.000  0.000     2.288     2.365
 379   1 H      0.078  0.922  0.000  0.000     2.005     2.214
 380   7 N     -0.191  1.258  3.932  0.000    25.134     7.446
 381   6 C      0.023  1.059  2.918  0.000    20.187     6.398
 382   6 C      0.283  1.040  2.677  0.000    22.213     7.718
 383   8 O     -0.499  1.756  4.743  0.000    23.764     6.536
 384   6 C     -0.141  1.046  3.096  0.000    23.274     6.878
 385   1 H      0.239  0.761  0.000  0.000     0.929     1.510
 386   1 H      0.079  0.921  0.000  0.000     1.991     2.207
 387   1 H      0.076  0.924  0.000  0.000     2.021     2.223
 388   1 H      0.100  0.900  0.000  0.000     1.781     2.087
 389   1 H      0.076  0.924  0.000  0.000     2.020     2.223
 390   7 N     -0.186  1.240  3.945  0.000    25.021     7.429
 391   6 C      0.023  1.060  2.917  0.000    20.190     6.399
 392   6 C      0.290  1.041  2.669  0.000    22.087     7.696
 393   8 O     -0.564  1.777  4.787  0.000    25.240     6.736
 394   6 C      0.133  1.037  2.830  0.000    18.514     6.143
 395   8 O     -0.467  1.695  4.772  0.000    22.189     6.359
 396   6 C     -0.134  1.046  3.088  0.000    23.138     6.859
 397   1 H      0.226  0.774  0.000  0.000     0.982     1.552
 398   1 H      0.052  0.948  0.000  0.000     2.294     2.369
 399   1 H     -0.008  1.008  0.000  0.000     3.208     2.801
 400   1 H      0.318  0.682  0.000  0.000     0.669     1.285
 401   1 H      0.084  0.916  0.000  0.000     1.940     2.178
 402   1 H      0.047  0.953  0.000  0.000     2.356     2.400
 403   1 H      0.081  0.919  0.000  0.000     1.966     2.193
 404   7 N     -0.193  1.254  3.940  0.000    25.192     7.454
 405   6 C      0.054  1.046  2.900  0.000    19.683     6.318
 406   6 C      0.270  1.047  2.682  0.000    22.436     7.756
 407   8 O     -0.457  1.725  4.733  0.000    22.856     6.410
 408   6 C     -0.107  1.034  3.072  0.000    22.591     6.777
 409   1 H      0.238  0.762  0.000  0.000     0.933     1.513
 410   1 H      0.032  0.968  0.000  0.000     2.563     2.504
 411   1 H      0.057  0.943  0.000  0.000     2.236     2.338
 412   1 H      0.052  0.948  0.000  0.000     2.292     2.368
 413   1 H      0.088  0.912  0.000  0.000     1.901     2.156
 414   7 N     -0.179  1.237  3.943  0.000    24.885     7.409
 415   6 C      0.020  1.063  2.917  0.000    20.247     6.408
 416   6 C      0.281  1.043  2.676  0.000    22.237     7.723
 417   8 O     -0.506  1.745  4.762  0.000    23.926     6.558
 418   6 C      0.135  1.044  2.822  0.000    18.488     6.138
 419   8 O     -0.495  1.721  4.774  0.000    22.786     6.444
 420   6 C     -0.139  1.046  3.093  0.000    23.245     6.875
 421   1 H      0.184  0.816  0.000  0.000     1.191     1.710
 422   1 H      0.090  0.910  0.000  0.000     1.880     2.144
 423   1 H      0.016  0.984  0.000  0.000     2.798     2.616
 424   1 H      0.303  0.697  0.000  0.000     0.713     1.326
 425   1 H      0.076  0.924  0.000  0.000     2.024     2.225
 426   1 H      0.074  0.926  0.000  0.000     2.045     2.236
 427   1 H      0.087  0.913  0.000  0.000     1.913     2.163
 428   7 N     -0.190  1.247  3.943  0.000    25.122     7.444
 429   6 C      0.061  1.048  2.891  0.000    19.562     6.297
 430   6 C      0.272  1.044  2.683  0.000    22.395     7.750
 431   8 O     -0.479  1.720  4.759  0.000    23.324     6.475
 432   6 C     -0.031  1.043  2.988  0.000    21.118     6.542
 433   6 C     -0.062  1.056  3.006  0.000    21.693     6.632
 434   6 C      0.375  1.024  2.601  0.000    20.653     7.437
 435   8 O     -0.617  1.759  4.858  0.000    26.547     6.908
 436   8 O     -0.634  1.765  4.869  0.000    26.961     6.962
 437   1 H      0.198  0.802  0.000  0.000     1.117     1.655
 438   1 H      0.025  0.975  0.000  0.000     2.657     2.549
 439   1 H      0.044  0.956  0.000  0.000     2.394     2.420
 440   1 H      0.035  0.965  0.000  0.000     2.512     2.479
 441   1 H     -0.013  1.013  0.000  0.000     3.286     2.835
 442   1 H     -0.000  1.000  0.000  0.000     3.063     2.737
 443   7 N     -0.174  1.254  3.920  0.000    24.767     7.391
 444   6 C      0.051  1.056  2.893  0.000    19.724     6.323
 445   6 C      0.286  1.043  2.672  0.000    22.162     7.709
 446   8 O     -0.527  1.752  4.776  0.000    24.401     6.623
 447   6 C     -0.083  1.065  3.018  0.000    22.079     6.690
 448   6 C      0.368  1.024  2.608  0.000    20.759     7.456
 449   8 O     -0.597  1.743  4.855  0.000    26.056     6.844
 450   8 O     -0.629  1.765  4.864  0.000    26.832     6.945
 451   1 H      0.193  0.807  0.000  0.000     1.141     1.673
 452   1 H      0.072  0.928  0.000  0.000     2.062     2.246
 453   1 H      0.011  0.989  0.000  0.000     2.868     2.648
 454   1 H      0.020  0.980  0.000  0.000     2.735     2.586
 455   7 N     -0.176  1.249  3.926  0.000    24.804     7.397
 456   6 C      0.031  1.056  2.913  0.000    20.052     6.376
 457   6 C      0.202  1.088  2.710  0.000    23.702     7.973
 458   8 O     -0.354  1.736  4.618  0.000    20.786     6.113
 459   6 C     -0.012  1.065  2.947  0.000    20.747     6.478
 460   6 C     -0.104  1.036  3.068  0.000    22.549     6.771
 461   6 C     -0.118  1.037  3.080  0.000    22.810     6.810
 462   1 H      0.237  0.763  0.000  0.000     0.935     1.514
 463   1 H      0.072  0.928  0.000  0.000     2.060     2.244
 464   1 H      0.067  0.933  0.000  0.000     2.124     2.279
 465   1 H      0.054  0.946  0.000  0.000     2.271     2.357
 466   1 H      0.036  0.964  0.000  0.000     2.502     2.474
 467   1 H      0.024  0.976  0.000  0.000     2.672     2.556
 468   1 H      0.064  0.936  0.000  0.000     2.154     2.295
 469   1 H      0.043  0.957  0.000  0.000     2.404     2.425
 470   1 H      0.060  0.940  0.000  0.000     2.193     2.316
 471   7 N     -0.369  1.309  4.060  0.000    29.516     8.069
 472   6 C      0.034  1.057  2.909  0.000    20.018     6.374
 473   6 C      0.195  1.088  2.716  0.000    23.829     7.995
 474   8 O     -0.341  1.750  4.590  0.000    20.532     6.075
 475   6 C     -0.064  1.056  3.008  0.000    21.718     6.634
 476   6 C     -0.090  1.054  3.036  0.000    22.212     6.709
 477   6 C      0.290  1.039  2.671  0.000    22.087     7.695
 478   8 O     -0.489  1.750  4.739  0.000    23.553     6.507
 479   7 N     -0.282  1.256  4.026  0.000    27.287     7.758
 480   1 H      0.164  0.836  0.000  0.000     1.312     1.794
 481   1 H      0.060  0.940  0.000  0.000     2.195     2.317
 482   1 H      0.060  0.940  0.000  0.000     2.204     2.321
 483   1 H      0.041  0.959  0.000  0.000     2.439     2.442
 484   1 H      0.067  0.933  0.000  0.000     2.119     2.276
 485   1 H      0.040  0.960  0.000  0.000     2.445     2.445
 486   1 H      0.197  0.803  0.000  0.000     1.123     1.660
 487   1 H      0.223  0.777  0.000  0.000     0.996     1.563
 488   1 H      0.177  0.823  0.000  0.000     1.230     1.737
 489   1 H      0.086  0.914  0.000  0.000     1.919     2.166
 490   1 H      0.169  0.831  0.000  0.000     1.277     1.770
 491   1 H      0.066  0.934  0.000  0.000     2.134     2.284
 492   1 H      0.189  0.811  0.000  0.000     1.164     1.690
 493   1 H      0.075  0.925  0.000  0.000     2.027     2.226
 494   1 H      0.189  0.811  0.000  0.000     1.161     1.688
 495   1 H      0.059  0.941  0.000  0.000     2.207     2.323
 496   1 H      0.170  0.830  0.000  0.000     1.274     1.768
 497   1 H      0.085  0.915  0.000  0.000     1.927     2.171
 498   1 H      0.180  0.820  0.000  0.000     1.212     1.725
 499   1 H      0.074  0.926  0.000  0.000     2.038     2.232
 500   1 H      0.173  0.827  0.000  0.000     1.257     1.756
 501   1 H      0.087  0.913  0.000  0.000     1.911     2.161
 502   1 H      0.179  0.821  0.000  0.000     1.222     1.731
 503   1 H      0.080  0.920  0.000  0.000     1.978     2.199

 Mol. C6AA /au·bohr⁶  :    2453910.853205
 Mol. C8AA /au·bohr⁸  :   54871413.966883
 Mol. α(0) /au        :       2349.389848

 
molecular dipole:
                 x           y           z       tot (Debye)
 q only:    -1568.812    -587.838    -862.775
   full:    -1571.908    -586.071    -862.178    4794.325
molecular quadrupole (traceless):
                xx          xy          yy          xz          yz          zz
 q only:  -478895.084 -345475.443  314616.092 -507767.514 -189949.273  164278.992
  q+dip:  -481758.309 -345142.902  316218.263 -508442.589 -189272.618  165540.046
   full:  -481763.136 -345142.348  316217.653 -508438.007 -189274.716  165545.483
speedup 14.04
cpu  time for grad    1 m 12.6 s
wall time for grad    0 m  5.2 s

SCC energy    :    -814.9553545
rep           :       9.6268172
ES            :       3.5375924
AES           :      -0.2526004
AXC           :       0.2199321
disp          :      -0.7142728
XB            :       0.0000000
fix           :       0.0000000
Gborn         :       0.0000000
Gsasa         :       0.0000000
Ghb           :       0.0000000
Gshift        :       0.0000000
Gsolv         :      -1.2993805     -815.37
Etot ala COSMO:    -814.9553545
grad norm     :       0.6343899
total E       :    -805.2443378
atomizationE  :     145.7442182    91455.88
(atE without considering molecular charge,
 total energy contains solvation terms)
H-L gap (eV)  :          1.2395

------------------------------------------------------------------------
 * finished run on 2019/02/13 at 00:16:58.151     
------------------------------------------------------------------------
 total:
 * wall-time:     0 d,  0 h,  0 min,  5.745 sec
 *  cpu-time:     0 d,  0 h,  1 min, 20.384 sec
 * ratio c/w:    13.993 speedup
 SCF:
 * wall-time:     0 d,  0 h,  0 min,  5.441 sec
 *  cpu-time:     0 d,  0 h,  1 min, 16.082 sec
 * ratio c/w:    13.982 speedup

