      -----------------------------------------------------------      
     |                   =====================                   |     
     |                           x T B                           |     
     |                   =====================                   |     
     |                         S. Grimme                         |     
     |          Mulliken Center for Theoretical Chemistry        |     
     |                    University of Bonn                     |     
     |                Version 6.1 RC1 (SAW190329)                |     
      -----------------------------------------------------------      

   This program is distributed in the hope that it will be useful,
   but WITHOUT ANY WARRANTY; without even the implied warranty of
   MERCHANTABILITY or FITNESS FOR A PARTICULAR PURPOSE.
   
   FOR NON-COMMERCIAL, ACADEMIA USE ONLY.
   
   Cite this work as:
   S. Grimme, C. Bannwarth, P. Shushkov, J. Comput. Theory Chem., 2017,
   13, 1989-2009. DOI: 10.1021/acs.jctc.7b00118
   C. Bannwarth, S. Ehlert and S. Grimme., J. Comput. Theory Chem., 2019,
   just accepted. DOI: 10.1021/acs.jctc.8b01176
   
   for sTDA-xTB:
   S. Grimme and C. Bannwarth, J. Chem. Phys., 2016, 145, 054103.
   DOI: 10.1063/1.4959605
   
   in the mass-spec context:
   V. Asgeirsson, C. Bauer and S. Grimme, Chem. Sci., 2017, 8, 4879.
   DOI: 10.1039/c7sc00601b
   
   for metadynamics refer to:
   S. Grimme, ChemRxiv, Preprint. DOI: 10.26434/chemrxiv.7660532.v1
   
   with help from (in alphabetical order)
   C. Bannwarth, F. Bohle, G. Brandenburg, E. Caldeweyher, M. Checinski,
   S. Dohm, S. Ehlert, S. Ehrlich, F. März, H. Neugebauer, J. Pisarek,
   P. Pracht, P. Shushkov, and S. Spicher.
   
 * started run on 2019/05/31 at 06:33:44.709     

           -------------------------------------------------
          |                Calculation Setup                |
           -------------------------------------------------

          program call               : /home/lum/qr/xtb-190329/bin/xtb xtb_tmp.xyz --chrg 0 --grad --gfn 2 --etemp 500 --acc 0.1 --gbsa h2o --parallel 2
          hostname                   : cu39
          coordinate file            : xtb_tmp.xyz
          omp threads                :                     2
          number of atoms            :                   174
          number of electrons        :                   494
          charge                     :                     0
          spin                       :                   0.0
          first test random number   :      0.87614290158830


########################################################################
# WARNING! Please study the warnings concerning your input carefully
#  - XTBPATH is not set, using XTBHOME instead
#  - Process number higher than OMP_NUM_THREADS, I hope you know what you are doing.
########################################################################

           ------------------------------------------------- 
          |                 G F N 2 - x T B                 |
          | Geometry, Frequencies, Noncovalent interactions |
          |            JCTC 2018 parametrisation            |
           ------------------------------------------------- 
 
             k(s)              :                1.8500
             k(p)              :                2.2300
             k(d)              :                2.2300
             k(f)              :                2.0000
             kEN (H0ij)        :               -2.0000
             D4 a1             :                0.5200
             D4 a2             :                5.0000
             D4 s6             :                1.0000
             D4 s8             :                2.7000
             D4 s9             :                5.0000
             alphaj            :                2.0000

  Z AO/shell   Hii/eV     exponent
  1     Wed Apr 25 08:07:45 CEST 2018   EN: 2.200 GM2: 0.406  GM3: 0.0800  RAES: 1.40
     1s    -10.707211    1.230000
  6     Wed Apr 25 08:07:45 CEST 2018   EN: 2.550 GM2: 0.538  GM3: 0.1500  RAES: 3.00
     2s    -13.970922    2.096432
     2p    -10.063292    1.800000
  7     Wed Apr 25 08:07:45 CEST 2018   EN: 3.040 GM2: 0.461  GM3:-0.0640  RAES: 1.90
     2s    -16.686243    2.339881
     2p    -12.523956    2.014332
  8     Wed Apr 25 08:07:45 CEST 2018   EN: 3.440 GM2: 0.452  GM3:-0.0517  RAES: 1.80
     2s    -20.229985    2.439742
     2p    -15.503117    2.137023
 16     Tue Apr 24 11:44:34 CEST 2018   EN: 2.580 GM2: 0.340  GM3:-0.0502  RAES: 3.10
     3s    -20.029654    1.981333
     3p    -11.377694    2.025643
     3d     -0.420282    1.702555

 Solvent             : h2o
 Using internal parameter file: .param_gbsa2_h2o
 Gsolv ref. state (COSMO-RS): gsolv [1 M gas/solution]
 temperature (mdtemp)       :    298.150000000000     
 dielectric constant        :    80.2000000000000     
 rho                        :    1.00000000000000     
 mass                       :    18.0000000000000     
 surface tension            :    15.5689454083859     
 probe radius               :   0.975313790000000     
 vdW radii scaling          :    1.00000000000000     
 Gshift (Eh)                :   1.857443126794793E-003
 c1                         :    1.55243817000000     
 soset                      :   0.130326360000000     
 HB correction              :  T
 Number of grid points      :          230

            Z     q(EN)     CN     RAES       Cart. coordinates
     1  N   5.0   -0.71    3.00    1.93    94.72190    67.59281   155.29688
     2  C   4.0    0.08    4.02    3.65    95.58844    66.63268   157.71272
     3  C   4.0    0.29    3.01    3.02    93.39459    65.17998   158.92536
     4  O   6.0   -0.39    1.00    1.80    92.04104    66.05111   160.57651
     5  C   4.0   -0.12    3.98    3.59    96.52053    68.73002   159.42078
     6  S   6.0   -0.15    2.02    3.10    98.27782    67.49069   162.11519
     7  H   1.0    0.27    1.00    1.43    93.34307    68.92532   155.36554
     8  H   1.0    0.14    0.99    1.43    97.12390    65.29375   157.32542
     9  H   1.0    0.12    0.99    1.43    97.75326    70.01238   158.38687
    10  H   1.0    0.14    0.99    1.43    94.93766    69.77941   160.21471
    11  H   1.0    0.17    1.00    1.43    99.15078    65.41321   160.98208
    12  N   5.0   -0.48    3.01    1.93    93.11761    62.85448   157.95333
    13  C   4.0    0.09    4.00    3.61    91.36077    61.06607   159.01161
    14  C   4.0    0.28    3.01    3.02    91.97496    60.65208   161.80094
    15  O   6.0   -0.43    1.00    1.80    90.36046    60.05416   163.33776
    16  C   4.0    0.03    3.98    3.59    91.61844    58.50789   157.61643
    17  O   6.0   -0.49    1.98    1.82    91.95862    58.88463   155.00984
    18  C   4.0   -0.22    3.98    3.59    89.36189    56.83050   158.23730
    19  H   1.0    0.27    1.00    1.43    94.09424    62.28780   156.40947
    20  H   1.0    0.13    0.99    1.43    89.40623    61.74445   158.83865
    21  H   1.0    0.13    0.99    1.43    93.36641    57.61257   158.30957
    22  H   1.0    0.25    0.99    1.43    90.42064    59.73454   154.37639
    23  H   1.0    0.11    0.99    1.43    89.77912    54.86740   157.81249
    24  H   1.0    0.12    0.99    1.43    88.94146    57.00830   160.23789
    25  H   1.0    0.11    0.99    1.43    87.71622    57.41414   157.14681
    26  N   5.0   -0.46    3.01    1.93    94.42709    60.91247   162.39282
    27  C   4.0    0.02    3.99    3.61    95.34262    60.30218   164.89259
    28  C   4.0    0.29    3.00    3.02    96.09377    57.49204   164.90324
    29  O   6.0   -0.38    1.00    1.80    97.59511    56.68953   163.33943
    30  H   1.0    0.28    1.00    1.43    95.73292    61.21224   161.03112
    31  H   1.0    0.12    0.99    1.43    96.98436    61.47429   165.31928
    32  H   1.0    0.13    0.99    1.43    93.81670    60.68703   166.22604
    33  N   5.0   -0.48    3.01    1.93    94.76118    56.08322   166.53342
    34  C   4.0    0.07    3.99    3.60    95.16439    53.40138   166.97244
    35  C   4.0    0.28    3.01    3.02    97.74246    53.05356   168.26739
    36  O   6.0   -0.35    1.00    1.80    99.07020    54.85760   168.82811
    37  C   4.0   -0.11    3.98    3.59    94.79337    51.90021   164.52158
    38  C   4.0   -0.10    3.98    3.58    92.07527    50.99788   164.04799
    39  C   4.0   -0.23    3.98    3.59    91.54978    48.58963   165.54508
    40  C   4.0   -0.21    3.98    3.59    90.10277    53.02743   164.60608
    41  H   1.0    0.23    1.00    1.43    93.72196    57.01393   167.82936
    42  H   1.0    0.10    0.99    1.43    93.75742    52.79659   168.36425
    43  H   1.0    0.16    0.99    1.43    95.40832    53.09934   162.96696
    44  H   1.0    0.14    0.99    1.43    96.03178    50.25693   164.48373
    45  H   1.0    0.12    0.99    1.43    91.97269    50.51729   162.03662
    46  H   1.0    0.10    0.99    1.43    89.60852    47.97991   165.27462
    47  H   1.0    0.10    0.99    1.43    92.79735    47.09323   164.89006
    48  H   1.0    0.10    0.99    1.43    91.86495    48.88051   167.55613
    49  H   1.0    0.10    0.99    1.43    88.26343    52.43525   163.90959
    50  H   1.0    0.11    0.99    1.43    89.93250    53.36719   166.62493
    51  H   1.0    0.13    0.99    1.43    90.61165    54.79926   163.70100
    52  N   5.0   -0.51    3.00    1.93    98.30585    50.66129   168.92774
    53  C   4.0    0.08    3.99    3.61   100.41078    50.09213   170.58036
    54  C   4.0    0.28    3.01    3.02   102.81885    49.22535   169.22292
    55  O   6.0   -0.40    1.00    1.80   104.75998    48.84989   170.42340
    56  C   4.0   -0.21    3.98    3.59    99.69993    48.09618   172.53906
    57  H   1.0    0.22    1.00    1.43    97.18728    49.20672   168.39476
    58  H   1.0    0.15    0.99    1.43   100.90637    51.86251   171.53658
    59  H   1.0    0.12    0.99    1.43   101.34565    47.71292   173.70504
    60  H   1.0    0.11    0.99    1.43    98.16492    48.75171   173.73127
    61  H   1.0    0.12    0.99    1.43    99.14576    46.35491   171.60471
    62  N   5.0   -0.46    3.01    1.93   102.61054    48.87794   166.73550
    63  C   4.0    0.08    4.00    3.62   104.62864    47.89485   165.18584
    64  C   4.0    0.28    3.00    3.02   105.52127    49.83980   163.22960
    65  O   6.0   -0.39    1.00    1.80   107.77045    50.13177   162.73479
    66  C   4.0   -0.13    3.98    3.59   103.70287    45.42643   163.93048
    67  C   4.0   -0.01    3.12    3.03   102.95819    43.60263   165.95654
    68  C   4.0    0.03    3.22    3.04   104.56149    42.08604   167.29795
    69  C   4.0    0.03    3.18    3.03   100.51480    43.30643   167.07533
    70  N   5.0   -0.47    3.10    1.94   103.27861    40.84595   169.16216
    71  C   4.0    0.12    3.22    3.04   100.80693    41.56795   169.09756
    72  C   4.0   -0.11    3.02    3.02    98.11675    44.29870   166.58011
    73  C   4.0   -0.10    3.02    3.02    98.79652    40.86087   170.63567
    74  C   4.0   -0.12    3.03    3.02    96.12775    43.56064   168.09366
    75  C   4.0   -0.11    3.03    3.02    96.46075    41.88511   170.11278
    76  H   1.0    0.27    1.00    1.43   100.91768    49.12839   165.89044
    77  H   1.0    0.16    0.99    1.43   106.22557    47.49642   166.44513
    78  H   1.0    0.13    0.99    1.43   102.08503    45.86460   162.72527
    79  H   1.0    0.11    0.99    1.43   105.23076    44.65919   162.78006
    80  H   1.0    0.12    1.00    1.43   106.55128    41.79897   167.02534
    81  H   1.0    0.24    1.00    1.43   104.04361    39.63915   170.41687
    82  H   1.0    0.13    0.99    1.43    97.82880    45.57753   165.00877
    83  H   1.0    0.12    1.00    1.43    99.06143    39.55142   172.17811
    84  H   1.0    0.10    1.00    1.43    94.25293    44.28488   167.73925
    85  H   1.0    0.11    0.99    1.43    94.85438    41.38804   171.27054
    86  N   5.0   -0.45    3.01    1.93   103.64110    51.06680   162.09893
    87  C   4.0    0.07    3.99    3.60   103.95449    52.95876   160.15892
    88  C   4.0    0.28    3.00    3.02   104.11544    55.59386   161.39869
    89  O   6.0   -0.35    1.00    1.80   104.60032    55.86805   163.62737
    90  C   4.0   -0.14    3.98    3.59   101.74014    52.78882   158.28118
    91  C   4.0   -0.11    3.97    3.58   100.86385    50.05766   157.82962
    92  C   4.0    0.31    2.99    3.02    98.57692    49.38664   159.53728
    93  O   6.0   -0.49    1.00    1.80    98.98494    49.05986   161.84228
    94  O   6.0   -0.46    1.00    1.80    96.47793    49.22071   158.48290
    95  H   1.0    0.29    1.00    1.43   101.80823    50.47428   162.39923
    96  H   1.0    0.13    0.99    1.43   105.78079    52.60952   159.22674
    97  H   1.0    0.15    0.99    1.43   100.15801    53.87650   159.05473
    98  H   1.0    0.11    0.99    1.43   102.30476    53.60273   156.47173
    99  H   1.0    0.12    0.99    1.43   100.29545    49.81507   155.86738
   100  H   1.0    0.12    0.99    1.43   102.38549    48.72974   158.23964
   101  N   5.0   -0.50    3.01    1.93   103.76867    57.54695   159.77287
   102  C   4.0    0.08    3.99    3.61   103.27770    60.10717   160.68414
   103  C   4.0    0.27    3.01    3.02   101.80735    61.49102   158.63627
   104  O   6.0   -0.46    1.00    1.80    99.70165    62.41786   158.97941
   105  C   4.0   -0.12    3.98    3.59   105.78990    61.46939   161.29683
   106  C   4.0   -0.03    3.12    3.03   105.50670    63.52542   163.20545
   107  C   4.0    0.02    3.21    3.04   104.81858    65.99008   162.86293
   108  C   4.0    0.02    3.19    3.03   106.04661    63.23978   165.83402
   109  N   5.0   -0.47    3.10    1.94   104.95151    67.27037   165.10542
   110  C   4.0    0.12    3.21    3.04   105.69067    65.64014   166.96346
   111  C   4.0   -0.09    3.02    3.02   106.76411    61.18115   167.31531
   112  C   4.0   -0.10    3.02    3.02   106.12309    66.02651   169.52695
   113  C   4.0   -0.09    3.03    3.02   107.17049    61.58228   169.85337
   114  C   4.0   -0.10    3.03    3.02   106.86905    63.97234   170.94557
   115  H   1.0    0.25    1.00    1.43   103.06378    57.10802   158.05557
   116  H   1.0    0.16    0.99    1.43   102.13830    59.98848   162.41149
   117  H   1.0    0.13    0.99    1.43   107.05911    60.04222   162.06837
   118  H   1.0    0.11    0.99    1.43   106.61426    62.22235   159.56946
   119  H   1.0    0.13    1.00    1.43   104.17934    66.92674   161.18400
   120  H   1.0    0.24    1.00    1.43   104.37274    69.06039   165.37577
   121  H   1.0    0.15    0.99    1.43   106.94889    59.31528   166.49969
   122  H   1.0    0.12    0.99    1.43   105.87760    67.86497   170.38037
   123  H   1.0    0.13    0.99    1.43   107.69826    60.01240   171.04770
   124  H   1.0    0.12    0.99    1.43   107.22159    64.20059   172.94602
   125  N   5.0   -0.48    3.01    1.93   103.07613    61.63882   156.45944
   126  C   4.0    0.07    3.99    3.61   102.13140    62.64585   154.11156
   127  C   4.0    0.26    3.01    3.02   101.68426    60.49060   152.22331
   128  O   6.0   -0.41    1.00    1.80   102.59035    58.39323   152.50646
   129  C   4.0   -0.13    3.99    3.60   104.10558    64.43354   152.91709
   130  C   4.0   -0.02    3.12    3.03   104.54759    66.73188   154.49083
   131  C   4.0    0.02    3.21    3.04   106.56117    67.21543   156.03796
   132  C   4.0    0.02    3.18    3.03   102.85689    68.82212   154.75992
   133  N   5.0   -0.48    3.10    1.94   106.25571    69.49326   157.20998
   134  C   4.0    0.12    3.22    3.04   103.98466    70.49768   156.52343
   135  C   4.0   -0.12    3.02    3.02   100.51044    69.41923   153.71561
   136  C   4.0   -0.10    3.02    3.02   102.76833    72.68950   157.31410
   137  C   4.0   -0.12    3.03    3.02    99.32811    71.60759   154.48661
   138  C   4.0   -0.11    3.03    3.02   100.42676    73.20231   156.29339
   139  H   1.0    0.25    1.00    1.43   104.68505    60.61381   156.30873
   140  H   1.0    0.13    0.99    1.43   100.35886    63.62865   154.50357
   141  H   1.0    0.12    0.99    1.43   105.86173    63.37888   152.69092
   142  H   1.0    0.12    0.99    1.43   103.36360    64.93515   151.06116
   143  H   1.0    0.11    1.00    1.43   108.20562    66.08163   156.38258
   144  H   1.0    0.23    1.00    1.43   107.39941    70.18649   158.56248
   145  H   1.0    0.11    1.00    1.43    99.59949    68.16516   152.38916
   146  H   1.0    0.12    1.00    1.43   103.58449    73.91933   158.72065
   147  H   1.0    0.11    0.99    1.43    97.47977    72.08001   153.75174
   148  H   1.0    0.11    0.99    1.43    99.37068    74.82886   156.94384
   149  N   5.0   -0.49    3.01    1.93   100.45036    61.28180   150.13867
   150  C   4.0    0.06    3.98    3.59    99.81736    59.60216   148.05104
   151  C   4.0    0.05    3.01    3.02    99.38863    61.34683   145.78164
   152  O   6.0   -0.41    1.00    1.80    97.79392    63.02891   145.94678
   153  C   4.0   -0.12    3.98    3.59    97.38081    58.13467   148.67984
   154  C   4.0   -0.15    3.98    3.58    97.13416    55.56702   147.38672
   155  C   4.0   -0.04    3.99    3.59    94.59364    54.36092   148.10209
   156  N   5.0   -0.48    3.02    1.93    94.31721    54.10800   150.82292
   157  C   4.0    0.37    3.00    3.02    95.32854    52.32174   152.28783
   158  N   5.0   -0.64    3.02    1.93    95.23586    52.59299   154.77610
   159  N   5.0   -0.64    3.01    1.93    96.49151    50.30884   151.31121
   160  H   1.0    0.25    1.00    1.43    99.22968    62.74356   150.36399
   161  H   1.0    0.13    0.99    1.43   101.39805    58.30229   147.79098
   162  H   1.0    0.15    0.99    1.43    97.36979    57.83822   150.72180
   163  H   1.0    0.13    0.99    1.43    95.75159    59.31848   148.22165
   164  H   1.0    0.10    0.99    1.43    97.20927    55.77821   145.33926
   165  H   1.0    0.12    0.99    1.43    98.67605    54.34465   148.00213
   166  H   1.0    0.11    0.99    1.43    93.04975    55.56827   147.45947
   167  H   1.0    0.11    0.99    1.43    94.36992    52.52019   147.19941
   168  H   1.0    0.25    1.00    1.43    93.51991    55.59262   151.72720
   169  H   1.0    0.27    1.00    1.43    94.35125    54.10780   155.51025
   170  H   1.0    0.32    1.00    1.43    95.78187    51.20128   156.04537
   171  H   1.0    0.26    1.00    1.43    96.42643    49.95346   149.44244
   172  H   1.0    0.27    1.00    1.43    96.94967    48.88161   152.48646
   173  H   1.0    0.29    1.00    1.43    96.02515    68.30587   154.46884
   174  H   1.0    0.12    1.00    1.43   100.39727    61.10711   144.20169

           ------------------------------------------------- 
          |        Self-Consistent Charge Iterations        |
           ------------------------------------------------- 

          ...................................................
          :                      SETUP                      :
          :.................................................:
          :  # basis functions                 456          :
          :  # atomic orbitals                 455          :
          :  # shells                          267          :
          :  # electrons                       494          :
          :  max. iterations                   250          :
          :  Hamiltonian                  GFN2-xTB          :
          :  restarted?                      false          :
          :  GBSA solvation                   true          :
          :  PC potential                    false          :
          :  electronic temp.          500.0000000     K    :
          :  accuracy                    0.1000000          :
          :  -> integral cutoff          0.3500000E+02      :
          :  -> integral neglect         0.1000000E-08      :
          :  -> SCF convergence          0.1000000E-06 Eh   :
          :  -> wf. convergence          0.1000000E-04 e    :
          :  Broyden damping             0.4000000          :
          ...................................................

 iter      E             dE          RMSdq      gap      omega  full diag
   1   -280.6337466 -0.280634E+03  0.422E+00    2.63       0.0  T
   2   -281.3456579 -0.711911E+00  0.231E+00    1.52       1.0  T
   3   -281.3726642 -0.270063E-01  0.122E+00    2.01       1.0  T
   4   -281.3750725 -0.240835E-02  0.406E-01    1.39       1.0  T
   5   -281.3970161 -0.219436E-01  0.122E-01    1.56       1.0  T
   6   -281.3975798 -0.563728E-03  0.653E-02    1.60       1.0  T
   7   -281.3978044 -0.224590E-03  0.250E-02    1.59       1.0  T
   8   -281.3978143 -0.987408E-05  0.101E-02    1.60       1.0  T
   9   -281.3978190 -0.474508E-05  0.439E-03    1.60       1.7  T
  10   -281.3978196 -0.600847E-06  0.202E-03    1.60       3.8  T
  11   -281.3978198 -0.109041E-06  0.940E-04    1.60       8.1  T
  12   -281.3978198 -0.333675E-07  0.368E-04    1.60      20.6  T
  13   -281.3978198 -0.395750E-08  0.189E-04    1.60      40.1  T
  14   -281.3978198 -0.138266E-08  0.828E-05    1.60      91.5  T
  15   -281.3978198 -0.243688E-09  0.419E-05    1.60     180.7  T

   *** convergence criteria satisfied after 15 iterations ***

         #    Occupation            Energy/Eh            Energy/eV
      -------------------------------------------------------------
         1        2.0000           -0.7379565             -20.0808
       ...           ...                  ...                  ...
       241        2.0000           -0.3822288             -10.4010
       242        2.0000           -0.3781903             -10.2911
       243        2.0000           -0.3775887             -10.2747
       244        2.0000           -0.3688115             -10.0359
       245        2.0000           -0.3647203              -9.9245
       246        2.0000           -0.3620965              -9.8531
       247        2.0000           -0.3601115              -9.7991 (HOMO)
       248                         -0.3011585              -8.1949 (LUMO)
       249                         -0.2515906              -6.8461
       250                         -0.2427013              -6.6042
       251                         -0.2360845              -6.4242
       252                         -0.2352864              -6.4025
       ...                                ...                  ...
       455                          0.7208730              19.6160
      -------------------------------------------------------------
                  HL-Gap            0.0589530 Eh            1.6042 eV
             Fermi-level           -0.3304009 Eh           -8.9907 eV

 SCC (total)                   0 d,  0 h,  0 min,  1.583 sec
 SCC setup                      ...        0 min,  0.022 sec (  1.361%)
 Dispersion                     ...        0 min,  0.010 sec (  0.647%)
 integral evaluation            ...        0 min,  0.053 sec (  3.363%)
 zeroth order Hamiltonian       ...        0 min,  0.003 sec (  0.179%)
 iterations                     ...        0 min,  1.210 sec ( 76.395%)
 molecular gradient             ...        0 min,  0.278 sec ( 17.582%)
 printout                       ...        0 min,  0.007 sec (  0.468%)

         :::::::::::::::::::::::::::::::::::::::::::::::::::::
         ::                     SUMMARY                     ::
         :::::::::::::::::::::::::::::::::::::::::::::::::::::
         :: total energy             -277.782372828800 Eh   ::
         :: total w/o Gsasa/hb       -277.751949077986 Eh   ::
         :: gradient norm               0.230883706118 Eh/α ::
         :: HOMO-LUMO gap               1.604193098117 eV   ::
         ::.................................................::
         :: SCC energy               -281.408389253786 Eh   ::
         :: -> isotropic ES             0.702983603583 Eh   ::
         :: -> anisotropic ES          -0.023684753938 Eh   ::
         :: -> anisotropic XC           0.094879402962 Eh   ::
         :: -> dispersion              -0.237251619210 Eh   ::
         :: -> Gsolv                   -0.167495062639 Eh   ::
         ::    -> Gborn                -0.137071311826 Eh   ::
         ::    -> Gsasa                -0.012426902994 Eh   ::
         ::    -> Ghb                  -0.019854290946 Eh   ::
         ::    -> Gshift                0.001857443127 Eh   ::
         :: repulsion energy            3.608768360730 Eh   ::
         :: add. restraining            0.000000000000 Eh   ::
         :::::::::::::::::::::::::::::::::::::::::::::::::::::

           -------------------------------------------------
          |                Property Printout                |
           -------------------------------------------------

    * Orbital Energies and Occupations

         #    Occupation            Energy/Eh            Energy/eV
      -------------------------------------------------------------
         1        2.0000           -0.7379565             -20.0808
       ...           ...                  ...                  ...
       235        2.0000           -0.3984345             -10.8420
       236        2.0000           -0.3961536             -10.7799
       237        2.0000           -0.3949159             -10.7462
       238        2.0000           -0.3916696             -10.6579
       239        2.0000           -0.3894711             -10.5980
       240        2.0000           -0.3864302             -10.5153
       241        2.0000           -0.3822288             -10.4010
       242        2.0000           -0.3781903             -10.2911
       243        2.0000           -0.3775887             -10.2747
       244        2.0000           -0.3688115             -10.0359
       245        2.0000           -0.3647203              -9.9245
       246        2.0000           -0.3620965              -9.8531
       247        2.0000           -0.3601115              -9.7991 (HOMO)
       248                         -0.3011585              -8.1949 (LUMO)
       249                         -0.2515906              -6.8461
       250                         -0.2427013              -6.6042
       251                         -0.2360845              -6.4242
       252                         -0.2352864              -6.4025
       253                         -0.2324067              -6.3241
       254                         -0.2302891              -6.2665
       255                         -0.2276425              -6.1945
       256                         -0.2270417              -6.1781
       257                         -0.2268897              -6.1740
       258                         -0.2224868              -6.0542
       ...                                ...                  ...
       455                          0.7208730              19.6160
      -------------------------------------------------------------
                  HL-Gap            0.0589530 Eh            1.6042 eV
             Fermi-level           -0.3304009 Eh           -8.9907 eV

   #   Z        covCN         q      C6AA      α(0)
   1   7 N      2.637    -0.383    29.910     8.122
   2   6 C      3.821     0.028    20.092     6.379
   3   6 C      2.759     0.280    22.257     7.726
   4   8 O      0.858    -0.487    23.495     6.499
   5   6 C      3.799    -0.006    20.683     6.475
   6  16 S      1.924    -0.348   156.286    21.041
   7   1 H      0.860     0.159     1.342     1.815
   8   1 H      0.924     0.061     2.187     2.312
   9   1 H      0.925     0.057     2.229     2.335
  10   1 H      0.925     0.049     2.330     2.387
  11   1 H      0.923     0.187     1.169     1.691
  12   7 N      2.695    -0.190    25.131     7.445
  13   6 C      3.799     0.005    20.499     6.446
  14   6 C      2.761     0.277    22.307     7.734
  15   8 O      0.858    -0.482    23.382     6.483
  16   6 C      3.729     0.107    18.911     6.208
  17   8 O      1.652    -0.461    22.061     6.340
  18   6 C      3.753    -0.143    23.323     6.887
  19   1 H      0.860     0.226     0.981     1.551
  20   1 H      0.923     0.078     1.996     2.209
  21   1 H      0.923     0.031     2.568     2.506
  22   1 H      0.802     0.352     0.583     1.200
  23   1 H      0.925     0.070     2.080     2.255
  24   1 H      0.925     0.056     2.249     2.345
  25   1 H      0.925     0.074     2.046     2.237
  26   7 N      2.690    -0.164    24.554     7.359
  27   6 C      3.747    -0.025    21.084     6.549
  28   6 C      2.750     0.284    22.185     7.713
  29   8 O      0.858    -0.489    23.546     6.506
  30   1 H      0.860     0.204     1.084     1.631
  31   1 H      0.924     0.077     2.015     2.220
  32   1 H      0.924     0.081     1.971     2.196
  33   7 N      2.690    -0.164    24.556     7.360
  34   6 C      3.790     0.019    20.261     6.411
  35   6 C      2.754     0.276    22.335     7.739
  36   8 O      0.858    -0.493    23.624     6.517
  37   6 C      3.806    -0.065    21.734     6.637
  38   6 C      3.849    -0.012    20.762     6.481
  39   6 C      3.756    -0.115    22.760     6.802
  40   6 C      3.754    -0.117    22.798     6.808
  41   1 H      0.860     0.209     1.062     1.614
  42   1 H      0.924     0.079     1.988     2.205
  43   1 H      0.925     0.050     2.323     2.383
  44   1 H      0.925     0.057     2.233     2.337
  45   1 H      0.924     0.046     2.371     2.408
  46   1 H      0.925     0.053     2.283     2.363
  47   1 H      0.925     0.037     2.487     2.466
  48   1 H      0.925     0.034     2.529     2.487
  49   1 H      0.925     0.053     2.279     2.361
  50   1 H      0.925     0.039     2.463     2.454
  51   1 H      0.925     0.035     2.518     2.481
  52   7 N      2.687    -0.190    25.111     7.442
  53   6 C      3.795     0.022    20.205     6.401
  54   6 C      2.755     0.276    22.332     7.739
  55   8 O      0.858    -0.501    23.804     6.541
  56   6 C      3.758    -0.127    22.996     6.837
  57   1 H      0.860     0.207     1.073     1.622
  58   1 H      0.924     0.078     1.996     2.209
  59   1 H      0.925     0.074     2.037     2.232
  60   1 H      0.925     0.074     2.042     2.235
  61   1 H      0.925     0.061     2.182     2.310
  62   7 N      2.691    -0.177    24.834     7.401
  63   6 C      3.800     0.025    20.149     6.391
  64   6 C      2.751     0.274    22.366     7.744
  65   8 O      0.858    -0.520    24.243     6.601
  66   6 C      3.807    -0.065    21.736     6.637
  67   6 C      3.057    -0.035    28.805     8.802
  68   6 C      3.037    -0.006    28.140     8.701
  69   6 C      3.113    -0.022    28.394     8.729
  70   7 N      2.775    -0.111    23.419     7.187
  71   6 C      3.090     0.044    26.918     8.504
  72   6 C      2.909    -0.045    29.127     8.850
  73   6 C      2.908    -0.057    29.418     8.894
  74   6 C      2.919    -0.051    29.278     8.873
  75   6 C      2.923    -0.044    29.092     8.845
  76   1 H      0.860     0.203     1.090     1.635
  77   1 H      0.924     0.070     2.087     2.259
  78   1 H      0.924     0.054     2.266     2.354
  79   1 H      0.924     0.047     2.353     2.399
  80   1 H      0.926     0.041     2.440     2.442
  81   1 H      0.860     0.201     1.099     1.642
  82   1 H      0.925     0.020     2.733     2.585
  83   1 H      0.926     0.038     2.469     2.457
  84   1 H      0.926     0.031     2.574     2.509
  85   1 H      0.926     0.037     2.487     2.466
  86   7 N      2.692    -0.197    25.270     7.466
  87   6 C      3.790     0.025    20.169     6.396
  88   6 C      2.751     0.282    22.232     7.721
  89   8 O      0.858    -0.473    23.190     6.457
  90   6 C      3.803    -0.067    21.786     6.645
  91   6 C      3.798    -0.106    22.534     6.759
  92   6 C      2.685     0.366    20.790     7.462
  93   8 O      0.856    -0.600    26.130     6.853
  94   8 O      0.856    -0.579    25.620     6.786
  95   1 H      0.859     0.236     0.941     1.520
  96   1 H      0.923     0.069     2.091     2.262
  97   1 H      0.924     0.039     2.456     2.451
  98   1 H      0.924     0.070     2.086     2.259
  99   1 H      0.925     0.058     2.219     2.330
 100   1 H      0.924     0.034     2.530     2.487
 101   7 N      2.690    -0.204    25.444     7.492
 102   6 C      3.797     0.030    20.075     6.380
 103   6 C      2.754     0.270    22.437     7.756
 104   8 O      0.858    -0.490    23.569     6.509
 105   6 C      3.806    -0.071    21.863     6.656
 106   6 C      3.055    -0.036    28.847     8.808
 107   6 C      3.031    -0.009    28.212     8.712
 108   6 C      3.121    -0.020    28.329     8.717
 109   7 N      2.778    -0.107    23.339     7.175
 110   6 C      3.083     0.044    26.929     8.507
 111   6 C      2.909    -0.037    28.916     8.818
 112   6 C      2.908    -0.058    29.438     8.897
 113   6 C      2.921    -0.044    29.095     8.845
 114   6 C      2.923    -0.041    29.027     8.835
 115   1 H      0.860     0.201     1.103     1.645
 116   1 H      0.924     0.058     2.226     2.333
 117   1 H      0.925     0.062     2.177     2.308
 118   1 H      0.925     0.058     2.217     2.329
 119   1 H      0.926     0.051     2.313     2.378
 120   1 H      0.860     0.200     1.107     1.648
 121   1 H      0.925     0.016     2.791     2.613
 122   1 H      0.926     0.037     2.496     2.470
 123   1 H      0.926     0.010     2.888     2.658
 124   1 H      0.925     0.027     2.629     2.536
 125   7 N      2.695    -0.151    24.258     7.315
 126   6 C      3.795     0.011    20.393     6.430
 127   6 C      2.756     0.267    22.495     7.767
 128   8 O      0.857    -0.462    22.966     6.425
 129   6 C      3.810    -0.075    21.930     6.666
 130   6 C      3.055    -0.034    28.793     8.800
 131   6 C      3.033    -0.007    28.154     8.703
 132   6 C      3.115    -0.019    28.328     8.719
 133   7 N      2.778    -0.105    23.302     7.169
 134   6 C      3.087     0.047    26.857     8.495
 135   6 C      2.910    -0.046    29.143     8.852
 136   6 C      2.907    -0.052    29.302     8.876
 137   6 C      2.918    -0.049    29.218     8.864
 138   6 C      2.923    -0.040    29.002     8.831
 139   1 H      0.860     0.215     1.033     1.592
 140   1 H      0.924     0.079     1.988     2.205
 141   1 H      0.924     0.064     2.155     2.296
 142   1 H      0.924     0.076     2.022     2.224
 143   1 H      0.926     0.048     2.345     2.395
 144   1 H      0.860     0.195     1.131     1.666
 145   1 H      0.926     0.032     2.557     2.501
 146   1 H      0.926     0.033     2.543     2.494
 147   1 H      0.925     0.024     2.672     2.556
 148   1 H      0.925     0.024     2.673     2.557
 149   7 N      2.697    -0.177    24.837     7.402
 150   6 C      3.788     0.019    20.261     6.411
 151   6 C      2.771     0.200    23.735     7.979
 152   8 O      0.856    -0.346    20.631     6.090
 153   6 C      3.806    -0.081    22.045     6.684
 154   6 C      3.801    -0.087    22.161     6.702
 155   6 C      3.738    -0.030    21.183     6.567
 156   7 N      2.699    -0.141    24.062     7.285
 157   6 C      2.735     0.235    23.078     7.865
 158   7 N      2.653    -0.263    26.827     7.692
 159   7 N      2.650    -0.248    26.450     7.638
 160   1 H      0.860     0.212     1.046     1.602
 161   1 H      0.924     0.095     1.835     2.118
 162   1 H      0.924     0.065     2.145     2.290
 163   1 H      0.924     0.075     2.029     2.228
 164   1 H      0.925     0.075     2.033     2.230
 165   1 H      0.924     0.072     2.059     2.244
 166   1 H      0.924     0.097     1.808     2.103
 167   1 H      0.924     0.090     1.879     2.144
 168   1 H      0.860     0.225     0.988     1.557
 169   1 H      0.860     0.208     1.065     1.616
 170   1 H      0.858     0.249     0.886     1.474
 171   1 H      0.860     0.253     0.872     1.463
 172   1 H      0.860     0.230     0.967     1.540
 173   1 H      0.862     0.192     1.146     1.677
 174   1 H      0.930     0.090     1.877     2.142

 Mol. C6AA /au·bohr⁶  :     327592.761153
 Mol. C8AA /au·bohr⁸  :    7694122.633405
 Mol. α(0) /au        :        875.615860


Wiberg/Mayer (AO) data.
largest (>0.10) Wiberg bond orders for each atom
          total WBO             WBO to atom ...
     1  N   3.008        C    2 1.009    H    7 0.958    H  173 0.938
     2  C   3.984        N    1 1.009    C    5 0.992    H    8 0.944    C    3 0.935
     3  C   3.941        O    4 1.663    N   12 1.274    C    2 0.935
     4  O   1.972        C    3 1.663    N   12 0.194
     5  C   3.972        C    2 0.992    S    6 0.987    H   10 0.973    H    9 0.960
     6  S   1.996        C    5 0.987    H   11 0.918
     7  H   0.975        N    1 0.958
     8  H   0.996        C    2 0.944
     9  H   0.996        C    5 0.960
    10  H   0.997        C    5 0.973
    11  H   0.965        S    6 0.918
    12  N   3.446        C    3 1.274    C   13 0.990    H   19 0.909    O    4 0.194
    13  C   3.967        N   12 0.990    H   20 0.948    C   16 0.945    C   14 0.940
    14  C   3.947        O   15 1.641    N   26 1.288    C   13 0.940
    15  O   1.961        C   14 1.641    N   26 0.195
    16  C   3.962        O   17 1.006    C   18 1.001    H   21 0.960    C   13 0.945
    17  O   1.966        C   16 1.006    H   22 0.858
    18  C   3.986        C   16 1.001    H   23 0.982    H   25 0.980    H   24 0.977
    19  H   0.949        N   12 0.909
    20  H   0.994        C   13 0.948
    21  H   0.999        C   16 0.960
    22  H   0.876        O   17 0.858
    23  H   0.995        C   18 0.982
    24  H   0.997        C   18 0.977
    25  H   0.995        C   18 0.980
    26  N   3.470        C   14 1.288    C   27 0.996    H   30 0.920    O   15 0.195
    27  C   3.967        N   26 0.996    H   32 0.964    H   31 0.960    C   28 0.935
    28  C   3.948        O   29 1.643    N   33 1.301    C   27 0.935
    29  O   1.958        C   28 1.643    N   33 0.196
    30  H   0.958        N   26 0.920
    31  H   0.994        C   27 0.960
    32  H   0.993        C   27 0.964
    33  N   3.472        C   28 1.301    C   34 0.981    H   41 0.927    O   29 0.196
    34  C   3.962        N   33 0.981    C   37 0.975    H   42 0.941    C   35 0.935
    35  C   3.942        O   36 1.653    N   52 1.272    C   34 0.935
    36  O   1.968        C   35 1.653    N   52 0.190
    37  C   3.982        C   38 0.991    C   34 0.975    H   43 0.969    H   44 0.958
    38  C   3.993        C   40 1.010    C   39 1.010    C   37 0.991    H   45 0.967
    39  C   3.995        C   38 1.010    H   46 0.985    H   48 0.984    H   47 0.983
    40  C   3.995        C   38 1.010    H   49 0.985    H   50 0.983    H   51 0.983
    41  H   0.956        N   33 0.927
    42  H   0.993        C   34 0.941
    43  H   0.997        C   37 0.969
    44  H   0.996        C   37 0.958
    45  H   0.997        C   38 0.967
    46  H   0.997        C   39 0.985
    47  H   0.999        C   39 0.983
    48  H   0.999        C   39 0.984
    49  H   0.997        C   40 0.985
    50  H   0.998        C   40 0.983
    51  H   0.999        C   40 0.983
    52  N   3.452        C   35 1.272    C   53 0.983    H   57 0.919    O   36 0.190
    53  C   3.961        C   56 0.989    N   52 0.983    H   58 0.943    C   54 0.934
    54  C   3.948        O   55 1.626    N   62 1.306    C   53 0.934
    55  O   1.942        C   54 1.626    N   62 0.195
    56  C   3.983        C   53 0.989    H   60 0.982    H   61 0.980    H   59 0.979
    57  H   0.957        N   52 0.919
    58  H   0.993        C   53 0.943
    59  H   0.994        C   56 0.979
    60  H   0.994        C   56 0.982
    61  H   0.996        C   56 0.980
    62  N   3.477        C   54 1.306    C   63 0.982    H   76 0.911    O   55 0.195
    63  C   3.959        N   62 0.982    H   77 0.957    C   66 0.952    C   64 0.932
    64  C   3.949        O   65 1.609    N   86 1.331    C   63 0.932
    65  O   1.923        C   64 1.609    N   86 0.201
    66  C   3.989        C   67 1.013    H   79 0.971    H   78 0.967    C   63 0.952
    67  C   3.973        C   68 1.575    C   69 1.209    C   66 1.013
    68  C   3.956        C   67 1.575    N   70 1.212    H   80 0.969
    69  C   3.984        C   72 1.328    C   71 1.242    C   67 1.209
    70  N   3.551        C   68 1.212    C   71 1.184    H   81 0.932
    71  C   3.959        C   73 1.336    C   69 1.242    N   70 1.184
    72  C   3.992        C   74 1.503    C   69 1.328    H   82 0.964    C   73 0.112
    73  C   3.988        C   75 1.495    C   71 1.336    H   83 0.967    C   72 0.112
    74  C   3.990        C   72 1.503    C   75 1.367    H   84 0.967
    75  C   3.990        C   73 1.495    C   74 1.367    H   85 0.971
    76  H   0.959        N   62 0.911
    77  H   0.995        C   63 0.957
    78  H   0.997        C   66 0.967
    79  H   0.997        C   66 0.971
    80  H   0.998        C   68 0.969
    81  H   0.959        N   70 0.932
    82  H   0.999        C   72 0.964
    83  H   0.998        C   73 0.967
    84  H   0.999        C   74 0.967
    85  H   0.998        C   75 0.971
    86  N   3.474        C   64 1.331    C   87 0.992    H   95 0.833    O   65 0.201
    87  C   3.968        N   86 0.992    C   90 0.982    H   96 0.942    C   88 0.926
    88  C   3.940        O   89 1.688    N  101 1.249    C   87 0.926
    89  O   1.993        C   88 1.688    N  101 0.186
    90  C   3.991        C   91 0.993    C   87 0.982    H   97 0.976    H   98 0.969
    91  C   3.988        C   90 0.993    H   99 0.976    H  100 0.970    C   92 0.929
    92  C   3.932        O   94 1.498    O   93 1.472    C   91 0.929
    93  O   1.897        C   92 1.472    O   94 0.201
    94  O   1.882        C   92 1.498    O   93 0.201
    95  H   0.944        N   86 0.833
    96  H   0.995        C   87 0.942
    97  H   0.998        C   90 0.976
    98  H   0.995        C   90 0.969
    99  H   0.996        C   91 0.976
   100  H   0.999        C   91 0.970
   101  N   3.404        C   88 1.249    C  102 0.963    H  115 0.918    O   89 0.186
   102  C   3.956        N  101 0.963    H  116 0.959    C  105 0.952    C  103 0.952
   103  C   3.952        O  104 1.594    N  125 1.322    C  102 0.952
   104  O   1.956        C  103 1.594    N  125 0.193
   105  C   3.987        C  106 1.016    H  117 0.966    H  118 0.966    C  102 0.952
   106  C   3.974        C  107 1.577    C  108 1.207    C  105 1.016
   107  C   3.951        C  106 1.577    N  109 1.206    H  119 0.965
   108  C   3.986        C  111 1.331    C  110 1.248    C  106 1.207
   109  N   3.549        C  107 1.206    C  110 1.186    H  120 0.932
   110  C   3.964        C  112 1.335    C  108 1.248    N  109 1.186
   111  C   3.992        C  113 1.505    C  108 1.331    H  121 0.967    C  112 0.114
   112  C   3.988        C  114 1.495    C  110 1.335    H  122 0.968    C  111 0.114
   113  C   3.990        C  111 1.505    C  114 1.370    H  123 0.973
   114  C   3.991        C  112 1.495    C  113 1.370    H  124 0.972
   115  H   0.959        N  101 0.918
   116  H   0.996        C  102 0.959
   117  H   0.996        C  105 0.966
   118  H   0.996        C  105 0.966
   119  H   0.997        C  107 0.965
   120  H   0.960        N  109 0.932
   121  H   0.999        C  111 0.967
   122  H   0.998        C  112 0.968
   123  H   1.000        C  113 0.973
   124  H   0.999        C  114 0.972
   125  N   3.497        C  103 1.322    C  126 0.986    H  139 0.915    O  104 0.193
   126  C   3.959        N  125 0.986    H  140 0.949    C  129 0.948    C  127 0.929
   127  C   3.950        O  128 1.668    N  149 1.270    C  126 0.929
   128  O   1.985        C  127 1.668    N  149 0.193
   129  C   3.984        C  130 1.017    H  141 0.971    H  142 0.961    C  126 0.948
   130  C   3.972        C  131 1.571    C  132 1.207    C  129 1.017
   131  C   3.952        C  130 1.571    N  133 1.211    H  143 0.968
   132  C   3.984        C  135 1.331    C  134 1.242    C  130 1.207
   133  N   3.555        C  131 1.211    C  134 1.187    H  144 0.934
   134  C   3.962        C  136 1.337    C  132 1.242    N  133 1.187
   135  C   3.992        C  137 1.498    C  132 1.331    H  145 0.965    C  136 0.111
   136  C   3.990        C  138 1.494    C  134 1.337    H  146 0.968    C  135 0.111
   137  C   3.991        C  135 1.498    C  138 1.360    H  147 0.968
   138  C   3.991        C  136 1.494    C  137 1.360    H  148 0.972
   139  H   0.954        N  125 0.915
   140  H   0.994        C  126 0.949
   141  H   0.995        C  129 0.971
   142  H   0.993        C  129 0.961
   143  H   0.997        C  131 0.968
   144  H   0.961        N  133 0.934
   145  H   0.998        C  135 0.965
   146  H   0.998        C  136 0.968
   147  H   0.999        C  137 0.968
   148  H   0.999        C  138 0.972
   149  N   3.435        C  127 1.270    C  150 0.968    H  160 0.919    O  128 0.193
   150  C   3.958        C  151 0.974    N  149 0.968    H  161 0.958    C  153 0.957
   151  C   3.897        O  152 1.918    C  150 0.974    H  174 0.952
   152  O   2.057        C  151 1.918
   153  C   3.984        C  154 1.009    H  163 0.971    H  162 0.968    C  150 0.957
   154  C   3.990        C  153 1.009    C  155 0.994    H  165 0.973    H  164 0.971
   155  C   3.948        C  154 0.994    N  156 0.982    H  166 0.967    H  167 0.960
   156  N   3.458        C  157 1.302    C  155 0.982    H  168 0.917    N  158 0.106
   157  C   3.976        N  158 1.338    N  159 1.304    N  156 1.302
   158  N   3.405        C  157 1.338    H  169 0.931    H  170 0.843    N  156 0.106    N  159 0.103
   159  N   3.381        C  157 1.304    H  172 0.926    H  171 0.911    N  158 0.103
   160  H   0.955        N  149 0.919
   161  H   0.991        C  150 0.958
   162  H   0.996        C  153 0.968
   163  H   0.994        C  153 0.971
   164  H   0.994        C  154 0.971
   165  H   0.995        C  154 0.973
   166  H   0.990        C  155 0.967
   167  H   0.991        C  155 0.960
   168  H   0.949        N  156 0.917
   169  H   0.957        N  158 0.931
   170  H   0.937        N  158 0.843
   171  H   0.936        N  159 0.911
   172  H   0.947        N  159 0.926
   173  H   0.963        N    1 0.938
   174  H   0.992        C  151 0.952
 
molecular dipole:
                 x           y           z       tot (Debye)
 q only:       -4.446       0.775     -14.046
   full:       -4.408       1.120     -13.702      36.696
molecular quadrupole (traceless):
                xx          xy          yy          xz          yz          zz
 q only:     1251.610    -163.980    2765.228   -3160.280   -1009.167   -4016.838
  q+dip:     1181.979    -123.736    2760.179   -3102.594    -898.484   -3942.158
   full:     1180.881    -118.952    2761.303   -3103.305    -897.644   -3942.184


           -------------------------------------------------
          | TOTAL ENERGY             -277.782372828800 Eh   |
          | GRADIENT NORM               0.230883706118 Eh/α |
          | HOMO-LUMO GAP               1.604193098117 eV   |
           -------------------------------------------------

------------------------------------------------------------------------
 * finished run on 2019/05/31 at 06:33:46.512     
------------------------------------------------------------------------
 total:
 * wall-time:     0 d,  0 h,  0 min,  1.803 sec
 *  cpu-time:     0 d,  0 h,  0 min,  3.462 sec
 * ratio c/w:     1.920 speedup
 SCF:
 * wall-time:     0 d,  0 h,  0 min,  1.584 sec
 *  cpu-time:     0 d,  0 h,  0 min,  3.166 sec
 * ratio c/w:     1.999 speedup

