      -----------------------------------------------------------      
     |                   =====================                   |     
     |                           x T B                           |     
     |                   =====================                   |     
     |                         S. Grimme                         |     
     |          Mulliken Center for Theoretical Chemistry        |     
     |                    University of Bonn                     |     
     |                 Version 6.0.1 (SAW181210)                 |     
      -----------------------------------------------------------      

   This program is distributed in the hope that it will be useful,
   but WITHOUT ANY WARRANTY; without even the implied warranty of
   MERCHANTABILITY or FITNESS FOR A PARTICULAR PURPOSE.
   
   FOR NON-COMMERCIAL, ACADEMIA USE ONLY.
   
   Cite this work as:
   S. Grimme, C. Bannwarth, P. Shushkov, J. Comput. Theory Chem., 2017,
   13, 1989-2009.
   C. Bannwarth, S. Ehlert and S. Grimme., ChemRxiv, 2018, preprint.
   http://doi.org/10.26434/chemrxiv.7246238.v1
   
   for sTDA-xTB:
   S. Grimme and C. Bannwarth, J. Chem. Phys., 2016, 145, 054103.
   
   in the mass-spec context:
   V. Asgeirsson, C. Bauer and S. Grimme, Chem. Sci., 2017, 8, 4879.
   
   if GBSA is used:
   P. Shushkov, F. März and S. Grimme, unpublished.
   
   for ANC optimizer:
   S. Grimme, unpublished.
   Rational Function algorithm used in ANCopt:
   F. Eckert, P. Pulay, H.-J. Werner, J. Comput. Chem., 1997, 18, 1473.
   
   with help from (in alphabetical order)
   C. Bannwarth, F. Bohle, G. Brandenburg, E. Caldeweyher, M. Checinski,
   S. Dohm, S. Ehlert, S. Ehrlich, F. März, H. Neugebauer, J. Pisarek,
   P. Pracht, P. Shushkov, and S. Spicher.
   
 * started run on 2019/03/15 at 00:15:17.568     
========================================================================
 # omp threads = 1
========================================================================
number of atoms            : 438
number of electrons        : 1184
charge                     : -1
spin                       : .0
first test random number   : .6400
           ------------------------------------------------- 
          |                 G F N 2 - x T B                 |
          | Geometry, Frequencies, Noncovalent interactions |
          |            JCTC 2018 parametrisation            |
           ------------------------------------------------- 
 
      method parameters     
 k(s)        :  1.8500
 k(p)        :  2.2300
 k(d)        :  2.2300
 k(f)        :  2.0000
 kEN (H0ij)  : -2.0000
 D4 a1       :  0.5200
 D4 a2       :  5.0000
 D4 s6       :  1.0000
 D4 s8       :  2.7000
 D4 s9       :  5.0000
 alphaj      :  2.0000

 Solvent             : h2o
 Using internal parameter file: .param_gbsa2_h2o
 Gsolv ref. state (COSMO-RS): gsolv [1 M gas/solution]
 temperature (mdtemp)       :    298.150000000000     
 dielectric constant        :    80.2000000000000     
 rho                        :    1.00000000000000     
 mass                       :    18.0000000000000     
 surface tension            :    15.5689454083859     
 probe radius               :   0.975313790000000     
 vdW radii scaling          :    1.00000000000000     
 Gshift (Eh)                :   1.857443126794793E-003
 c1                         :    1.55243817000000     
 soset                      :   0.130326360000000     
 HB correction              :  T

            Z     q(EN)     CN     RAES       Cart. coordinates
     1  N   5.0   -0.22    3.27    1.97    45.51033    50.03186    44.05803
     2  C   4.0    0.03    4.34    4.28    45.02671    47.66190    42.83720
     3  C   4.0    0.07    3.23    3.04    44.12916    45.53228    44.53032
     4  O   6.0   -0.30    1.16    1.80    45.66175    44.01503    45.33264
     5  C   4.0   -0.03    4.46    4.48    47.32301    46.81019    41.43762
     6  C   4.0   -0.03    3.80    3.34    48.37489    48.65690    39.64596
     7  C   4.0   -0.02    3.73    3.26    50.76027    49.44862    39.40459
     8  C   4.0    0.00    4.05    3.71    47.01481    49.90017    37.68979
     9  N   5.0   -0.13    3.59    2.15    51.01221    51.01835    37.52018
    10  C   4.0    0.03    4.06    3.72    48.76577    51.38967    36.36544
    11  C   4.0   -0.06    3.53    3.13    44.54496    49.94119    36.87290
    12  C   4.0   -0.06    3.52    3.12    48.01988    52.82040    34.32574
    13  C   4.0   -0.04    3.52    3.12    43.91123    51.33363    34.90242
    14  C   4.0   -0.05    3.51    3.12    45.61784    52.75658    33.63997
    15  H   1.0    0.09    1.07    1.44    47.18097    50.21480    44.57349
    16  H   1.0    0.03    1.11    1.45    43.55020    48.04989    41.64468
    17  H   1.0    0.05    1.09    1.44    48.68131    46.32430    42.72682
    18  H   1.0    0.05    1.08    1.44    46.93890    45.15974    40.50407
    19  H   1.0    0.04    1.06    1.44    52.17364    48.88048    40.55567
    20  H   1.0    0.07    1.09    1.44    52.51523    51.81231    37.00174
    21  H   1.0    0.05    1.08    1.44    43.26611    48.88667    37.81323
    22  H   1.0    0.04    1.07    1.44    49.30666    53.87798    33.40325
    23  H   1.0    0.06    1.08    1.44    42.09105    51.33267    34.31838
    24  H   1.0    0.05    1.08    1.44    45.06185    53.79932    32.13758
    25  N   5.0   -0.23    3.30    1.98    34.40470    51.70715    30.29861
    26  C   4.0    0.04    4.54    4.59    36.40980    51.75190    28.49659
    27  C   4.0    0.16    3.45    3.10    38.21441    49.49576    28.47999
    28  O   6.0   -0.30    1.34    1.80    40.33250    49.75510    29.34556
    29  C   4.0   -0.02    4.47    4.49    37.91256    54.17756    28.69991
    30  C   4.0   -0.08    4.28    4.15    36.69245    56.27242    27.35604
    31  C   4.0   -0.08    4.36    4.32    38.24226    54.84262    31.37133
    32  H   1.0    0.09    1.10    1.44    34.81975    52.44963    31.83570
    33  H   1.0    0.07    1.15    1.45    35.44797    51.64241    26.81725
    34  H   1.0    0.06    1.13    1.45    39.65555    53.86266    27.89983
    35  H   1.0    0.04    1.06    1.44    37.72073    57.88400    27.49505
    36  H   1.0    0.05    1.04    1.43    36.46937    55.87825    25.49186
    37  H   1.0    0.04    1.05    1.44    34.95980    56.61646    28.10193
    38  H   1.0    0.04    1.04    1.44    39.27620    56.44420    31.56634
    39  H   1.0    0.04    1.06    1.44    36.53544    55.14896    32.19117
    40  H   1.0    0.05    1.05    1.44    39.12846    53.44473    32.33812
    41  N   5.0   -0.14    3.48    2.06    37.45346    47.32194    27.52276
    42  C   4.0    0.03    4.53    4.58    38.99495    45.07072    27.32335
    43  C   4.0    0.17    3.61    3.17    41.77563    45.67363    27.15595
    44  O   6.0   -0.29    1.30    1.80    42.57149    46.84872    25.35144
    45  C   4.0   -0.04    4.48    4.51    38.33559    43.53661    25.06015
    46  C   4.0   -0.02    3.71    3.24    39.92491    41.26923    24.66104
    47  C   4.0   -0.05    3.63    3.19    40.53673    39.70413    26.62826
    48  C   4.0   -0.04    3.60    3.17    40.69287    40.48789    22.31556
    49  C   4.0   -0.04    3.56    3.15    41.74914    37.55903    26.29129
    50  C   4.0   -0.05    3.56    3.14    41.90411    38.34336    21.94558
    51  C   4.0    0.07    3.58    3.15    42.45796    36.78114    23.92715
    52  O   6.0   -0.26    2.15    1.85    43.53099    34.48479    23.61567
    53  H   1.0    0.09    1.11    1.45    35.83053    47.10531    26.87462
    54  H   1.0    0.04    1.11    1.45    38.68191    44.05569    28.94462
    55  H   1.0    0.04    1.08    1.44    36.48230    42.99857    25.15643
    56  H   1.0    0.06    1.09    1.44    38.43721    44.67018    23.50109
    57  H   1.0    0.05    1.09    1.44    40.02248    40.23669    28.38114
    58  H   1.0    0.05    1.08    1.44    40.29506    41.61845    20.83280
    59  H   1.0    0.05    1.08    1.44    42.17682    36.43483    27.76675
    60  H   1.0    0.05    1.08    1.44    42.44616    37.79346    20.20040
    61  H   1.0    0.13    1.09    1.44    43.87376    34.27466    21.95926
    62  N   5.0   -0.16    3.47    2.06    43.36277    44.80665    28.87599
    63  C   4.0    0.03    4.48    4.51    45.99699    45.47042    28.88204
    64  C   4.0    0.15    3.41    3.08    47.88364    44.35337    26.96644
    65  O   6.0   -0.30    1.32    1.80    50.10438    44.87100    27.17340
    66  C   4.0   -0.05    4.41    4.39    47.10408    45.30829    31.51144
    67  C   4.0   -0.04    4.34    4.27    49.30427    46.94181    32.10088
    68  C   4.0   -0.00    4.36    4.31    51.73175    45.60783    32.35569
    69  N   5.0   -0.13    3.57    2.13    53.67570    46.53636    30.71264
    70  C   4.0    0.10    3.44    3.09    56.17017    46.35174    31.02734
    71  N   5.0   -0.18    3.48    2.06    56.97742    45.31876    32.89013
    72  N   5.0   -0.18    3.43    2.03    57.61954    47.24210    29.43151
    73  H   1.0    0.08    1.11    1.45    42.87457    43.75279    30.19419
    74  H   1.0    0.06    1.15    1.45    45.87671    47.28151    28.19026
    75  H   1.0    0.04    1.08    1.44    45.70246    45.63842    32.80460
    76  H   1.0    0.04    1.09    1.44    47.62964    43.47462    31.83130
    77  H   1.0    0.05    1.09    1.44    49.47661    48.26682    30.70711
    78  H   1.0    0.04    1.10    1.44    48.95677    47.96933    33.70108
    79  H   1.0    0.04    1.08    1.44    52.36352    45.70780    34.17935
    80  H   1.0    0.05    1.08    1.44    51.44604    43.72204    32.04035
    81  H   1.0    0.10    1.12    1.45    53.07207    47.34078    29.25804
    82  H   1.0    0.08    1.08    1.44    55.98253    44.56342    34.21263
    83  H   1.0    0.08    1.08    1.44    58.73171    45.10474    33.27317
    84  H   1.0    0.10    1.06    1.44    57.14246    48.06831    27.89308
    85  H   1.0    0.09    1.07    1.44    59.41464    47.16818    29.55545
    86  N   5.0   -0.15    3.54    2.11    47.08768    42.83778    25.13510
    87  C   4.0    0.03    4.53    4.58    48.71162    41.74313    23.23569
    88  C   4.0    0.14    3.46    3.10    47.66052    42.01827    20.59205
    89  O   6.0   -0.31    1.28    1.80    48.42355    40.75508    18.83641
    90  C   4.0   -0.03    4.47    4.49    49.25659    38.99962    23.71425
    91  C   4.0   -0.01    3.69    3.23    50.55840    38.49682    26.12542
    92  C   4.0   -0.03    3.62    3.18    53.03204    39.15898    26.49373
    93  C   4.0   -0.04    3.62    3.18    49.31343    37.57431    28.19443
    94  C   4.0   -0.03    3.57    3.15    54.13103    38.96886    28.71608
    95  C   4.0   -0.05    3.58    3.15    50.38717    37.37512    30.42306
    96  C   4.0    0.07    3.60    3.17    52.83101    38.09380    30.76228
    97  O   6.0   -0.26    2.16    1.85    53.92233    38.12636    33.06185
    98  H   1.0    0.09    1.11    1.45    45.40181    42.36365    24.96987
    99  H   1.0    0.06    1.12    1.45    50.38523    42.72083    23.37734
   100  H   1.0    0.05    1.08    1.44    47.58942    38.02950    23.66607
   101  H   1.0    0.06    1.08    1.44    50.28957    38.27471    22.25188
   102  H   1.0    0.07    1.08    1.44    54.00910    39.81575    24.99423
   103  H   1.0    0.05    1.08    1.44    47.49953    37.03408    27.97529
   104  H   1.0    0.07    1.08    1.44    55.95226    39.46843    28.96480
   105  H   1.0    0.05    1.08    1.44    49.43471    36.69790    31.92895
   106  H   1.0    0.12    1.09    1.44    52.80520    37.49318    34.18156
   107  N   5.0   -0.15    3.56    2.12    45.83162    43.69079    20.32321
   108  C   4.0    0.03    4.55    4.61    44.48285    44.19076    18.05168
   109  C   4.0    0.16    3.53    3.13    46.10494    45.20842    15.94168
   110  O   6.0   -0.29    1.38    1.80    46.21800    47.47205    15.61313
   111  C   4.0   -0.03    4.52    4.56    42.35183    45.97651    18.53201
   112  C   4.0    0.17    3.36    3.07    41.15823    47.04243    16.18167
   113  O   6.0   -0.28    1.26    1.80    41.28516    49.29583    15.74426
   114  N   5.0   -0.21    3.31    1.99    40.11348    45.48442    14.78806
   115  H   1.0    0.10    1.14    1.45    45.30117    44.70173    21.66212
   116  H   1.0    0.04    1.12    1.45    43.85093    42.46592    17.43823
   117  H   1.0    0.04    1.08    1.44    40.99229    45.11461    19.59733
   118  H   1.0    0.06    1.08    1.44    42.99082    47.42735    19.64285
   119  H   1.0    0.10    1.07    1.44    39.32515    45.92012    13.24092
   120  H   1.0    0.09    1.07    1.44    40.00378    43.72837    15.12372
   121  N   5.0   -0.15    3.48    2.07    47.30157    43.54894    14.52290
   122  C   4.0    0.03    4.40    4.38    48.91025    44.11071    12.36825
   123  C   4.0    0.16    3.46    3.10    50.24615    46.67377    12.34536
   124  O   6.0   -0.30    1.24    1.80    52.43699    46.89476    13.04549
   125  C   4.0   -0.08    4.25    4.09    47.51135    43.71358     9.96377
   126  H   1.0    0.10    1.12    1.45    47.17483    41.82005    14.83763
   127  H   1.0    0.05    1.12    1.45    50.39079    42.86661    12.56965
   128  H   1.0    0.04    1.04    1.43    48.60570    44.11420     8.43578
   129  H   1.0    0.04    1.04    1.43    46.90633    41.89983     9.78687
   130  H   1.0    0.05    1.04    1.43    45.96846    44.85423     9.89177
   131  N   5.0   -0.15    3.60    2.16    48.94076    48.60911    11.50469
   132  C   4.0    0.03    4.58    4.64    49.83058    51.17194    11.31569
   133  C   4.0    0.16    3.52    3.12    50.71900    52.35860    13.77222
   134  O   6.0   -0.30    1.24    1.80    52.70723    53.51705    13.90964
   135  C   4.0   -0.02    4.40    4.38    47.85597    52.92868    10.12789
   136  C   4.0   -0.08    4.30    4.21    46.31249    51.52123     8.26246
   137  C   4.0   -0.07    4.34    4.27    46.25158    54.16134    12.09462
   138  H   1.0    0.09    1.16    1.45    47.27353    48.43571    10.97841
   139  H   1.0    0.06    1.11    1.45    51.41040    50.98821    10.19958
   140  H   1.0    0.05    1.11    1.45    48.78529    54.36313     9.19994
   141  H   1.0    0.04    1.04    1.43    44.98960    52.64992     7.45054
   142  H   1.0    0.04    1.04    1.43    47.39605    50.78446     6.85962
   143  H   1.0    0.04    1.06    1.44    45.39283    50.07355     9.11915
   144  H   1.0    0.05    1.04    1.43    44.95303    55.34217    11.31478
   145  H   1.0    0.06    1.05    1.44    45.30212    52.83990    13.11291
   146  H   1.0    0.05    1.06    1.44    47.30332    55.20229    13.32252
   147  N   5.0   -0.16    3.61    2.17    49.20429    52.11735    15.74270
   148  C   4.0    0.03    4.47    4.49    49.68093    53.16843    18.18633
   149  C   4.0    0.15    3.50    3.12    51.48134    51.65593    19.83416
   150  O   6.0   -0.32    1.37    1.80    52.43405    52.58981    21.71194
   151  C   4.0   -0.05    4.51    4.54    47.23949    53.72276    19.55001
   152  C   4.0   -0.02    4.32    4.24    47.05111    54.67245    22.22427
   153  C   4.0   -0.08    4.27    4.14    44.48873    55.65351    22.71498
   154  C   4.0   -0.07    4.31    4.21    47.65590    52.65743    24.05564
   155  H   1.0    0.11    1.14    1.45    47.69118    51.22110    15.65406
   156  H   1.0    0.05    1.12    1.45    50.64044    54.82545    17.86184
   157  H   1.0    0.05    1.09    1.44    46.23855    54.95196    18.44541
   158  H   1.0    0.06    1.09    1.44    46.22168    52.08386    19.50216
   159  H   1.0    0.04    1.11    1.45    48.34339    56.10486    22.43780
   160  H   1.0    0.04    1.04    1.43    44.33017    56.33233    24.50148
   161  H   1.0    0.05    1.04    1.43    44.02685    57.06836    21.50324
   162  H   1.0    0.05    1.05    1.44    43.19251    54.25414    22.50216
   163  H   1.0    0.04    1.04    1.43    47.58030    53.30313    25.86032
   164  H   1.0    0.06    1.05    1.44    46.40663    51.21201    23.89122
   165  H   1.0    0.07    1.09    1.44    49.41242    51.95030    23.75965
   166  N   5.0   -0.15    3.53    2.10    52.02137    49.31656    19.19693
   167  C   4.0    0.04    4.60    4.66    53.69314    47.81344    20.71957
   168  C   4.0    0.16    3.71    3.25    56.27481    48.92850    21.16996
   169  O   6.0   -0.30    1.26    1.80    56.81823    49.84266    23.23623
   170  C   4.0   -0.03    4.45    4.47    54.13863    45.19103    19.84170
   171  C   4.0    0.25    3.29    3.05    56.64681    44.11543    20.77840
   172  O   6.0   -0.28    1.20    1.80    56.95889    43.98338    23.10100
   173  O   6.0   -0.29    1.19    1.80    58.27501    43.50719    19.19469
   174  H   1.0    0.10    1.11    1.45    51.39160    48.50604    17.76879
   175  H   1.0    0.07    1.13    1.45    52.71674    47.83441    22.39782
   176  H   1.0    0.05    1.07    1.44    52.70252    44.02959    20.39453
   177  H   1.0    0.06    1.08    1.44    54.10192    45.14197    17.91383
   178  N   5.0   -0.10    3.92    2.65    57.89955    48.83028    19.22924
   179  C   4.0    0.04    4.86    4.86    60.47751    49.75409    19.20599
   180  C   4.0    0.14    3.59    3.16    60.63730    52.53830    19.68692
   181  O   6.0   -0.32    1.26    1.80    62.65347    53.59332    20.03469
   182  C   4.0   -0.04    4.65    4.72    61.31275    49.20044    16.63063
   183  C   4.0   -0.04    4.61    4.68    59.14023    50.08564    15.27782
   184  C   4.0    0.00    4.68    4.75    57.11523    48.75092    16.61020
   185  H   1.0    0.05    1.13    1.45    61.57184    48.94047    20.57909
   186  H   1.0    0.05    1.07    1.44    62.96194    50.07482    16.14333
   187  H   1.0    0.05    1.08    1.44    61.63829    47.31692    16.32316
   188  H   1.0    0.05    1.10    1.44    58.96669    52.01418    15.39864
   189  H   1.0    0.04    1.07    1.44    59.21730    49.72684    13.38281
   190  H   1.0    0.06    1.08    1.44    55.36879    49.55153    16.35435
   191  H   1.0    0.06    1.07    1.44    56.89886    46.93229    15.96935
   192  N   5.0   -0.15    3.69    2.25    58.49519    53.78397    19.62996
   193  C   4.0    0.03    4.64    4.70    58.30012    56.40040    20.09272
   194  C   4.0    0.15    3.49    3.11    58.23506    56.93508    22.89576
   195  O   6.0   -0.32    1.28    1.80    59.02393    58.92779    23.73397
   196  C   4.0   -0.05    4.58    4.64    56.08128    57.54884    18.81769
   197  C   4.0   -0.03    4.39    4.36    56.78081    59.91355    17.50106
   198  C   4.0   -0.07    4.26    4.12    54.56108    61.04539    16.26675
   199  C   4.0   -0.07    4.36    4.31    57.99189    61.63145    19.32146
   200  H   1.0    0.10    1.15    1.45    56.95267    53.00939    19.29646
   201  H   1.0    0.05    1.14    1.45    59.88436    57.24619    19.34943
   202  H   1.0    0.06    1.08    1.44    55.28638    56.28349    17.58992
   203  H   1.0    0.05    1.09    1.44    54.68895    57.91244    20.10832
   204  H   1.0    0.04    1.12    1.45    58.08226    59.52104    16.11360
   205  H   1.0    0.06    1.04    1.43    55.01404    62.65875    15.32969
   206  H   1.0    0.06    1.04    1.43    53.76284    59.84341    14.99416
   207  H   1.0    0.05    1.05    1.44    53.21813    61.48491    17.56745
   208  H   1.0    0.04    1.05    1.44    58.55206    63.25561    18.48066
   209  H   1.0    0.05    1.05    1.44    56.76190    62.07810    20.72413
   210  H   1.0    0.06    1.07    1.44    59.53367    60.82706    20.13226
   211  N   5.0   -0.15    3.59    2.15    57.27874    55.16978    24.37090
   212  C   4.0    0.03    4.61    4.67    57.13408    55.32351    27.08195
   213  C   4.0    0.15    3.58    3.15    59.48304    54.35240    28.38542
   214  O   6.0   -0.33    1.36    1.80    59.86530    54.67680    30.61109
   215  C   4.0   -0.02    4.47    4.50    55.09386    53.70897    28.31706
   216  C   4.0   -0.08    4.35    4.30    55.09028    54.07650    31.09118
   217  C   4.0   -0.08    4.27    4.15    52.57429    54.18276    27.24615
   218  H   1.0    0.12    1.14    1.45    56.63086    53.66121    23.73724
   219  H   1.0    0.05    1.11    1.45    56.80747    57.21937    27.35099
   220  H   1.0    0.06    1.12    1.45    55.54192    51.85887    27.92546
   221  H   1.0    0.04    1.04    1.43    53.78028    52.97045    31.94375
   222  H   1.0    0.07    1.10    1.44    56.79890    53.66073    31.86153
   223  H   1.0    0.04    1.05    1.44    54.69318    55.90579    31.51313
   224  H   1.0    0.04    1.04    1.43    51.24818    53.04844    28.04764
   225  H   1.0    0.04    1.05    1.44    52.05305    56.00129    27.54995
   226  H   1.0    0.07    1.07    1.44    52.54179    53.86947    25.35256
   227  N   5.0   -0.15    3.66    2.22    61.04732    52.99232    26.97642
   228  C   4.0    0.03    4.58    4.64    63.34319    51.95150    27.88772
   229  C   4.0    0.16    3.55    3.14    65.41604    53.82581    27.20042
   230  O   6.0   -0.29    1.28    1.80    67.46853    53.80551    28.22241
   231  C   4.0    0.05    4.34    4.28    64.01257    49.34015    26.84706
   232  O   6.0   -0.26    2.15    1.85    66.32664    48.42190    27.80541
   233  C   4.0   -0.06    4.28    4.17    64.02810    49.40832    24.06588
   234  H   1.0    0.10    1.13    1.45    60.76393    52.68025    25.26884
   235  H   1.0    0.06    1.11    1.45    63.18994    51.68984    29.80974
   236  H   1.0    0.05    1.09    1.44    62.63161    48.09130    27.41348
   237  H   1.0    0.15    1.10    1.44    67.36158    49.75965    28.04067
   238  H   1.0    0.05    1.04    1.43    64.43562    47.68432    23.32247
   239  H   1.0    0.05    1.07    1.44    62.33108    49.96014    23.36512
   240  H   1.0    0.06    1.05    1.44    65.35334    50.64685    23.43999
   241  N   5.0   -0.14    3.66    2.22    64.89658    55.46500    25.39025
   242  C   4.0    0.04    4.49    4.52    66.65162    57.37449    24.61191
   243  C   4.0    0.17    3.57    3.15    66.85968    59.05399    26.89624
   244  O   6.0   -0.27    1.27    1.80    68.84468    59.52279    27.87749
   245  C   4.0   -0.08    4.24    4.09    65.82291    58.82080    22.36589
   246  H   1.0    0.10    1.13    1.45    63.36400    55.52277    24.53015
   247  H   1.0    0.06    1.10    1.44    68.36539    56.59138    24.12978
   248  H   1.0    0.04    1.04    1.43    67.12966    60.13037    21.84370
   249  H   1.0    0.06    1.04    1.43    65.52386    57.66535    20.86072
   250  H   1.0    0.05    1.05    1.44    64.18312    59.74448    22.73508
   251  N   5.0   -0.15    3.57    2.13    64.64438    59.90308    27.72834
   252  C   4.0    0.03    4.54    4.59    64.31271    61.50270    29.88632
   253  C   4.0    0.17    3.57    3.15    65.86356    60.58047    32.11386
   254  O   6.0   -0.28    1.37    1.80    67.98745    61.35174    32.46208
   255  C   4.0   -0.06    4.56    4.62    61.61100    61.80801    30.62040
   256  C   4.0   -0.03    4.38    4.34    61.06434    63.13226    33.07615
   257  C   4.0   -0.08    4.31    4.22    62.68995    65.35627    33.39639
   258  C   4.0   -0.09    4.27    4.13    58.38125    63.87509    33.20369
   259  H   1.0    0.09    1.12    1.45    63.12387    59.49286    26.94328
   260  H   1.0    0.05    1.11    1.45    65.02392    63.24155    29.39434
   261  H   1.0    0.05    1.08    1.44    60.67498    62.75578    29.22087
   262  H   1.0    0.05    1.08    1.44    60.80000    60.05531    30.64837
   263  H   1.0    0.04    1.12    1.45    61.46923    61.89934    34.52152
   264  H   1.0    0.04    1.04    1.43    62.35873    66.22767    35.07268
   265  H   1.0    0.05    1.06    1.44    64.54916    64.88170    33.33813
   266  H   1.0    0.04    1.05    1.44    62.35679    66.62332    31.99687
   267  H   1.0    0.04    1.04    1.43    57.97138    64.75633    34.85865
   268  H   1.0    0.04    1.05    1.44    57.95936    65.08631    31.77482
   269  H   1.0    0.04    1.04    1.43    57.21801    62.35637    33.04819
   270  N   5.0   -0.15    3.56    2.12    64.78671    58.92110    33.64704
   271  C   4.0    0.03    4.51    4.55    66.01045    57.78386    35.80377
   272  C   4.0    0.17    3.59    3.16    68.87549    57.86733    35.59971
   273  O   6.0   -0.30    1.32    1.80    70.15370    59.24439    36.94873
   274  C   4.0   -0.05    4.53    4.58    65.13135    55.12245    36.22115
   275  C   4.0   -0.02    4.33    4.26    62.35251    54.73936    36.64637
   276  C   4.0   -0.08    4.23    4.07    61.68258    52.02394    36.83448
   277  C   4.0   -0.09    4.27    4.13    61.57980    56.17628    38.93032
   278  H   1.0    0.08    1.12    1.45    63.13582    58.35860    33.41339
   279  H   1.0    0.05    1.11    1.45    65.51326    58.87763    37.33165
   280  H   1.0    0.05    1.08    1.44    65.70806    54.05986    34.71444
   281  H   1.0    0.04    1.08    1.44    66.07749    54.37037    37.73192
   282  H   1.0    0.05    1.12    1.45    61.38685    55.42947    35.10920
   283  H   1.0    0.04    1.04    1.43    59.79411    51.78595    37.08440
   284  H   1.0    0.05    1.04    1.43    62.18790    51.05867    35.25251
   285  H   1.0    0.04    1.04    1.44    62.58062    51.21936    38.32555
   286  H   1.0    0.04    1.04    1.43    59.69585    56.01663    39.26534
   287  H   1.0    0.04    1.04    1.43    62.50914    55.52159    40.47824
   288  H   1.0    0.04    1.04    1.43    61.98218    58.04653    38.75798
   289  N   5.0   -0.14    3.45    2.04    69.91154    56.37199    33.89884
   290  C   4.0    0.03    4.35    4.30    72.55066    56.25725    33.49044
   291  C   4.0    0.17    3.34    3.06    74.00171    58.60593    32.70965
   292  O   6.0   -0.29    1.25    1.80    75.98848    58.43519    31.54057
   293  H   1.0    0.10    1.11    1.45    68.96282    55.32590    32.84539
   294  H   1.0    0.05    1.08    1.44    73.36728    55.58882    35.11507
   295  H   1.0    0.06    1.07    1.44    72.92851    54.89037    32.17282
   296  N   5.0   -0.13    3.60    2.15    73.05878    60.82084    33.31155
   297  C   4.0    0.04    4.36    4.32    74.22062    63.18671    32.72106
   298  C   4.0    0.08    3.26    3.05    74.79135    64.61150    35.11684
   299  O   6.0   -0.29    1.13    1.80    76.11597    66.48968    35.11675
   300  C   4.0   -0.06    4.24    4.09    72.65595    64.75138    31.01533
   301  H   1.0    0.13    1.19    1.46    71.53237    61.00345    34.17452
   302  H   1.0    0.07    1.12    1.45    75.88247    62.81172    31.78449
   303  H   1.0    0.05    1.04    1.43    73.53627    66.39341    30.56007
   304  H   1.0    0.06    1.04    1.43    72.26509    63.81659    29.38509
   305  H   1.0    0.06    1.05    1.44    70.99047    65.18018    31.86138
   306  N   5.0   -0.28    3.25    1.97    64.89841    72.06856    24.09550
   307  C   4.0    0.03    4.17    3.94    63.33565    69.63046    23.95330
   308  C   4.0    0.04    3.21    3.04    61.19196    69.73542    25.45475
   309  O   6.0   -0.30    1.04    1.80    59.01670    68.41946    24.37199
   310  C   4.0   -0.09    4.19    3.99    65.40360    67.73550    25.21515
   311  H   1.0    0.12    1.10    1.44    66.04841    72.21616    24.79510
   312  H   1.0    0.05    1.17    1.46    63.46815    69.19671    22.43396
   313  H   1.0    0.05    1.02    1.43    64.25798    66.01347    25.02089
   314  H   1.0    0.04    1.05    1.44    66.77791    67.48992    24.14111
   315  H   1.0    0.05    1.05    1.44    65.79100    68.04966    26.80668
   316  N   5.0   -0.21    3.23    1.96    56.45567    71.70432    20.08451
   317  C   4.0    0.04    4.42    4.42    55.78377    69.66709    18.37494
   318  C   4.0    0.15    3.48    3.10    53.59981    67.95897    19.12727
   319  O   6.0   -0.30    1.23    1.80    51.90061    67.41720    17.68404
   320  C   4.0   -0.03    4.51    4.55    57.93241    67.87605    17.94990
   321  C   4.0    0.16    3.27    3.05    60.09420    68.84098    16.34423
   322  O   6.0   -0.29    1.27    1.80    59.95384    70.95331    15.45298
   323  N   5.0   -0.21    3.27    1.97    61.91398    67.39773    16.03151
   324  H   1.0    0.11    1.07    1.44    58.09056    71.53244    20.71057
   325  H   1.0    0.06    1.11    1.45    55.24751    70.66889    16.80134
   326  H   1.0    0.05    1.08    1.44    58.61422    67.33455    19.67888
   327  H   1.0    0.04    1.09    1.44    57.25116    66.23833    17.17275
   328  H   1.0    0.10    1.07    1.44    63.35160    67.82714    15.05436
   329  H   1.0    0.08    1.07    1.44    62.03988    65.74743    16.71491
   330  N   5.0   -0.16    3.53    2.10    53.79511    66.95647    21.40568
   331  C   4.0    0.03    4.38    4.35    51.97867    65.28952    22.48865
   332  C   4.0    0.08    3.29    3.05    49.59588    66.75151    23.13498
   333  O   6.0   -0.32    1.15    1.80    47.64285    65.67288    23.71052
   334  C   4.0   -0.05    4.46    4.49    52.98451    63.71587    24.68508
   335  C   4.0   -0.02    4.35    4.29    51.46570    63.52149    27.08194
   336  C   4.0   -0.09    4.24    4.07    52.14914    61.26129    28.59802
   337  C   4.0   -0.08    4.27    4.14    51.74738    65.87455    28.55551
   338  H   1.0    0.10    1.12    1.45    55.14204    67.31203    22.48053
   339  H   1.0    0.05    1.11    1.45    51.49059    63.97516    21.14338
   340  H   1.0    0.04    1.08    1.44    53.34822    61.92390    24.05526
   341  H   1.0    0.05    1.09    1.44    54.71850    64.41950    25.16360
   342  H   1.0    0.06    1.13    1.45    49.59948    63.31506    26.58845
   343  H   1.0    0.03    1.04    1.43    51.07974    61.13422    30.18829
   344  H   1.0    0.04    1.04    1.43    51.90108    59.64086    27.59936
   345  H   1.0    0.04    1.04    1.43    53.98891    61.34658    29.13173
   346  H   1.0    0.04    1.04    1.43    50.70040    65.82922    30.16342
   347  H   1.0    0.04    1.05    1.44    53.58263    66.12950    29.05639
   348  H   1.0    0.05    1.05    1.44    51.19915    67.41094    27.54139
   349  N   5.0   -0.22    3.29    1.98    45.22953    67.79125    17.31218
   350  C   4.0    0.04    4.47    4.50    44.49790    65.27324    16.66560
   351  C   4.0    0.15    3.50    3.11    41.97520    64.70421    17.85659
   352  O   6.0   -0.30    1.26    1.80    40.18414    63.91134    16.66261
   353  C   4.0   -0.04    4.46    4.48    46.38526    63.32453    17.48209
   354  C   4.0   -0.04    4.34    4.27    46.62755    61.19104    15.76122
   355  C   4.0    0.25    3.21    3.04    47.46842    62.04928    13.19662
   356  O   6.0   -0.29    1.19    1.80    49.76321    62.44764    12.89816
   357  O   6.0   -0.29    1.18    1.80    45.81663    62.39680    11.55201
   358  H   1.0    0.10    1.07    1.44    45.96907    67.86693    18.90643
   359  H   1.0    0.07    1.12    1.45    44.36648    65.16541    14.72886
   360  H   1.0    0.06    1.09    1.44    48.11704    64.15604    17.69854
   361  H   1.0    0.05    1.09    1.44    45.91527    62.69669    19.24853
   362  H   1.0    0.04    1.08    1.44    47.86954    59.88210    16.44806
   363  H   1.0    0.05    1.08    1.44    44.94343    60.26432    15.62563
   364  N   5.0   -0.16    3.58    2.14    41.84105    65.12156    20.31474
   365  C   4.0    0.04    4.42    4.41    39.62264    64.77432    21.79636
   366  C   4.0    0.09    3.25    3.04    37.59165    66.60929    20.90027
   367  O   6.0   -0.29    1.12    1.80    35.36822    66.02804    20.84805
   368  C   4.0   -0.05    4.50    4.53    40.21242    65.02987    24.56808
   369  C   4.0   -0.02    4.33    4.25    42.10482    63.16980    25.60884
   370  C   4.0   -0.08    4.22    4.03    43.11047    63.88934    28.14756
   371  C   4.0   -0.09    4.28    4.16    40.91428    60.64524    25.62202
   372  H   1.0    0.09    1.13    1.45    43.21324    65.70362    21.24752
   373  H   1.0    0.06    1.11    1.45    38.94354    62.97267    21.52561
   374  H   1.0    0.04    1.08    1.44    40.82216    66.83204    24.89564
   375  H   1.0    0.04    1.08    1.44    38.57947    64.87450    25.59304
   376  H   1.0    0.05    1.12    1.45    43.65587    63.15472    24.43990
   377  H   1.0    0.04    1.04    1.43    44.41035    62.61994    28.77378
   378  H   1.0    0.05    1.04    1.43    43.95810    65.61323    28.11181
   379  H   1.0    0.04    1.04    1.43    41.69275    63.95800    29.43597
   380  H   1.0    0.04    1.04    1.43    42.11982    59.29473    26.25756
   381  H   1.0    0.04    1.05    1.44    39.37463    60.64517    26.76761
   382  H   1.0    0.05    1.04    1.43    40.33280    60.12736    23.86548
   383  N   5.0   -0.22    3.24    1.97    35.54738    59.84254    15.87804
   384  C   4.0    0.03    4.47    4.49    36.37216    57.40673    15.00246
   385  C   4.0    0.17    3.48    3.11    37.63038    55.73398    16.97515
   386  O   6.0   -0.30    1.27    1.80    39.59048    56.31278    17.96929
   387  C   4.0    0.05    4.35    4.30    38.14034    57.55073    12.71891
   388  O   6.0   -0.26    2.18    1.85    38.98328    55.09437    12.11286
   389  C   4.0   -0.06    4.25    4.11    40.26596    59.25609    13.21765
   390  H   1.0    0.12    1.06    1.44    36.76363    60.70702    16.80910
   391  H   1.0    0.04    1.12    1.45    34.69896    56.56564    14.50424
   392  H   1.0    0.04    1.09    1.44    37.13414    58.28429    11.22528
   393  H   1.0    0.12    1.06    1.44    40.02275    55.19513    10.76335
   394  H   1.0    0.05    1.04    1.43    41.43790    59.38193    11.70091
   395  H   1.0    0.07    1.05    1.44    39.66960    61.02924    13.64478
   396  H   1.0    0.07    1.05    1.44    41.29719    58.61085    14.70297
   397  N   5.0   -0.15    3.43    2.04    36.43912    53.58822    17.49946
   398  C   4.0    0.02    4.27    4.15    37.26433    51.85346    19.32037
   399  C   4.0    0.07    3.16    3.03    35.24674    51.30034    21.23345
   400  O   6.0   -0.31    1.18    1.80    35.73291    50.40241    23.27420
   401  H   1.0    0.08    1.11    1.45    34.94939    53.10430    16.69614
   402  H   1.0    0.06    1.07    1.44    37.87653    50.20834    18.49743
   403  H   1.0    0.07    1.08    1.44    38.84667    52.54387    20.20660
   404  N   5.0   -0.22    3.25    1.97    27.22625    48.50377    22.65395
   405  C   4.0    0.03    4.32    4.24    25.79576    46.25010    22.19994
   406  C   4.0    0.07    3.25    3.04    23.39096    46.01339    23.75919
   407  O   6.0   -0.30    1.17    1.80    23.50618    45.12324    25.83950
   408  C   4.0   -0.03    4.52    4.57    27.35189    43.96650    22.79313
   409  C   4.0   -0.02    3.66    3.21    29.35360    43.20512    21.00374
   410  C   4.0   -0.05    3.60    3.17    31.86412    43.39938    21.59950
   411  C   4.0   -0.05    3.60    3.17    28.80972    42.22990    18.67014
   412  C   4.0   -0.04    3.56    3.14    33.66568    42.69488    20.03090
   413  C   4.0   -0.05    3.55    3.14    30.59527    41.50703    17.07372
   414  C   4.0    0.07    3.56    3.15    33.09755    41.71502    17.70630
   415  O   6.0   -0.26    2.14    1.85    35.01735    40.98199    16.15036
   416  H   1.0    0.10    1.07    1.44    26.58594    49.50493    23.94544
   417  H   1.0    0.04    1.11    1.44    25.35517    46.34759    20.31633
   418  H   1.0    0.05    1.09    1.44    28.15053    44.24789    24.52909
   419  H   1.0    0.05    1.09    1.44    26.15785    42.47021    23.04504
   420  H   1.0    0.05    1.08    1.44    32.31623    44.11915    23.30312
   421  H   1.0    0.05    1.08    1.44    26.97435    42.07046    18.17978
   422  H   1.0    0.06    1.08    1.44    35.50128    42.86132    20.51023
   423  H   1.0    0.05    1.08    1.44    30.14910    40.79256    15.36241
   424  H   1.0    0.12    1.08    1.44    34.33456    40.38281    14.70873
   425  H   1.0    0.09    1.08    1.44    45.16081    51.30470    42.98553
   426  H   1.0    0.05    1.04    1.44    42.29834    45.38655    44.97524
   427  H   1.0    0.09    1.08    1.44    33.06354    52.54798    29.67663
   428  H   1.0    0.06    1.05    1.44    74.07520    64.01875    36.76209
   429  H   1.0    0.10    1.08    1.44    65.40397    72.51079    22.53299
   430  H   1.0    0.05    1.04    1.43    61.23915    70.65254    27.10634
   431  H   1.0    0.10    1.08    1.44    56.35780    73.19034    19.26308
   432  H   1.0    0.06    1.05    1.44    49.60618    68.64077    23.09407
   433  H   1.0    0.11    1.08    1.44    46.35515    68.36541    16.17381
   434  H   1.0    0.06    1.05    1.44    38.07175    68.34691    20.33347
   435  H   1.0    0.10    1.08    1.44    35.14252    60.81786    14.54485
   436  H   1.0    0.05    1.05    1.44    33.43812    51.67578    20.83471
   437  H   1.0    0.10    1.10    1.44    28.81893    48.08860    23.08243
   438  H   1.0    0.05    1.05    1.44    21.74114    46.59685    23.04596

  Z AO/shell   Hii/eV     exponent
  1     Wed Apr 25 08:07:45 CEST 2018   EN: 2.200 GM2: 0.406  GM3: 0.0800  RAES: 1.40
     1s    -10.707211    1.230000
  6     Wed Apr 25 08:07:45 CEST 2018   EN: 2.550 GM2: 0.538  GM3: 0.1500  RAES: 3.00
     2s    -13.970922    2.096432
     2p    -10.063292    1.800000
  7     Wed Apr 25 08:07:45 CEST 2018   EN: 3.040 GM2: 0.461  GM3:-0.0640  RAES: 1.90
     2s    -16.686243    2.339881
     2p    -12.523956    2.014332
  8     Wed Apr 25 08:07:45 CEST 2018   EN: 3.440 GM2: 0.452  GM3:-0.0517  RAES: 1.80
     2s    -20.229985    2.439742
     2p    -15.503117    2.137023
 no old-style atom pair restraining (fixing) potential

molecular fragmentation (1/2 indicates fragments):
111111111111111111111111222222222222222222222222222222222222222222222222
222222222222222222222222222222222222222222222222222222222222222222222222
222222222222222222222222222222222222222222222222222222222222222222222222
222222222222222222222222222222222222222222222222222222222222222222222222
222222222222222222222222222222222222222222222222222222222222222222222222
222222222222222222222222222222222222222222222222222222222222222211222222
222222
# atoms in fragment 1/2:    26   412
 fragment masses (1/2) :      188.23     2803.31
CMA distance (Bohr)    :  17.113
constraining FC (au)   :  0.0500
           ------------------------------------------------- 
          |        Self-Consistent Charge Iterations        |
           ------------------------------------------------- 

 Ncao       : 1074
 Nao        : 1074
 Nshell     : 650
 Nel        : 1184
 T(el)      :   500.0
 intcut     :    35.0
 scfconv/Eh :  0.100E-06
   qconv/e  :  0.100E-04
 intneglect :  0.100E-08
 broydamp   :      0.400
 iter      E             dE          RMSdq      gap      omega  full diag
   1   -677.8343585 -0.677834E+03  0.455E+00    1.60       0.0  T
   2   -679.3322175 -0.149786E+01  0.220E+00    0.07       1.0  T
   3   -679.3875617 -0.553442E-01  0.139E+00    2.23       1.0  T
   4   -679.6040345 -0.216473E+00  0.530E-01    0.93       1.0  T
   5   -679.6666825 -0.626480E-01  0.232E-01    0.80       1.0  T
   6   -679.6747462 -0.806371E-02  0.100E-01    0.41       1.0  T
   7   -679.6753445 -0.598223E-03  0.513E-02    0.49       1.0  T
   8   -679.6756296 -0.285128E-03  0.208E-02    0.48       1.0  T
   9   -679.6756883 -0.586760E-04  0.953E-03    0.50       1.0  T
  10   -679.6756960 -0.776107E-05  0.465E-03    0.51       1.0  T
  11   -679.6756976 -0.158247E-05  0.212E-03    0.51       2.3  T
  12   -679.6756981 -0.516291E-06  0.799E-04    0.51       6.0  T
  13   -679.6756982 -0.635882E-07  0.394E-04    0.51      12.1  T
  14   -679.6756982 -0.140025E-07  0.162E-04    0.51      29.5  T
  15   -679.6756982 -0.290959E-08  0.860E-05    0.51      55.6  T
  16   -679.6756982 -0.700311E-09  0.349E-05    0.51     136.9  T
speedup  1.00
cpu  time for SCC    7.72 s
wall time for SCC    7.72 s

   *** convergence criteria satisfied after 16 iterations ***

          eigenvalues
 #    :         580        581        582        583        584        585        586        587
 occ. :        2.000      2.000      2.000      2.000      2.000      2.000      2.000      2.000
 eps  :       -10.343    -10.231    -10.214    -10.181    -10.180    -10.129    -10.120    -10.001
 #    :         588        589        590        591        592        593        594        595
 occ. :        2.000      2.000      2.000      1.997      1.996      0.007      0.000      0.000
 eps  :        -9.994     -9.879     -9.785     -9.582     -9.569     -9.058     -7.906     -7.865
 #    :         596        597        598        599        600        601        602        603
 occ. :        0.000      0.000      0.000      0.000      0.000      0.000      0.000      0.000
 eps  :        -7.777     -7.759     -7.584     -7.569     -6.793     -6.760     -6.624     -6.612


   #   Z            q   n(s)   n(p)   n(d)      C6AA      α(0)
   1   7 N     -0.401  1.297  4.104  0.000    30.410     8.190
   2   6 C      0.038  1.029  2.933  0.000    19.940     6.359
   3   6 C      0.199  1.088  2.713  0.000    23.761     7.983
   4   8 O     -0.367  1.753  4.614  0.000    21.032     6.149
   5   6 C     -0.080  1.015  3.066  0.000    22.010     6.675
   6   6 C     -0.047  1.054  2.993  0.000    29.022     8.827
   7   6 C     -0.014  1.039  2.975  0.000    28.120     8.679
   8   6 C     -0.036  1.069  2.966  0.000    28.137     8.625
   9   7 N     -0.090  1.193  3.897  0.000    22.993     7.122
  10   6 C      0.024  1.054  2.922  0.000    27.059     8.493
  11   6 C     -0.050  1.052  2.998  0.000    29.238     8.869
  12   6 C     -0.064  1.050  3.015  0.000    29.605     8.924
  13   6 C     -0.045  1.048  2.997  0.000    29.113     8.850
  14   6 C     -0.041  1.049  2.992  0.000    29.025     8.837
  15   1 H      0.178  0.822  0.000  0.000     1.224     1.733
  16   1 H      0.060  0.940  0.000  0.000     2.199     2.319
  17   1 H      0.061  0.939  0.000  0.000     2.185     2.312
  18   1 H      0.054  0.946  0.000  0.000     2.276     2.359
  19   1 H      0.058  0.942  0.000  0.000     2.221     2.330
  20   1 H      0.198  0.802  0.000  0.000     1.118     1.656
  21   1 H      0.030  0.970  0.000  0.000     2.588     2.516
  22   1 H      0.046  0.954  0.000  0.000     2.371     2.408
  23   1 H      0.025  0.975  0.000  0.000     2.664     2.552
  24   1 H      0.028  0.972  0.000  0.000     2.614     2.528
  25   7 N     -0.412  1.296  4.116  0.000    30.723     8.232
  26   6 C      0.018  1.041  2.941  0.000    20.270     6.409
  27   6 C      0.273  1.046  2.682  0.000    22.392     7.749
  28   8 O     -0.487  1.741  4.746  0.000    23.506     6.500
  29   6 C     -0.013  1.024  2.989  0.000    20.759     6.479
  30   6 C     -0.136  0.996  3.140  0.000    23.124     6.849
  31   6 C     -0.125  0.992  3.133  0.000    22.898     6.814
  32   1 H      0.179  0.821  0.000  0.000     1.219     1.729
  33   1 H      0.065  0.935  0.000  0.000     2.144     2.290
  34   1 H      0.036  0.964  0.000  0.000     2.499     2.472
  35   1 H      0.056  0.944  0.000  0.000     2.245     2.343
  36   1 H      0.026  0.974  0.000  0.000     2.639     2.540
  37   1 H      0.044  0.956  0.000  0.000     2.391     2.418
  38   1 H      0.048  0.952  0.000  0.000     2.345     2.395
  39   1 H      0.046  0.954  0.000  0.000     2.374     2.409
  40   1 H      0.050  0.950  0.000  0.000     2.318     2.381
  41   7 N     -0.176  1.220  3.956  0.000    24.806     7.397
  42   6 C      0.023  1.036  2.942  0.000    20.187     6.396
  43   6 C      0.290  1.032  2.679  0.000    22.091     7.698
  44   8 O     -0.508  1.741  4.767  0.000    23.956     6.562
  45   6 C     -0.085  1.017  3.068  0.000    22.085     6.685
  46   6 C     -0.018  1.068  2.949  0.000    28.436     8.747
  47   6 C     -0.054  1.056  2.998  0.000    29.343     8.886
  48   6 C     -0.051  1.054  2.997  0.000    29.263     8.873
  49   6 C     -0.065  1.049  3.016  0.000    29.625     8.928
  50   6 C     -0.083  1.051  3.031  0.000    30.065     8.993
  51   6 C      0.139  1.035  2.825  0.000    24.962     8.191
  52   8 O     -0.430  1.697  4.733  0.000    21.430     6.249
  53   1 H      0.214  0.786  0.000  0.000     1.038     1.596
  54   1 H      0.067  0.933  0.000  0.000     2.119     2.276
  55   1 H      0.083  0.917  0.000  0.000     1.944     2.180
  56   1 H      0.065  0.935  0.000  0.000     2.138     2.286
  57   1 H      0.059  0.941  0.000  0.000     2.211     2.325
  58   1 H      0.045  0.955  0.000  0.000     2.386     2.415
  59   1 H      0.071  0.929  0.000  0.000     2.070     2.250
  60   1 H      0.048  0.952  0.000  0.000     2.339     2.391
  61   1 H      0.346  0.654  0.000  0.000     0.596     1.213
  62   7 N     -0.187  1.223  3.964  0.000    25.062     7.435
  63   6 C      0.008  1.041  2.950  0.000    20.441     6.437
  64   6 C      0.271  1.043  2.686  0.000    22.423     7.754
  65   8 O     -0.460  1.735  4.725  0.000    22.910     6.417
  66   6 C     -0.088  1.022  3.066  0.000    22.162     6.699
  67   6 C     -0.094  1.012  3.082  0.000    22.271     6.716
  68   6 C     -0.028  1.018  3.010  0.000    21.124     6.554
  69   7 N     -0.174  1.183  3.991  0.000    24.762     7.391
  70   6 C      0.264  0.971  2.765  0.000    22.539     7.773
  71   7 N     -0.224  1.175  4.049  0.000    25.884     7.556
  72   7 N     -0.231  1.173  4.058  0.000    26.038     7.579
  73   1 H      0.215  0.785  0.000  0.000     1.034     1.593
  74   1 H      0.100  0.900  0.000  0.000     1.787     2.090
  75   1 H      0.081  0.919  0.000  0.000     1.964     2.191
  76   1 H      0.075  0.925  0.000  0.000     2.032     2.229
  77   1 H      0.071  0.929  0.000  0.000     2.074     2.252
  78   1 H      0.090  0.910  0.000  0.000     1.878     2.143
  79   1 H      0.091  0.909  0.000  0.000     1.869     2.138
  80   1 H      0.080  0.920  0.000  0.000     1.981     2.201
  81   1 H      0.205  0.795  0.000  0.000     1.081     1.628
  82   1 H      0.263  0.737  0.000  0.000     0.836     1.432
  83   1 H      0.260  0.740  0.000  0.000     0.846     1.441
  84   1 H      0.209  0.791  0.000  0.000     1.059     1.612
  85   1 H      0.229  0.771  0.000  0.000     0.969     1.542
  86   7 N     -0.191  1.216  3.976  0.000    25.147     7.448
  87   6 C      0.021  1.040  2.939  0.000    20.213     6.400
  88   6 C      0.264  1.037  2.699  0.000    22.555     7.777
  89   8 O     -0.486  1.737  4.749  0.000    23.478     6.496
  90   6 C     -0.078  1.015  3.063  0.000    21.953     6.666
  91   6 C     -0.011  1.064  2.947  0.000    28.278     8.723
  92   6 C     -0.034  1.055  2.979  0.000    28.852     8.811
  93   6 C     -0.048  1.055  2.993  0.000    29.183     8.861
  94   6 C     -0.064  1.048  3.017  0.000    29.598     8.924
  95   6 C     -0.085  1.050  3.036  0.000    30.135     9.004
  96   6 C      0.139  1.034  2.827  0.000    24.968     8.193
  97   8 O     -0.428  1.692  4.736  0.000    21.397     6.245
  98   1 H      0.192  0.808  0.000  0.000     1.145     1.676
  99   1 H      0.083  0.917  0.000  0.000     1.946     2.181
 100   1 H      0.062  0.938  0.000  0.000     2.179     2.308
 101   1 H      0.068  0.932  0.000  0.000     2.112     2.272
 102   1 H      0.025  0.975  0.000  0.000     2.657     2.549
 103   1 H      0.054  0.946  0.000  0.000     2.272     2.357
 104   1 H      0.057  0.943  0.000  0.000     2.233     2.336
 105   1 H      0.065  0.935  0.000  0.000     2.136     2.285
 106   1 H      0.359  0.641  0.000  0.000     0.566     1.182
 107   7 N     -0.185  1.216  3.969  0.000    24.997     7.426
 108   6 C      0.023  1.032  2.944  0.000    20.174     6.393
 109   6 C      0.267  1.032  2.701  0.000    22.485     7.765
 110   8 O     -0.494  1.742  4.753  0.000    23.659     6.521
 111   6 C     -0.114  1.025  3.088  0.000    22.636     6.767
 112   6 C      0.300  1.006  2.694  0.000    21.905     7.663
 113   8 O     -0.514  1.752  4.761  0.000    24.085     6.580
 114   7 N     -0.260  1.215  4.045  0.000    26.756     7.682
 115   1 H      0.213  0.787  0.000  0.000     1.040     1.598
 116   1 H      0.079  0.921  0.000  0.000     1.986     2.204
 117   1 H      0.082  0.918  0.000  0.000     1.954     2.186
 118   1 H      0.080  0.920  0.000  0.000     1.979     2.200
 119   1 H      0.250  0.750  0.000  0.000     0.883     1.472
 120   1 H      0.237  0.763  0.000  0.000     0.937     1.516
 121   7 N     -0.181  1.229  3.952  0.000    24.924     7.415
 122   6 C      0.013  1.042  2.945  0.000    20.357     6.424
 123   6 C      0.276  1.036  2.688  0.000    22.327     7.738
 124   8 O     -0.523  1.757  4.766  0.000    24.297     6.609
 125   6 C     -0.160  1.002  3.159  0.000    23.635     6.927
 126   1 H      0.237  0.763  0.000  0.000     0.935     1.515
 127   1 H      0.087  0.913  0.000  0.000     1.903     2.157
 128   1 H      0.080  0.920  0.000  0.000     1.974     2.197
 129   1 H      0.097  0.903  0.000  0.000     1.808     2.102
 130   1 H      0.072  0.928  0.000  0.000     2.065     2.247
 131   7 N     -0.172  1.219  3.953  0.000    24.721     7.384
 132   6 C      0.010  1.047  2.942  0.000    20.396     6.429
 133   6 C      0.286  1.037  2.678  0.000    22.159     7.709
 134   8 O     -0.516  1.749  4.766  0.000    24.131     6.586
 135   6 C     -0.020  1.036  2.984  0.000    20.887     6.499
 136   6 C     -0.149  0.999  3.149  0.000    23.391     6.890
 137   6 C     -0.129  0.995  3.134  0.000    23.010     6.835
 138   1 H      0.228  0.772  0.000  0.000     0.973     1.545
 139   1 H      0.080  0.920  0.000  0.000     1.977     2.199
 140   1 H      0.053  0.947  0.000  0.000     2.285     2.363
 141   1 H      0.074  0.926  0.000  0.000     2.038     2.232
 142   1 H      0.072  0.928  0.000  0.000     2.061     2.245
 143   1 H      0.065  0.935  0.000  0.000     2.139     2.287
 144   1 H      0.052  0.948  0.000  0.000     2.297     2.370
 145   1 H      0.067  0.933  0.000  0.000     2.119     2.276
 146   1 H      0.023  0.977  0.000  0.000     2.681     2.560
 147   7 N     -0.197  1.226  3.971  0.000    25.266     7.465
 148   6 C      0.031  1.033  2.936  0.000    20.050     6.375
 149   6 C      0.274  1.039  2.686  0.000    22.366     7.745
 150   8 O     -0.482  1.728  4.754  0.000    23.379     6.483
 151   6 C     -0.080  1.021  3.059  0.000    22.003     6.673
 152   6 C     -0.003  1.022  2.981  0.000    20.600     6.455
 153   6 C     -0.130  0.997  3.133  0.000    23.009     6.832
 154   6 C     -0.142  0.998  3.144  0.000    23.247     6.867
 155   1 H      0.228  0.772  0.000  0.000     0.972     1.544
 156   1 H      0.064  0.936  0.000  0.000     2.154     2.295
 157   1 H      0.050  0.950  0.000  0.000     2.316     2.379
 158   1 H      0.056  0.944  0.000  0.000     2.245     2.343
 159   1 H      0.039  0.961  0.000  0.000     2.461     2.453
 160   1 H      0.066  0.934  0.000  0.000     2.125     2.279
 161   1 H      0.038  0.962  0.000  0.000     2.477     2.461
 162   1 H      0.047  0.953  0.000  0.000     2.354     2.399
 163   1 H      0.064  0.936  0.000  0.000     2.156     2.296
 164   1 H      0.038  0.962  0.000  0.000     2.474     2.460
 165   1 H      0.056  0.944  0.000  0.000     2.247     2.344
 166   7 N     -0.200  1.229  3.971  0.000    25.351     7.478
 167   6 C      0.053  1.026  2.921  0.000    19.677     6.313
 168   6 C      0.271  1.045  2.685  0.000    22.431     7.757
 169   8 O     -0.504  1.726  4.778  0.000    23.883     6.552
 170   6 C     -0.103  1.026  3.077  0.000    22.437     6.739
 171   6 C      0.372  1.016  2.613  0.000    20.698     7.446
 172   8 O     -0.620  1.757  4.864  0.000    26.622     6.918
 173   8 O     -0.639  1.769  4.869  0.000    27.084     6.978
 174   1 H      0.187  0.813  0.000  0.000     1.172     1.696
 175   1 H      0.074  0.926  0.000  0.000     2.042     2.234
 176   1 H      0.032  0.968  0.000  0.000     2.553     2.498
 177   1 H      0.034  0.966  0.000  0.000     2.531     2.488
 178   7 N     -0.097  1.244  3.853  0.000    23.134     7.144
 179   6 C      0.021  1.037  2.942  0.000    20.151     6.377
 180   6 C      0.266  1.036  2.698  0.000    22.514     7.771
 181   8 O     -0.488  1.731  4.756  0.000    23.511     6.501
 182   6 C     -0.074  1.008  3.066  0.000    21.835     6.639
 183   6 C     -0.073  1.005  3.068  0.000    21.815     6.636
 184   6 C      0.001  1.012  2.987  0.000    20.508     6.437
 185   1 H      0.090  0.910  0.000  0.000     1.877     2.142
 186   1 H      0.079  0.921  0.000  0.000     1.992     2.207
 187   1 H      0.078  0.922  0.000  0.000     1.997     2.210
 188   1 H      0.047  0.953  0.000  0.000     2.363     2.404
 189   1 H      0.072  0.928  0.000  0.000     2.066     2.248
 190   1 H      0.040  0.960  0.000  0.000     2.445     2.445
 191   1 H      0.075  0.925  0.000  0.000     2.027     2.226
 192   7 N     -0.183  1.213  3.970  0.000    24.965     7.421
 193   6 C      0.020  1.034  2.946  0.000    20.215     6.398
 194   6 C      0.262  1.038  2.700  0.000    22.588     7.783
 195   8 O     -0.478  1.728  4.751  0.000    23.310     6.473
 196   6 C     -0.068  1.016  3.052  0.000    21.766     6.635
 197   6 C     -0.013  1.024  2.989  0.000    20.760     6.479
 198   6 C     -0.108  0.991  3.117  0.000    22.582     6.769
 199   6 C     -0.150  0.999  3.150  0.000    23.404     6.890
 200   1 H      0.185  0.815  0.000  0.000     1.185     1.705
 201   1 H      0.092  0.908  0.000  0.000     1.855     2.130
 202   1 H      0.040  0.960  0.000  0.000     2.443     2.444
 203   1 H      0.048  0.952  0.000  0.000     2.346     2.395
 204   1 H      0.040  0.960  0.000  0.000     2.446     2.446
 205   1 H      0.040  0.960  0.000  0.000     2.454     2.450
 206   1 H      0.031  0.969  0.000  0.000     2.571     2.507
 207   1 H      0.031  0.969  0.000  0.000     2.566     2.505
 208   1 H      0.049  0.951  0.000  0.000     2.330     2.387
 209   1 H      0.055  0.945  0.000  0.000     2.255     2.348
 210   1 H      0.071  0.929  0.000  0.000     2.069     2.249
 211   7 N     -0.191  1.221  3.970  0.000    25.153     7.449
 212   6 C      0.003  1.046  2.950  0.000    20.513     6.446
 213   6 C      0.265  1.038  2.697  0.000    22.524     7.774
 214   8 O     -0.438  1.716  4.722  0.000    22.451     6.353
 215   6 C     -0.019  1.033  2.986  0.000    20.866     6.494
 216   6 C     -0.164  1.001  3.163  0.000    23.701     6.935
 217   6 C     -0.151  0.999  3.152  0.000    23.444     6.897
 218   1 H      0.209  0.791  0.000  0.000     1.060     1.613
 219   1 H      0.104  0.896  0.000  0.000     1.751     2.069
 220   1 H      0.044  0.956  0.000  0.000     2.399     2.422
 221   1 H      0.072  0.928  0.000  0.000     2.063     2.246
 222   1 H      0.093  0.907  0.000  0.000     1.850     2.127
 223   1 H      0.068  0.932  0.000  0.000     2.107     2.270
 224   1 H      0.064  0.936  0.000  0.000     2.152     2.294
 225   1 H      0.057  0.943  0.000  0.000     2.234     2.337
 226   1 H      0.062  0.938  0.000  0.000     2.174     2.306
 227   7 N     -0.196  1.210  3.986  0.000    25.250     7.463
 228   6 C     -0.008  1.047  2.960  0.000    20.705     6.477
 229   6 C      0.269  1.036  2.695  0.000    22.450     7.760
 230   8 O     -0.487  1.739  4.748  0.000    23.504     6.500
 231   6 C      0.109  1.024  2.866  0.000    18.866     6.198
 232   8 O     -0.471  1.697  4.774  0.000    22.279     6.372
 233   6 C     -0.149  0.996  3.153  0.000    23.414     6.895
 234   1 H      0.182  0.818  0.000  0.000     1.203     1.718
 235   1 H      0.114  0.886  0.000  0.000     1.661     2.016
 236   1 H      0.065  0.935  0.000  0.000     2.145     2.290
 237   1 H      0.337  0.663  0.000  0.000     0.619     1.236
 238   1 H      0.069  0.931  0.000  0.000     2.091     2.261
 239   1 H      0.045  0.955  0.000  0.000     2.382     2.413
 240   1 H      0.062  0.938  0.000  0.000     2.176     2.307
 241   7 N     -0.182  1.217  3.965  0.000    24.933     7.416
 242   6 C      0.020  1.034  2.946  0.000    20.233     6.402
 243   6 C      0.285  1.027  2.688  0.000    22.176     7.713
 244   8 O     -0.459  1.738  4.721  0.000    22.898     6.416
 245   6 C     -0.157  0.999  3.158  0.000    23.565     6.917
 246   1 H      0.197  0.803  0.000  0.000     1.119     1.657
 247   1 H      0.086  0.914  0.000  0.000     1.921     2.167
 248   1 H      0.085  0.915  0.000  0.000     1.926     2.170
 249   1 H      0.080  0.920  0.000  0.000     1.974     2.197
 250   1 H      0.065  0.935  0.000  0.000     2.140     2.287
 251   7 N     -0.197  1.217  3.979  0.000    25.268     7.466
 252   6 C      0.016  1.036  2.947  0.000    20.300     6.414
 253   6 C      0.280  1.033  2.687  0.000    22.267     7.727
 254   8 O     -0.471  1.741  4.730  0.000    23.157     6.452
 255   6 C     -0.103  1.025  3.078  0.000    22.430     6.738
 256   6 C     -0.018  1.026  2.992  0.000    20.849     6.493
 257   6 C     -0.138  0.994  3.144  0.000    23.176     6.856
 258   6 C     -0.141  0.998  3.143  0.000    23.233     6.865
 259   1 H      0.203  0.797  0.000  0.000     1.091     1.636
 260   1 H      0.080  0.920  0.000  0.000     1.983     2.202
 261   1 H      0.068  0.932  0.000  0.000     2.105     2.269
 262   1 H      0.056  0.944  0.000  0.000     2.247     2.344
 263   1 H      0.046  0.954  0.000  0.000     2.369     2.407
 264   1 H      0.059  0.941  0.000  0.000     2.216     2.328
 265   1 H      0.035  0.965  0.000  0.000     2.511     2.478
 266   1 H      0.051  0.949  0.000  0.000     2.311     2.377
 267   1 H      0.063  0.937  0.000  0.000     2.158     2.297
 268   1 H      0.050  0.950  0.000  0.000     2.320     2.382
 269   1 H      0.056  0.944  0.000  0.000     2.241     2.341
 270   7 N     -0.190  1.223  3.968  0.000    25.130     7.445
 271   6 C      0.012  1.044  2.944  0.000    20.378     6.427
 272   6 C      0.282  1.034  2.684  0.000    22.222     7.720
 273   8 O     -0.501  1.744  4.756  0.000    23.796     6.540
 274   6 C     -0.096  1.025  3.071  0.000    22.307     6.719
 275   6 C     -0.023  1.028  2.995  0.000    20.942     6.508
 276   6 C     -0.145  0.999  3.146  0.000    23.321     6.880
 277   6 C     -0.145  0.999  3.146  0.000    23.316     6.878
 278   1 H      0.221  0.779  0.000  0.000     1.004     1.569
 279   1 H      0.087  0.913  0.000  0.000     1.904     2.158
 280   1 H      0.048  0.952  0.000  0.000     2.339     2.391
 281   1 H      0.070  0.930  0.000  0.000     2.086     2.259
 282   1 H      0.056  0.944  0.000  0.000     2.251     2.346
 283   1 H      0.070  0.930  0.000  0.000     2.087     2.259
 284   1 H      0.046  0.954  0.000  0.000     2.371     2.408
 285   1 H      0.056  0.944  0.000  0.000     2.242     2.341
 286   1 H      0.064  0.936  0.000  0.000     2.149     2.292
 287   1 H      0.053  0.947  0.000  0.000     2.287     2.365
 288   1 H      0.041  0.959  0.000  0.000     2.428     2.437
 289   7 N     -0.162  1.208  3.955  0.000    24.509     7.353
 290   6 C     -0.037  1.017  3.021  0.000    21.281     6.576
 291   6 C      0.281  1.033  2.685  0.000    22.235     7.722
 292   8 O     -0.522  1.748  4.775  0.000    24.282     6.607
 293   1 H      0.207  0.793  0.000  0.000     1.068     1.619
 294   1 H      0.097  0.903  0.000  0.000     1.813     2.105
 295   1 H      0.093  0.907  0.000  0.000     1.850     2.127
 296   7 N     -0.169  1.218  3.951  0.000    24.658     7.375
 297   6 C      0.029  1.030  2.941  0.000    20.086     6.380
 298   6 C      0.203  1.083  2.714  0.000    23.690     7.972
 299   8 O     -0.368  1.747  4.621  0.000    21.052     6.152
 300   6 C     -0.139  0.996  3.143  0.000    23.194     6.861
 301   1 H      0.236  0.764  0.000  0.000     0.938     1.517
 302   1 H      0.107  0.893  0.000  0.000     1.723     2.052
 303   1 H      0.081  0.919  0.000  0.000     1.965     2.192
 304   1 H      0.080  0.920  0.000  0.000     1.978     2.199
 305   1 H      0.073  0.927  0.000  0.000     2.054     2.241
 306   7 N     -0.455  1.239  4.216  0.000    31.955     8.396
 307   6 C      0.032  1.015  2.953  0.000    20.076     6.386
 308   6 C      0.158  1.119  2.723  0.000    24.561     8.116
 309   8 O     -0.487  1.861  4.625  0.000    23.500     6.499
 310   6 C     -0.141  1.003  3.137  0.000    23.266     6.878
 311   1 H      0.221  0.779  0.000  0.000     1.003     1.568
 312   1 H      0.109  0.891  0.000  0.000     1.702     2.040
 313   1 H      0.054  0.946  0.000  0.000     2.271     2.357
 314   1 H      0.100  0.900  0.000  0.000     1.780     2.086
 315   1 H      0.100  0.900  0.000  0.000     1.781     2.087
 316   7 N     -0.405  1.297  4.108  0.000    30.509     8.203
 317   6 C      0.039  1.030  2.932  0.000    19.929     6.357
 318   6 C      0.274  1.042  2.685  0.000    22.371     7.747
 319   8 O     -0.523  1.760  4.763  0.000    24.298     6.609
 320   6 C     -0.116  1.034  3.082  0.000    22.684     6.774
 321   6 C      0.300  1.011  2.688  0.000    21.900     7.662
 322   8 O     -0.533  1.745  4.788  0.000    24.532     6.641
 323   7 N     -0.266  1.217  4.049  0.000    26.892     7.702
 324   1 H      0.178  0.822  0.000  0.000     1.224     1.733
 325   1 H      0.047  0.953  0.000  0.000     2.356     2.400
 326   1 H      0.089  0.911  0.000  0.000     1.887     2.148
 327   1 H      0.057  0.943  0.000  0.000     2.238     2.339
 328   1 H      0.251  0.749  0.000  0.000     0.880     1.469
 329   1 H      0.231  0.769  0.000  0.000     0.962     1.537
 330   7 N     -0.182  1.220  3.962  0.000    24.943     7.418
 331   6 C      0.029  1.034  2.937  0.000    20.090     6.382
 332   6 C      0.202  1.083  2.716  0.000    23.713     7.975
 333   8 O     -0.367  1.741  4.626  0.000    21.034     6.149
 334   6 C     -0.084  1.028  3.056  0.000    22.079     6.686
 335   6 C     -0.019  1.025  2.994  0.000    20.873     6.497
 336   6 C     -0.140  0.999  3.141  0.000    23.210     6.864
 337   6 C     -0.138  0.998  3.141  0.000    23.180     6.858
 338   1 H      0.232  0.768  0.000  0.000     0.954     1.530
 339   1 H      0.080  0.920  0.000  0.000     1.980     2.200
 340   1 H      0.055  0.945  0.000  0.000     2.255     2.348
 341   1 H      0.079  0.921  0.000  0.000     1.985     2.203
 342   1 H      0.056  0.944  0.000  0.000     2.244     2.343
 343   1 H      0.070  0.930  0.000  0.000     2.082     2.256
 344   1 H      0.044  0.956  0.000  0.000     2.399     2.422
 345   1 H      0.055  0.945  0.000  0.000     2.255     2.348
 346   1 H      0.065  0.935  0.000  0.000     2.142     2.288
 347   1 H      0.059  0.941  0.000  0.000     2.210     2.325
 348   1 H      0.036  0.964  0.000  0.000     2.502     2.474
 349   7 N     -0.406  1.300  4.106  0.000    30.547     8.209
 350   6 C      0.040  1.028  2.932  0.000    19.902     6.351
 351   6 C      0.276  1.042  2.683  0.000    22.339     7.741
 352   8 O     -0.506  1.741  4.765  0.000    23.926     6.558
 353   6 C     -0.050  1.012  3.038  0.000    21.439     6.587
 354   6 C     -0.083  1.016  3.067  0.000    22.074     6.686
 355   6 C      0.374  1.017  2.609  0.000    20.662     7.440
 356   8 O     -0.654  1.771  4.883  0.000    27.494     7.030
 357   8 O     -0.666  1.772  4.894  0.000    27.796     7.069
 358   1 H      0.170  0.830  0.000  0.000     1.275     1.768
 359   1 H      0.041  0.959  0.000  0.000     2.432     2.439
 360   1 H      0.037  0.963  0.000  0.000     2.490     2.467
 361   1 H      0.030  0.970  0.000  0.000     2.587     2.515
 362   1 H      0.015  0.985  0.000  0.000     2.813     2.622
 363   1 H      0.020  0.980  0.000  0.000     2.725     2.581
 364   7 N     -0.175  1.214  3.961  0.000    24.796     7.396
 365   6 C      0.027  1.037  2.936  0.000    20.124     6.387
 366   6 C      0.205  1.083  2.712  0.000    23.650     7.965
 367   8 O     -0.359  1.747  4.612  0.000    20.882     6.127
 368   6 C     -0.091  1.027  3.063  0.000    22.200     6.703
 369   6 C     -0.017  1.028  2.990  0.000    20.845     6.493
 370   6 C     -0.139  1.000  3.140  0.000    23.210     6.864
 371   6 C     -0.135  0.998  3.137  0.000    23.111     6.847
 372   1 H      0.213  0.787  0.000  0.000     1.041     1.598
 373   1 H      0.091  0.909  0.000  0.000     1.870     2.138
 374   1 H      0.065  0.935  0.000  0.000     2.140     2.287
 375   1 H      0.079  0.921  0.000  0.000     1.985     2.203
 376   1 H      0.046  0.954  0.000  0.000     2.364     2.404
 377   1 H      0.062  0.938  0.000  0.000     2.176     2.307
 378   1 H      0.052  0.948  0.000  0.000     2.298     2.370
 379   1 H      0.058  0.942  0.000  0.000     2.221     2.330
 380   1 H      0.055  0.945  0.000  0.000     2.263     2.352
 381   1 H      0.058  0.942  0.000  0.000     2.220     2.330
 382   1 H      0.036  0.964  0.000  0.000     2.503     2.474
 383   7 N     -0.392  1.298  4.094  0.000    30.144     8.154
 384   6 C      0.016  1.044  2.940  0.000    20.312     6.417
 385   6 C      0.287  1.034  2.679  0.000    22.130     7.704
 386   8 O     -0.482  1.737  4.744  0.000    23.379     6.483
 387   6 C      0.120  1.025  2.855  0.000    18.692     6.169
 388   8 O     -0.490  1.697  4.793  0.000    22.673     6.428
 389   6 C     -0.125  0.990  3.136  0.000    22.936     6.824
 390   1 H      0.163  0.837  0.000  0.000     1.315     1.796
 391   1 H      0.059  0.941  0.000  0.000     2.204     2.322
 392   1 H      0.020  0.980  0.000  0.000     2.736     2.586
 393   1 H      0.322  0.678  0.000  0.000     0.658     1.274
 394   1 H      0.030  0.970  0.000  0.000     2.588     2.516
 395   1 H      0.060  0.940  0.000  0.000     2.196     2.317
 396   1 H      0.047  0.953  0.000  0.000     2.358     2.401
 397   7 N     -0.177  1.210  3.967  0.000    24.823     7.400
 398   6 C     -0.030  1.011  3.019  0.000    21.156     6.557
 399   6 C      0.194  1.079  2.727  0.000    23.852     7.998
 400   8 O     -0.357  1.736  4.621  0.000    20.836     6.120
 401   1 H      0.220  0.780  0.000  0.000     1.009     1.574
 402   1 H      0.117  0.883  0.000  0.000     1.636     2.000
 403   1 H      0.111  0.889  0.000  0.000     1.685     2.030
 404   7 N     -0.395  1.306  4.089  0.000    30.231     8.166
 405   6 C      0.035  1.033  2.933  0.000    20.001     6.369
 406   6 C      0.201  1.083  2.716  0.000    23.726     7.978
 407   8 O     -0.359  1.744  4.615  0.000    20.878     6.126
 408   6 C     -0.082  1.018  3.063  0.000    22.029     6.677
 409   6 C     -0.006  1.069  2.937  0.000    28.160     8.705
 410   6 C     -0.048  1.056  2.992  0.000    29.188     8.862
 411   6 C     -0.045  1.057  2.988  0.000    29.122     8.852
 412   6 C     -0.069  1.049  3.020  0.000    29.709     8.940
 413   6 C     -0.078  1.053  3.024  0.000    29.936     8.974
 414   6 C      0.134  1.039  2.827  0.000    25.068     8.208
 415   8 O     -0.445  1.699  4.746  0.000    21.730     6.293
 416   1 H      0.170  0.830  0.000  0.000     1.270     1.765
 417   1 H      0.064  0.936  0.000  0.000     2.154     2.295
 418   1 H      0.064  0.936  0.000  0.000     2.148     2.292
 419   1 H      0.060  0.940  0.000  0.000     2.196     2.317
 420   1 H      0.044  0.956  0.000  0.000     2.400     2.422
 421   1 H      0.051  0.949  0.000  0.000     2.305     2.374
 422   1 H      0.053  0.947  0.000  0.000     2.287     2.365
 423   1 H      0.052  0.948  0.000  0.000     2.293     2.368
 424   1 H      0.349  0.651  0.000  0.000     0.591     1.207
 425   1 H      0.188  0.812  0.000  0.000     1.170     1.694
 426   1 H      0.064  0.936  0.000  0.000     2.155     2.296
 427   1 H      0.181  0.819  0.000  0.000     1.209     1.722
 428   1 H      0.074  0.926  0.000  0.000     2.040     2.233
 429   1 H      0.183  0.817  0.000  0.000     1.197     1.714
 430   1 H      0.122  0.878  0.000  0.000     1.595     1.975
 431   1 H      0.184  0.816  0.000  0.000     1.191     1.710
 432   1 H      0.062  0.938  0.000  0.000     2.176     2.307
 433   1 H      0.176  0.824  0.000  0.000     1.239     1.743
 434   1 H      0.069  0.931  0.000  0.000     2.096     2.264
 435   1 H      0.185  0.815  0.000  0.000     1.185     1.705
 436   1 H      0.086  0.914  0.000  0.000     1.916     2.164
 437   1 H      0.187  0.813  0.000  0.000     1.175     1.698
 438   1 H      0.062  0.938  0.000  0.000     2.172     2.304

 Mol. C6AA /au·bohr⁶  :    1787476.563859
 Mol. C8AA /au·bohr⁸  :   39987057.589970
 Mol. α(0) /au        :       2009.526500

 
molecular dipole:
                 x           y           z       tot (Debye)
 q only:      -60.446     -69.524      -5.702
   full:      -62.038     -70.365     -10.017     239.795
molecular quadrupole (traceless):
                xx          xy          yy          xz          yz          zz
 q only:    -1541.595   -5886.946   -2914.379    -805.572    -835.762    4455.974
  q+dip:    -1577.233   -6065.797   -2806.844   -1216.379   -1210.934    4384.078
   full:    -1582.506   -6067.220   -2800.342   -1214.365   -1207.878    4382.848
speedup  1.00
cpu  time for grad    9.92 s
wall time for grad    9.92 s

SCC energy    :    -679.6944824
rep           :      12.2888242
ES            :       1.9656656
AES           :      -0.0523587
AXC           :       0.1288561
disp          :      -0.5917953
XB            :       0.0000000
fix           :       0.0000000
Gborn         :       0.0000000
Gsasa         :       0.0000000
Ghb           :       0.0000000
Gshift        :       0.0000000
Gsolv         :      -0.4431541     -278.08
Etot ala COSMO:    -679.6944824
grad norm     :       1.7877641
total E       :    -667.3440879
atomizationE  :     122.9785304    77170.19
(atE without considering molecular charge,
 total energy contains solvation terms)
H-L gap (eV)  :          0.5110

------------------------------------------------------------------------
 * finished run on 2019/03/15 at 00:15:28.238     
------------------------------------------------------------------------
 total:
 * wall-time:     0 d,  0 h,  0 min, 10.669 sec
 *  cpu-time:     0 d,  0 h,  0 min, 10.554 sec
 * ratio c/w:     0.989 speedup
 SCF:
 * wall-time:     0 d,  0 h,  0 min, 10.391 sec
 *  cpu-time:     0 d,  0 h,  0 min, 10.390 sec
 * ratio c/w:     1.000 speedup

