      -----------------------------------------------------------      
     |                   =====================                   |     
     |                           x T B                           |     
     |                   =====================                   |     
     |                         S. Grimme                         |     
     |          Mulliken Center for Theoretical Chemistry        |     
     |                    University of Bonn                     |     
     |                Version 6.1 RC1 (SAW190329)                |     
      -----------------------------------------------------------      

   This program is distributed in the hope that it will be useful,
   but WITHOUT ANY WARRANTY; without even the implied warranty of
   MERCHANTABILITY or FITNESS FOR A PARTICULAR PURPOSE.
   
   FOR NON-COMMERCIAL, ACADEMIA USE ONLY.
   
   Cite this work as:
   S. Grimme, C. Bannwarth, P. Shushkov, J. Comput. Theory Chem., 2017,
   13, 1989-2009. DOI: 10.1021/acs.jctc.7b00118
   C. Bannwarth, S. Ehlert and S. Grimme., J. Comput. Theory Chem., 2019,
   just accepted. DOI: 10.1021/acs.jctc.8b01176
   
   for sTDA-xTB:
   S. Grimme and C. Bannwarth, J. Chem. Phys., 2016, 145, 054103.
   DOI: 10.1063/1.4959605
   
   in the mass-spec context:
   V. Asgeirsson, C. Bauer and S. Grimme, Chem. Sci., 2017, 8, 4879.
   DOI: 10.1039/c7sc00601b
   
   for metadynamics refer to:
   S. Grimme, ChemRxiv, Preprint. DOI: 10.26434/chemrxiv.7660532.v1
   
   with help from (in alphabetical order)
   C. Bannwarth, F. Bohle, G. Brandenburg, E. Caldeweyher, M. Checinski,
   S. Dohm, S. Ehlert, S. Ehrlich, F. März, H. Neugebauer, J. Pisarek,
   P. Pracht, P. Shushkov, and S. Spicher.
   
 * started run on 2019/05/31 at 06:33:08.527     

           -------------------------------------------------
          |                Calculation Setup                |
           -------------------------------------------------

          program call               : /home/lum/qr/xtb-190329/bin/xtb xtb_tmp.xyz --chrg -2 --grad --gfn 2 --etemp 500 --acc 0.1 --gbsa h2o --parallel 2
          hostname                   : cu39
          coordinate file            : xtb_tmp.xyz
          omp threads                :                     2
          number of atoms            :                   331
          number of electrons        :                   908
          charge                     :                    -2
          spin                       :                   0.0
          first test random number   :      0.27767701288804


molecular fragmentation (1/2 indicates fragments):
111111111111111111111111111111111111111111111111111111111111111111111222
222222222222222222222222222222222222222222222222222222222222222222222222
222222222222222222222222222222222222222222222222222222222222222222222222
222222222222222222222222222222222222222222222222222222222222222222222222
2222222222222222222222222222222222211222222
# atoms in fragment 1/2:    71   260
 fragment masses (1/2) :      520.56     1773.08
CMA distance (Bohr)    :  20.369
constraining FC (au)   :  0.0500

########################################################################
# WARNING! Please study the warnings concerning your input carefully
#  - XTBPATH is not set, using XTBHOME instead
#  - Process number higher than OMP_NUM_THREADS, I hope you know what you are doing.
########################################################################

           ------------------------------------------------- 
          |                 G F N 2 - x T B                 |
          | Geometry, Frequencies, Noncovalent interactions |
          |            JCTC 2018 parametrisation            |
           ------------------------------------------------- 
 
             k(s)              :                1.8500
             k(p)              :                2.2300
             k(d)              :                2.2300
             k(f)              :                2.0000
             kEN (H0ij)        :               -2.0000
             D4 a1             :                0.5200
             D4 a2             :                5.0000
             D4 s6             :                1.0000
             D4 s8             :                2.7000
             D4 s9             :                5.0000
             alphaj            :                2.0000

  Z AO/shell   Hii/eV     exponent
  1     Wed Apr 25 08:07:45 CEST 2018   EN: 2.200 GM2: 0.406  GM3: 0.0800  RAES: 1.40
     1s    -10.707211    1.230000
  6     Wed Apr 25 08:07:45 CEST 2018   EN: 2.550 GM2: 0.538  GM3: 0.1500  RAES: 3.00
     2s    -13.970922    2.096432
     2p    -10.063292    1.800000
  7     Wed Apr 25 08:07:45 CEST 2018   EN: 3.040 GM2: 0.461  GM3:-0.0640  RAES: 1.90
     2s    -16.686243    2.339881
     2p    -12.523956    2.014332
  8     Wed Apr 25 08:07:45 CEST 2018   EN: 3.440 GM2: 0.452  GM3:-0.0517  RAES: 1.80
     2s    -20.229985    2.439742
     2p    -15.503117    2.137023

 Solvent             : h2o
 Using internal parameter file: .param_gbsa2_h2o
 Gsolv ref. state (COSMO-RS): gsolv [1 M gas/solution]
 temperature (mdtemp)       :    298.150000000000     
 dielectric constant        :    80.2000000000000     
 rho                        :    1.00000000000000     
 mass                       :    18.0000000000000     
 surface tension            :    15.5689454083859     
 probe radius               :   0.975313790000000     
 vdW radii scaling          :    1.00000000000000     
 Gshift (Eh)                :   1.857443126794793E-003
 c1                         :    1.55243817000000     
 soset                      :   0.130326360000000     
 HB correction              :  T
 Number of grid points      :          230

            Z     q(EN)     CN     RAES       Cart. coordinates
     1  N   5.0   -0.68    3.00    1.93    31.83007    61.51336   198.33051
     2  C   4.0    0.08    3.99    3.60    31.56201    63.55949   200.10385
     3  C   4.0    0.29    3.01    3.02    33.84700    63.66529   201.87113
     4  O   6.0   -0.37    1.00    1.80    35.34523    61.92485   202.11172
     5  C   4.0   -0.08    3.98    3.59    29.20624    63.11609   201.70751
     6  C   4.0    0.34    2.99    3.02    29.50829    60.56663   203.14911
     7  O   6.0   -0.37    1.00    1.80    29.49586    60.65187   205.49081
     8  O   6.0   -0.40    1.00    1.80    29.76344    58.62645   201.81698
     9  H   1.0    0.33    1.00    1.43    31.14656    59.84788   199.06716
    10  H   1.0    0.12    0.99    1.43    31.40990    65.33666   199.05161
    11  H   1.0    0.14    0.99    1.43    28.91709    64.67147   203.02843
    12  H   1.0    0.14    0.99    1.43    27.56453    63.01086   200.45850
    13  N   5.0   -0.50    3.02    1.93    34.04865    65.86487   203.10339
    14  C   4.0    0.08    3.99    3.61    35.74716    66.21455   205.22269
    15  C   4.0    0.27    3.02    3.02    34.15784    67.41362   207.30782
    16  O   6.0   -0.46    1.00    1.80    33.49104    69.62693   207.13215
    17  C   4.0   -0.12    3.99    3.60    37.93683    67.95460   204.41093
    18  C   4.0   -0.04    3.03    3.02    40.27933    67.55598   205.95412
    19  C   4.0   -0.10    3.03    3.02    42.48612    66.72590   204.80168
    20  C   4.0   -0.09    3.03    3.02    40.27173    67.95724   208.54918
    21  C   4.0   -0.11    3.03    3.02    44.65251    66.31417   206.20686
    22  C   4.0   -0.11    3.03    3.02    42.43332    67.52339   209.95508
    23  C   4.0   -0.11    3.03    3.02    44.63425    66.71887   208.78963
    24  H   1.0    0.30    1.00    1.43    32.70415    67.19756   202.81306
    25  H   1.0    0.14    0.99    1.43    36.42676    64.33297   205.75334
    26  H   1.0    0.12    0.99    1.43    38.32025    67.53580   202.42831
    27  H   1.0    0.12    0.99    1.43    37.24785    69.89621   204.55157
    28  H   1.0    0.11    0.99    1.43    42.48409    66.38855   202.78840
    29  H   1.0    0.13    0.99    1.43    38.54700    68.58856   209.44369
    30  H   1.0    0.10    1.00    1.43    46.34399    65.67241   205.26809
    31  H   1.0    0.10    1.00    1.43    42.37962    67.77930   211.97481
    32  H   1.0    0.10    1.00    1.43    46.31461    66.35810   209.88391
    33  N   5.0   -0.48    3.01    1.93    33.58432    65.98291   209.31381
    34  C   4.0    0.07    4.00    3.61    32.17044    67.01922   211.41736
    35  C   4.0    0.27    3.01    3.02    33.82536    66.95045   213.79413
    36  O   6.0   -0.42    1.00    1.80    34.56938    64.99374   214.77973
    37  C   4.0   -0.12    3.98    3.59    29.59661    65.75307   211.81944
    38  C   4.0   -0.09    3.97    3.58    29.63354    62.94645   212.44952
    39  C   4.0    0.31    2.99    3.02    27.23818    62.20178   214.00938
    40  O   6.0   -0.37    1.00    1.80    26.30078    60.08501   213.55664
    41  O   6.0   -0.39    1.00    1.80    26.47516    63.76200   215.60691
    42  H   1.0    0.25    1.00    1.43    34.05607    64.14057   209.40376
    43  H   1.0    0.14    0.99    1.43    31.81612    69.00060   210.93199
    44  H   1.0    0.14    0.99    1.43    28.67158    66.71042   213.40567
    45  H   1.0    0.13    0.99    1.43    28.45227    66.05821   210.12530
    46  H   1.0    0.15    0.99    1.43    29.69505    61.75328   210.76931
    47  H   1.0    0.15    0.99    1.43    31.24358    62.49149   213.65991
    48  N   5.0   -0.47    3.02    1.93    34.55429    69.24699   214.56702
    49  C   4.0    0.06    3.98    3.59    35.89426    69.69721   216.91400
    50  C   4.0    0.06    3.00    3.02    33.98680    70.72483   218.83104
    51  O   6.0   -0.37    1.00    1.80    31.96808    71.64380   218.14418
    52  C   4.0   -0.15    3.98    3.59    38.03633    71.57532   216.31445
    53  C   4.0   -0.18    3.98    3.58    39.58140    72.49455   218.57621
    54  C   4.0   -0.16    3.98    3.58    41.80078    74.16604   217.74999
    55  C   4.0   -0.07    3.98    3.58    43.92949    72.62945   216.54976
    56  N   5.0   -0.74    3.98    2.82    46.03713    74.32234   215.76399
    57  H   1.0    0.29    1.00    1.43    33.73762    70.81254   213.81207
    58  H   1.0    0.13    0.99    1.43    36.62674    67.87535   217.56659
    59  H   1.0    0.11    0.99    1.43    39.23820    70.60637   214.95123
    60  H   1.0    0.13    0.99    1.43    37.17650    73.18175   215.35032
    61  H   1.0    0.10    0.99    1.43    38.36331    73.58681   219.83137
    62  H   1.0    0.09    0.99    1.43    40.29578    70.87526   219.62800
    63  H   1.0    0.10    0.99    1.43    41.09964    75.56733   216.41384
    64  H   1.0    0.09    0.99    1.43    42.50845    75.14167   219.41964
    65  H   1.0    0.09    0.99    1.43    44.63815    71.24723   217.90553
    66  H   1.0    0.10    0.99    1.43    43.23987    71.63760   214.88171
    67  H   1.0    0.22    1.00    1.43    47.48198    73.27882   214.97935
    68  H   1.0    0.22    1.00    1.43    45.40385    75.60863   214.44176
    69  H   1.0    0.22    1.00    1.43    46.72614    75.30051   217.30683
    70  N   5.0   -0.68    3.00    1.93    32.33538    77.85098   216.53247
    71  C   4.0    0.08    3.98    3.59    31.60776    78.43848   213.96757
    72  C   4.0    0.28    3.01    3.02    31.29828    75.98934   212.45781
    73  O   6.0   -0.45    1.00    1.80    32.81635    74.26499   212.73781
    74  C   4.0   -0.12    3.99    3.60    33.73870    79.98351   212.70968
    75  C   4.0    0.25    3.00    3.02    34.48261    82.25306   214.33644
    76  O   6.0   -0.45    1.00    1.80    32.93357    83.68042   215.28148
    77  N   5.0   -0.67    3.00    1.93    36.97505    82.56838   214.64024
    78  H   1.0    0.29    1.00    1.43    33.49973    76.34923   216.73317
    79  H   1.0    0.13    0.99    1.43    29.85530    79.52487   214.05333
    80  H   1.0    0.11    0.99    1.43    35.35542    78.74553   212.40031
    81  H   1.0    0.09    0.99    1.43    33.06538    80.67073   210.88763
    82  H   1.0    0.26    1.00    1.43    37.58877    84.10637   215.58585
    83  H   1.0    0.24    1.00    1.43    38.23316    81.49989   213.70143
    84  N   5.0   -0.51    3.01    1.93    29.41857    75.98490   210.77570
    85  C   4.0    0.10    3.99    3.61    29.02639    73.94576   209.00613
    86  C   4.0    0.30    3.01    3.02    29.12366    74.94995   206.28404
    87  O   6.0   -0.46    1.00    1.80    28.05903    76.91742   205.69263
    88  C   4.0   -0.01    3.98    3.59    26.41417    72.72759   209.36239
    89  O   6.0   -0.45    1.99    1.82    25.96687    71.14370   207.26666
    90  H   1.0    0.28    1.00    1.43    28.08976    77.37497   210.73925
    91  H   1.0    0.15    0.99    1.43    30.51770    72.54807   209.28552
    92  H   1.0    0.12    0.99    1.43    26.37396    71.65758   211.14174
    93  H   1.0    0.13    0.99    1.43    25.00691    74.25164   209.46059
    94  H   1.0    0.26    0.99    1.43    24.31658    70.38462   207.41297
    95  N   5.0   -0.48    3.01    1.93    30.48834    73.54010   204.71601
    96  C   4.0    0.08    3.99    3.61    30.65402    73.94206   202.02299
    97  C   4.0    0.27    3.01    3.02    29.99108    71.48579   200.65660
    98  O   6.0   -0.45    1.00    1.80    30.39291    69.42261   201.64575
    99  C   4.0   -0.13    3.99    3.60    33.35440    74.70468   201.24933
   100  C   4.0   -0.09    3.97    3.58    34.38337    76.96351   202.77319
   101  C   4.0   -0.21    3.98    3.59    35.82117    76.11226   205.12842
   102  C   4.0   -0.25    3.98    3.59    36.12823    78.55273   201.11150
   103  H   1.0    0.30    1.00    1.43    31.21777    71.87704   205.33207
   104  H   1.0    0.15    0.99    1.43    29.30388    75.40967   201.49103
   105  H   1.0    0.11    0.99    1.43    34.58206    73.06281   201.48626
   106  H   1.0    0.10    0.99    1.43    33.26872    75.15356   199.23874
   107  H   1.0    0.12    0.99    1.43    32.76769    78.11824   203.35136
   108  H   1.0    0.09    0.99    1.43    36.41947    77.75906   206.19965
   109  H   1.0    0.14    0.99    1.43    34.66504    74.91547   206.33202
   110  H   1.0    0.10    0.99    1.43    37.48412    75.03991   204.57368
   111  H   1.0    0.09    0.99    1.43    36.78768    80.20295   202.13724
   112  H   1.0    0.09    0.99    1.43    37.75372    77.43928   200.53144
   113  H   1.0    0.09    0.99    1.43    35.11871    79.16479   199.43811
   114  N   5.0   -0.50    3.01    1.93    29.19748    71.77159   198.26546
   115  C   4.0    0.08    4.00    3.61    28.45432    69.63144   196.73408
   116  C   4.0    0.28    3.01    3.02    29.13941    70.18834   193.99095
   117  O   6.0   -0.45    1.00    1.80    28.67832    72.25130   193.03086
   118  C   4.0   -0.08    3.98    3.58    25.63058    69.01804   196.92285
   119  C   4.0    0.31    2.99    3.02    25.15087    66.11012   196.73601
   120  O   6.0   -0.39    1.00    1.80    26.71834    64.85660   195.50092
   121  O   6.0   -0.37    1.00    1.80    23.22961    65.30751   197.83273
   122  H   1.0    0.30    1.00    1.43    28.33038    73.42752   197.79497
   123  H   1.0    0.13    0.99    1.43    29.50908    67.97848   197.39665
   124  H   1.0    0.14    0.99    1.43    24.82474    69.66594   198.71317
   125  H   1.0    0.14    0.99    1.43    24.56643    69.89355   195.37777
   126  N   5.0   -0.47    3.01    1.93    30.38102    68.35180   192.80168
   127  C   4.0    0.08    3.99    3.60    31.28867    68.52715   190.22932
   128  C   4.0    0.07    3.00    3.02    30.06057    66.47427   188.60410
   129  O   6.0   -0.39    1.00    1.80    29.99174    64.26474   189.31992
   130  C   4.0   -0.08    3.98    3.59    34.17999    68.05233   190.07824
   131  C   4.0   -0.15    3.98    3.58    35.66026    69.12777   192.32950
   132  C   4.0   -0.24    3.98    3.59    35.18639    69.00596   187.54891
   133  C   4.0   -0.23    3.98    3.58    35.54239    71.98499   192.64797
   134  H   1.0    0.26    1.00    1.43    30.54247    66.63732   193.64011
   135  H   1.0    0.15    0.99    1.43    30.78586    70.40443   189.52481
   136  H   1.0    0.12    0.99    1.43    34.42192    65.99407   190.16219
   137  H   1.0    0.12    0.99    1.43    34.94939    68.22425   194.04127
   138  H   1.0    0.09    0.99    1.43    37.62539    68.54772   192.08280
   139  H   1.0    0.09    0.99    1.43    37.20390    68.64845   187.42915
   140  H   1.0    0.10    0.99    1.43    34.23953    68.04205   185.99958
   141  H   1.0    0.10    0.99    1.43    34.83883    71.01765   187.34597
   142  H   1.0    0.09    0.99    1.43    36.64600    72.52337   194.29569
   143  H   1.0    0.09    0.99    1.43    36.31651    72.92972   190.99929
   144  H   1.0    0.13    0.99    1.43    33.60150    72.59664   192.94057
   145  N   5.0   -0.71    3.00    1.93    26.68191    73.23750   180.82374
   146  C   4.0    0.07    3.98    3.59    25.04566    74.30172   182.74180
   147  C   4.0    0.28    3.01    3.02    26.52534    74.36159   185.23388
   148  O   6.0   -0.42    1.00    1.80    27.81948    72.56137   185.92793
   149  C   4.0   -0.21    3.98    3.59    22.60452    72.78005   183.05167
   150  H   1.0    0.27    1.00    1.43    27.66334    71.66531   181.32990
   151  H   1.0    0.13    0.99    1.43    24.55493    76.23167   182.17803
   152  H   1.0    0.12    0.99    1.43    21.54786    73.44452   184.68544
   153  H   1.0    0.10    0.99    1.43    21.44960    72.94705   181.36035
   154  H   1.0    0.12    0.99    1.43    23.01700    70.78378   183.33240
   155  N   5.0   -0.50    3.01    1.93    26.38758    76.55106   186.48057
   156  C   4.0    0.08    3.99    3.61    27.69286    77.01815   188.83957
   157  C   4.0    0.27    3.02    3.02    25.78151    78.04079   190.72437
   158  O   6.0   -0.45    1.00    1.80    24.43713    79.83147   190.14990
   159  C   4.0   -0.12    3.99    3.61    29.74421    79.03916   188.41191
   160  C   4.0   -0.03    3.03    3.02    30.94261    79.84528   190.85106
   161  C   4.0   -0.10    3.04    3.02    32.84262    78.39499   191.92919
   162  C   4.0   -0.08    3.03    3.02    30.18337    82.04834   192.05501
   163  C   4.0   -0.11    3.03    3.02    34.01900    79.16536   194.13141
   164  C   4.0   -0.11    3.03    3.02    31.35891    82.82712   194.25397
   165  C   4.0   -0.11    3.03    3.02    33.30195    81.40727   195.27307
   166  H   1.0    0.28    1.00    1.43    25.20295    77.93226   185.87385
   167  H   1.0    0.15    0.99    1.43    28.48896    75.23641   189.51424
   168  H   1.0    0.10    0.99    1.43    31.15284    78.25449   187.12923
   169  H   1.0    0.11    0.99    1.43    28.82940    80.65186   187.51044
   170  H   1.0    0.10    1.00    1.43    33.39554    76.65568   191.02318
   171  H   1.0    0.11    1.00    1.43    28.66711    83.14984   191.25166
   172  H   1.0    0.09    1.00    1.43    35.50715    78.01987   194.92820
   173  H   1.0    0.10    1.00    1.43    30.78686    84.55723   195.16358
   174  H   1.0    0.09    1.00    1.43    34.25920    82.06522   196.94699
   175  N   5.0   -0.48    3.01    1.93    25.79161    76.98145   193.01776
   176  C   4.0    0.08    4.00    3.61    23.83669    77.56829   194.83804
   177  C   4.0    0.28    3.02    3.02    25.04199    77.73428   197.44180
   178  O   6.0   -0.47    1.00    1.80    26.19710    75.91751   198.33008
   179  C   4.0   -0.13    3.98    3.59    21.81315    75.47522   194.90258
   180  C   4.0   -0.10    3.97    3.58    20.76291    74.85774   192.29659
   181  C   4.0    0.31    2.99    3.02    18.94467    72.54698   192.49261
   182  O   6.0   -0.39    1.00    1.80    16.80111    72.96010   193.37624
   183  O   6.0   -0.37    1.00    1.80    19.79293    70.47549   191.73739
   184  H   1.0    0.29    1.00    1.43    26.76027    75.35070   193.30434
   185  H   1.0    0.15    0.99    1.43    22.99609    79.37349   194.28779
   186  H   1.0    0.14    0.99    1.43    22.65657    73.75620   195.69231
   187  H   1.0    0.12    0.99    1.43    20.26243    76.02836   196.14895
   188  H   1.0    0.12    0.99    1.43    19.72989    76.47352   191.53870
   189  H   1.0    0.15    0.99    1.43    22.28207    74.32300   191.00272
   190  N   5.0   -0.49    3.01    1.93    24.79124    79.90092   198.68859
   191  C   4.0    0.08    4.00    3.62    25.67970    80.11385   201.27269
   192  C   4.0    0.27    3.01    3.02    23.59150    81.12537   202.98944
   193  O   6.0   -0.45    1.00    1.80    22.21100    82.86386   202.33387
   194  C   4.0   -0.21    3.98    3.59    27.99291    81.83971   201.48925
   195  H   1.0    0.29    1.00    1.43    23.86811    81.38471   197.88644
   196  H   1.0    0.16    0.99    1.43    26.19835    78.20894   201.87440
   197  H   1.0    0.10    0.99    1.43    28.84986    81.54206   203.32993
   198  H   1.0    0.11    0.99    1.43    29.35051    81.34597   200.02955
   199  H   1.0    0.11    0.99    1.43    27.44398    83.80525   201.27256
   200  N   5.0   -0.49    3.01    1.93    23.47905    80.00796   205.25626
   201  C   4.0    0.07    3.99    3.60    22.16943    81.09928   207.40851
   202  C   4.0    0.27    3.02    3.02    24.16640    81.25585   209.49162
   203  O   6.0   -0.46    1.00    1.80    25.02747    79.33474   210.47928
   204  C   4.0   -0.20    3.98    3.59    19.91343    79.52911   208.28350
   205  H   1.0    0.29    1.00    1.43    24.77194    78.65116   205.66131
   206  H   1.0    0.13    0.99    1.43    21.54804    82.99195   206.84888
   207  H   1.0    0.10    0.99    1.43    18.96364    80.52624   209.80788
   208  H   1.0    0.11    0.99    1.43    18.60522    79.24313   206.73049
   209  H   1.0    0.13    0.99    1.43    20.54834    77.70445   208.98282
   210  N   5.0   -0.47    3.01    1.93    24.99836    83.57078   210.00974
   211  C   4.0    0.07    3.99    3.61    26.93144    84.02032   211.87786
   212  C   4.0    0.05    3.00    3.02    25.91038    85.86734   213.82871
   213  O   6.0   -0.40    1.00    1.80    23.89012    86.96559   213.50531
   214  C   4.0   -0.08    3.98    3.59    29.42434    84.95162   210.66643
   215  C   4.0   -0.15    3.98    3.58    29.46206    87.81689   210.25890
   216  C   4.0   -0.21    3.98    3.59    29.87442    83.56388   208.17034
   217  C   4.0   -0.25    3.98    3.59    32.08503    88.73679   209.48699
   218  H   1.0    0.29    1.00    1.43    24.21419    85.13225   209.22614
   219  H   1.0    0.13    0.99    1.43    27.25899    82.21001   212.83106
   220  H   1.0    0.13    0.99    1.43    30.91054    84.50211   212.01807
   221  H   1.0    0.13    0.99    1.43    28.06241    88.31313   208.82991
   222  H   1.0    0.11    0.99    1.43    28.94498    88.76474   212.02034
   223  H   1.0    0.09    0.99    1.43    31.81264    83.82243   207.54717
   224  H   1.0    0.13    0.99    1.43    29.49557    81.54939   208.35397
   225  H   1.0    0.12    0.99    1.43    28.62290    84.31801   206.72337
   226  H   1.0    0.08    0.99    1.43    32.17529    90.78781   209.53366
   227  H   1.0    0.11    0.99    1.43    33.48905    88.02393   210.80876
   228  H   1.0    0.09    0.99    1.43    32.57201    88.11174   207.59448
   229  N   5.0   -0.71    3.00    1.93    24.08966    92.81038   210.35967
   230  C   4.0    0.07    3.99    3.59    23.39150    93.15021   207.72541
   231  C   4.0    0.27    3.00    3.02    22.77991    90.56037   206.58989
   232  O   6.0   -0.45    1.00    1.80    23.57932    88.58288   207.48988
   233  C   4.0   -0.10    3.98    3.58    25.49383    94.58898   206.26781
   234  C   4.0   -0.23    3.98    3.59    27.88969    93.00287   206.07643
   235  C   4.0   -0.24    3.98    3.59    24.64097    95.48354   203.65992
   236  H   1.0    0.30    1.00    1.43    24.47349    91.02210   210.92726
   237  H   1.0    0.10    0.99    1.43    21.69158    94.34061   207.69471
   238  H   1.0    0.09    0.99    1.43    25.89086    96.26626   207.41237
   239  H   1.0    0.08    0.99    1.43    29.33893    94.02532   205.04253
   240  H   1.0    0.09    0.99    1.43    28.61225    92.57432   207.94835
   241  H   1.0    0.11    0.99    1.43    27.51297    91.23609   205.09411
   242  H   1.0    0.08    0.99    1.43    26.05568    96.76597   202.89880
   243  H   1.0    0.12    0.99    1.43    24.44098    93.91307   202.35006
   244  H   1.0    0.09    0.99    1.43    22.86397    96.50904   203.77721
   245  N   5.0   -0.50    3.02    1.93    21.27083    90.68786   204.57651
   246  C   4.0    0.07    3.99    3.60    20.28712    88.59422   203.09940
   247  C   4.0    0.26    3.01    3.02    20.61822    89.36447   200.32590
   248  O   6.0   -0.46    1.00    1.80    20.26588    91.55708   199.67684
   249  C   4.0   -0.14    3.99    3.60    17.47724    88.28088   203.77835
   250  C   4.0   -0.16    3.98    3.58    16.06699    86.34005   202.17780
   251  C   4.0   -0.16    3.98    3.59    13.42333    85.90977   203.28559
   252  C   4.0   -0.07    3.98    3.58    11.64972    84.51557   201.49564
   253  N   5.0   -0.73    3.98    2.82    10.69008    86.25984   199.49972
   254  H   1.0    0.24    1.00    1.43    20.76850    92.40263   203.89027
   255  H   1.0    0.15    0.99    1.43    21.34859    86.87618   203.52184
   256  H   1.0    0.11    0.99    1.43    17.38806    87.74736   205.76814
   257  H   1.0    0.11    0.99    1.43    16.58520    90.13134   203.57249
   258  H   1.0    0.12    0.99    1.43    15.97315    87.05074   200.24599
   259  H   1.0    0.12    0.99    1.43    17.13333    84.57638   202.15317
   260  H   1.0    0.09    0.99    1.43    13.61967    84.81475   205.01617
   261  H   1.0    0.10    0.99    1.43    12.59688    87.72147   203.82174
   262  H   1.0    0.11    0.99    1.43    12.64798    82.95007   200.60416
   263  H   1.0    0.09    0.99    1.43    10.03644    83.77521   202.54091
   264  H   1.0    0.22    1.00    1.43     9.55941    85.30900   198.23823
   265  H   1.0    0.22    1.00    1.43     9.65367    87.69314   200.31590
   266  H   1.0    0.23    1.00    1.43    12.18036    87.06043   198.53429
   267  N   5.0   -0.50    3.01    1.93    21.25665    87.51812   198.72209
   268  C   4.0    0.08    3.99    3.61    21.84507    88.06556   196.09263
   269  C   4.0    0.26    3.01    3.02    21.64181    85.60725   194.58704
   270  O   6.0   -0.47    1.00    1.80    22.33690    83.59607   195.50280
   271  C   4.0   -0.08    3.98    3.58    24.49625    89.31379   195.90580
   272  C   4.0   -0.21    3.98    3.59    26.51916    87.68885   197.16778
   273  C   4.0   -0.24    3.98    3.59    25.20553    89.87282   193.17158
   274  H   1.0    0.28    1.00    1.43    21.65648    85.75705   199.36636
   275  H   1.0    0.11    0.99    1.43    20.44967    89.44187   195.42346
   276  H   1.0    0.12    0.99    1.43    24.33990    91.10708   196.92853
   277  H   1.0    0.08    0.99    1.43    28.37405    88.50081   196.82181
   278  H   1.0    0.11    0.99    1.43    26.22871    87.59199   199.20119
   279  H   1.0    0.13    0.99    1.43    26.48770    85.77429   196.41550
   280  H   1.0    0.08    0.99    1.43    26.88124    91.05775   193.11842
   281  H   1.0    0.10    0.99    1.43    25.62920    88.12259   192.18637
   282  H   1.0    0.09    0.99    1.43    23.68852    90.85954   192.20105
   283  N   5.0   -0.51    3.00    1.93    20.66008    85.79578   192.24815
   284  C   4.0    0.07    3.99    3.60    20.02202    83.51548   190.82639
   285  C   4.0    0.25    3.01    3.02    19.69023    83.89611   187.97429
   286  O   6.0   -0.42    1.00    1.80    17.66900    83.41549   186.92604
   287  C   4.0   -0.18    3.98    3.59    17.64280    82.30124   191.93492
   288  H   1.0    0.22    1.00    1.43    19.91377    87.45146   191.66290
   289  H   1.0    0.17    0.99    1.43    21.59117    82.18777   191.05894
   290  H   1.0    0.12    0.99    1.43    17.32772    80.46739   191.05990
   291  H   1.0    0.12    0.99    1.43    17.91189    82.00675   193.94903
   292  H   1.0    0.12    0.99    1.43    15.99627    83.47566   191.58454
   293  N   5.0   -0.32    3.03    1.93    21.67507    84.72983   186.65518
   294  C   4.0    0.07    4.03    3.68    21.58826    84.85928   183.91215
   295  C   4.0    0.27    3.01    3.02    21.98419    82.25483   182.68920
   296  O   6.0   -0.43    1.00    1.80    22.94359    80.45789   183.77405
   297  C   4.0   -0.15    4.01    3.65    23.85810    86.54328   183.26865
   298  C   4.0   -0.15    4.01    3.64    25.78572    85.71067   185.24923
   299  C   4.0   -0.04    4.02    3.65    24.17027    85.35369   187.61834
   300  H   1.0    0.11    0.99    1.43    19.76221    85.62127   183.31472
   301  H   1.0    0.10    0.99    1.43    24.52824    86.27367   181.34535
   302  H   1.0    0.09    0.99    1.43    23.35817    88.51979   183.54010
   303  H   1.0    0.12    0.99    1.43    26.62384    83.91603   184.68567
   304  H   1.0    0.08    0.99    1.43    27.28332    87.08492   185.54080
   305  H   1.0    0.14    0.99    1.43    24.85367    83.83591   188.83278
   306  H   1.0    0.10    0.99    1.43    24.05781    87.11886   188.68550
   307  N   5.0   -0.49    3.01    1.93    21.34077    82.21348   180.23307
   308  C   4.0    0.05    3.99    3.60    21.85905    80.13229   178.54204
   309  C   4.0    0.04    3.00    3.02    22.15411    81.21950   175.88519
   310  O   6.0   -0.44    1.00    1.80    20.92021    83.05125   175.18978
   311  C   4.0   -0.13    3.98    3.59    19.74580    78.13833   178.61985
   312  C   4.0   -0.10    3.98    3.59    17.12534    79.27498   178.21173
   313  C   4.0    0.26    3.00    3.02    15.14661    77.21666   177.92432
   314  O   6.0   -0.42    1.00    1.80    15.56401    75.19706   176.88340
   315  N   5.0   -0.66    3.00    1.93    12.84395    77.83168   178.80671
   316  H   1.0    0.25    1.00    1.43    20.53028    83.72943   179.39620
   317  H   1.0    0.11    0.99    1.43    23.61441    79.21433   179.12764
   318  H   1.0    0.11    0.99    1.43    20.12946    76.69449   177.19978
   319  H   1.0    0.12    0.99    1.43    19.80946    77.21519   180.46603
   320  H   1.0    0.12    0.99    1.43    16.64099    80.49617   179.79712
   321  H   1.0    0.13    0.99    1.43    17.11909    80.40343   176.48200
   322  H   1.0    0.25    1.00    1.43    12.55371    79.41448   179.81755
   323  H   1.0    0.27    1.00    1.43    11.46736    76.51712   178.75681
   324  H   1.0    0.32    1.00    1.43    30.96336    61.87401   196.91230
   325  H   1.0    0.11    1.00    1.43    34.37387    70.65519   220.67939
   326  H   1.0    0.31    1.00    1.43    33.14829    79.18191   217.21099
   327  H   1.0    0.13    1.00    1.43    29.29894    66.92142   186.93346
   328  H   1.0    0.28    1.00    1.43    25.75517    72.79779   179.46714
   329  H   1.0    0.12    1.00    1.43    26.88726    86.20715   215.41027
   330  H   1.0    0.28    1.00    1.43    25.49306    93.71044   210.69571
   331  H   1.0    0.11    1.00    1.43    23.37365    80.43511   174.67336

           ------------------------------------------------- 
          |        Self-Consistent Charge Iterations        |
           ------------------------------------------------- 

          ...................................................
          :                      SETUP                      :
          :.................................................:
          :  # basis functions                 817          :
          :  # atomic orbitals                 817          :
          :  # shells                          493          :
          :  # electrons                       908          :
          :  max. iterations                   250          :
          :  Hamiltonian                  GFN2-xTB          :
          :  restarted?                      false          :
          :  GBSA solvation                   true          :
          :  PC potential                    false          :
          :  electronic temp.          500.0000000     K    :
          :  accuracy                    0.1000000          :
          :  -> integral cutoff          0.3500000E+02      :
          :  -> integral neglect         0.1000000E-08      :
          :  -> SCF convergence          0.1000000E-06 Eh   :
          :  -> wf. convergence          0.1000000E-04 e    :
          :  Broyden damping             0.4000000          :
          ...................................................

 iter      E             dE          RMSdq      gap      omega  full diag
   1   -519.9274707 -0.519927E+03  0.433E+00    2.17       0.0  T
   2   -521.4939937 -0.156652E+01  0.221E+00    1.58       1.0  T
   3   -521.5512973 -0.573036E-01  0.122E+00    2.02       1.0  T
   4   -521.5690088 -0.177116E-01  0.318E-01    1.13       1.0  T
   5   -521.5846821 -0.156733E-01  0.136E-01    1.36       1.0  T
   6   -521.5853885 -0.706424E-03  0.676E-02    1.43       1.0  T
   7   -521.5855266 -0.138092E-03  0.294E-02    1.49       1.0  T
   8   -521.5856093 -0.826717E-04  0.129E-02    1.50       1.0  T
   9   -521.5856184 -0.912906E-05  0.659E-03    1.49       1.0  T
  10   -521.5856216 -0.316196E-05  0.227E-03    1.49       2.4  T
  11   -521.5856219 -0.314171E-06  0.936E-04    1.49       5.9  T
  12   -521.5856219 -0.356202E-07  0.419E-04    1.49      13.1  T
  13   -521.5856219 -0.155603E-07  0.182E-04    1.49      30.2  T
  14   -521.5856219 -0.237014E-08  0.778E-05    1.49      70.7  T
  15   -521.5856219 -0.641194E-09  0.295E-05    1.49     186.6  T

   *** convergence criteria satisfied after 15 iterations ***

         #    Occupation            Energy/Eh            Energy/eV
      -------------------------------------------------------------
         1        2.0000           -0.7441293             -20.2488
       ...           ...                  ...                  ...
       448        2.0000           -0.3770080             -10.2589
       449        2.0000           -0.3711463             -10.0994
       450        2.0000           -0.3670200              -9.9871
       451        2.0000           -0.3669922              -9.9864
       452        2.0000           -0.3623669              -9.8605
       453        2.0000           -0.3578046              -9.7364
       454        2.0000           -0.3570177              -9.7149 (HOMO)
       455                         -0.3023383              -8.2270 (LUMO)
       456                         -0.3014375              -8.2025
       457                         -0.2881138              -7.8400
       458                         -0.2854815              -7.7683
       459                         -0.2455812              -6.6826
       ...                                ...                  ...
       817                          0.6731890              18.3184
      -------------------------------------------------------------
                  HL-Gap            0.0546794 Eh            1.4879 eV
             Fermi-level           -0.3296386 Eh           -8.9699 eV

 SCC (total)                   0 d,  0 h,  0 min,  9.476 sec
 SCC setup                      ...        0 min,  0.147 sec (  1.554%)
 Dispersion                     ...        0 min,  0.104 sec (  1.096%)
 integral evaluation            ...        0 min,  0.484 sec (  5.113%)
 zeroth order Hamiltonian       ...        0 min,  0.014 sec (  0.144%)
 iterations                     ...        0 min,  6.542 sec ( 69.036%)
 molecular gradient             ...        0 min,  2.132 sec ( 22.496%)
 printout                       ...        0 min,  0.053 sec (  0.559%)

         :::::::::::::::::::::::::::::::::::::::::::::::::::::
         ::                     SUMMARY                     ::
         :::::::::::::::::::::::::::::::::::::::::::::::::::::
         :: total energy             -515.373851472162 Eh   ::
         :: total w/o Gsasa/hb       -515.306989821206 Eh   ::
         :: gradient norm               0.451695301106 Eh/α ::
         :: HOMO-LUMO gap               1.487901916340 eV   ::
         ::.................................................::
         :: SCC energy               -521.597973586274 Eh   ::
         :: -> isotropic ES             2.452598185935 Eh   ::
         :: -> anisotropic ES          -0.161532483360 Eh   ::
         :: -> anisotropic XC           0.156622670163 Eh   ::
         :: -> dispersion              -0.424392404767 Eh   ::
         :: -> Gsolv                   -1.044886920806 Eh   ::
         ::    -> Gborn                -0.978025269850 Eh   ::
         ::    -> Gsasa                -0.014209093264 Eh   ::
         ::    -> Ghb                  -0.054510000819 Eh   ::
         ::    -> Gshift                0.001857443127 Eh   ::
         :: repulsion energy            6.190423766702 Eh   ::
         :: add. restraining            0.000000000000 Eh   ::
         :::::::::::::::::::::::::::::::::::::::::::::::::::::

           -------------------------------------------------
          |                Property Printout                |
           -------------------------------------------------

    * Orbital Energies and Occupations

         #    Occupation            Energy/Eh            Energy/eV
      -------------------------------------------------------------
         1        2.0000           -0.7441293             -20.2488
       ...           ...                  ...                  ...
       442        2.0000           -0.3925698             -10.6824
       443        2.0000           -0.3913265             -10.6485
       444        2.0000           -0.3913188             -10.6483
       445        2.0000           -0.3878598             -10.5542
       446        2.0000           -0.3798825             -10.3371
       447        2.0000           -0.3784749             -10.2988
       448        2.0000           -0.3770080             -10.2589
       449        2.0000           -0.3711463             -10.0994
       450        2.0000           -0.3670200              -9.9871
       451        2.0000           -0.3669922              -9.9864
       452        2.0000           -0.3623669              -9.8605
       453        2.0000           -0.3578046              -9.7364
       454        2.0000           -0.3570177              -9.7149 (HOMO)
       455                         -0.3023383              -8.2270 (LUMO)
       456                         -0.3014375              -8.2025
       457                         -0.2881138              -7.8400
       458                         -0.2854815              -7.7683
       459                         -0.2455812              -6.6826
       460                         -0.2439304              -6.6377
       461                         -0.2417662              -6.5788
       462                         -0.2403490              -6.5402
       463                         -0.2380944              -6.4789
       464                         -0.2374948              -6.4626
       465                         -0.2339727              -6.3667
       ...                                ...                  ...
       817                          0.6731890              18.3184
      -------------------------------------------------------------
                  HL-Gap            0.0546794 Eh            1.4879 eV
             Fermi-level           -0.3296386 Eh           -8.9699 eV

   #   Z        covCN         q      C6AA      α(0)
   1   7 N      2.637    -0.410    30.662     8.224
   2   6 C      3.792     0.074    19.352     6.265
   3   6 C      2.758     0.276    22.325     7.738
   4   8 O      0.858    -0.490    23.554     6.507
   5   6 C      3.807    -0.066    21.751     6.639
   6   6 C      2.686     0.375    20.647     7.436
   7   8 O      0.856    -0.640    27.131     6.984
   8   8 O      0.856    -0.621    26.640     6.920
   9   1 H      0.859     0.183     1.197     1.714
  10   1 H      0.924    -0.004     3.125     2.764
  11   1 H      0.924    -0.016     3.355     2.864
  12   1 H      0.924    -0.014     3.318     2.848
  13   7 N      2.699    -0.208    25.520     7.503
  14   6 C      3.795     0.043    19.855     6.345
  15   6 C      2.764     0.276    22.331     7.739
  16   8 O      0.859    -0.472    23.168     6.453
  17   6 C      3.812    -0.068    21.790     6.644
  18   6 C      2.970     0.009    27.820     8.652
  19   6 C      2.925    -0.036    28.895     8.815
  20   6 C      2.923    -0.040    28.984     8.829
  21   6 C      2.920    -0.032    28.807     8.802
  22   6 C      2.921    -0.035    28.880     8.813
  23   6 C      2.920    -0.039    28.960     8.825
  24   1 H      0.860     0.207     1.071     1.621
  25   1 H      0.924     0.042     2.418     2.432
  26   1 H      0.924     0.048     2.348     2.396
  27   1 H      0.924     0.069     2.091     2.261
  28   1 H      0.926     0.025     2.663     2.552
  29   1 H      0.926     0.014     2.820     2.626
  30   1 H      0.926     0.054     2.275     2.359
  31   1 H      0.926     0.066     2.129     2.282
  32   1 H      0.926     0.076     2.019     2.222
  33   7 N      2.689    -0.172    24.725     7.385
  34   6 C      3.799     0.028    20.112     6.385
  35   6 C      2.753     0.273    22.390     7.748
  36   8 O      0.858    -0.492    23.602     6.514
  37   6 C      3.803    -0.038    21.252     6.563
  38   6 C      3.797    -0.089    22.201     6.709
  39   6 C      2.684     0.370    20.722     7.449
  40   8 O      0.856    -0.659    27.603     7.044
  41   8 O      0.856    -0.637    27.035     6.971
  42   1 H      0.860     0.185     1.185     1.705
  43   1 H      0.924     0.068     2.112     2.273
  44   1 H      0.924     0.048     2.346     2.395
  45   1 H      0.924     0.001     3.040     2.727
  46   1 H      0.924    -0.006     3.169     2.784
  47   1 H      0.924     0.043     2.414     2.430
  48   7 N      2.698    -0.168    24.627     7.370
  49   6 C      3.788     0.020    20.245     6.408
  50   6 C      2.766     0.195    23.829     7.994
  51   8 O      0.856    -0.375    21.197     6.173
  52   6 C      3.807    -0.081    22.044     6.684
  53   6 C      3.801    -0.079    22.005     6.679
  54   6 C      3.802    -0.098    22.377     6.735
  55   6 C      3.731    -0.053    21.617     6.637
  56   7 N      3.483    -0.148    24.201     7.306
  57   1 H      0.860     0.226     0.982     1.552
  58   1 H      0.924     0.099     1.795     2.095
  59   1 H      0.925     0.079     1.987     2.205
  60   1 H      0.924     0.074     2.044     2.236
  61   1 H      0.924     0.061     2.190     2.314
  62   1 H      0.925     0.070     2.085     2.258
  63   1 H      0.925     0.084     1.935     2.175
  64   1 H      0.925     0.099     1.795     2.095
  65   1 H      0.924     0.123     1.586     1.969
  66   1 H      0.925     0.106     1.735     2.060
  67   1 H      0.859     0.305     0.700     1.311
  68   1 H      0.859     0.300     0.712     1.322
  69   1 H      0.859     0.305     0.698     1.309
  70   7 N      2.637    -0.389    30.079     8.145
  71   6 C      3.787     0.042    19.886     6.352
  72   6 C      2.759     0.273    22.392     7.749
  73   8 O      0.858    -0.479    23.326     6.475
  74   6 C      3.811    -0.111    22.613     6.769
  75   6 C      2.743     0.289    22.099     7.697
  76   8 O      0.859    -0.490    23.566     6.509
  77   7 N      2.638    -0.287    27.406     7.775
  78   1 H      0.860     0.161     1.327     1.804
  79   1 H      0.924     0.043     2.404     2.425
  80   1 H      0.925     0.071     2.076     2.253
  81   1 H      0.924     0.071     2.070     2.250
  82   1 H      0.860     0.246     0.899     1.485
  83   1 H      0.860     0.241     0.920     1.502
  84   7 N      2.689    -0.188    25.071     7.436
  85   6 C      3.796     0.027    20.132     6.389
  86   6 C      2.757     0.281    22.251     7.724
  87   8 O      0.858    -0.476    23.269     6.467
  88   6 C      3.679     0.087    19.338     6.299
  89   8 O      1.656    -0.507    23.044     6.480
  90   1 H      0.860     0.229     0.970     1.542
  91   1 H      0.924     0.066     2.125     2.280
  92   1 H      0.923     0.027     2.633     2.538
  93   1 H      0.923     0.053     2.281     2.362
  94   1 H      0.805     0.330     0.637     1.254
  95   7 N      2.692    -0.156    24.383     7.334
  96   6 C      3.794     0.027    20.127     6.389
  97   6 C      2.760     0.281    22.238     7.723
  98   8 O      0.858    -0.521    24.255     6.603
  99   6 C      3.808    -0.069    21.818     6.649
 100   6 C      3.848    -0.011    20.746     6.479
 101   6 C      3.756    -0.121    22.868     6.818
 102   6 C      3.758    -0.129    23.029     6.842
 103   1 H      0.860     0.211     1.050     1.605
 104   1 H      0.924     0.079     1.990     2.206
 105   1 H      0.924     0.043     2.413     2.429
 106   1 H      0.924     0.052     2.291     2.367
 107   1 H      0.924     0.039     2.458     2.452
 108   1 H      0.925     0.068     2.110     2.272
 109   1 H      0.925     0.024     2.668     2.554
 110   1 H      0.925     0.050     2.317     2.380
 111   1 H      0.925     0.073     2.056     2.242
 112   1 H      0.925     0.052     2.295     2.369
 113   1 H      0.925     0.048     2.344     2.394
 114   7 N      2.690    -0.209    25.541     7.506
 115   6 C      3.798     0.060    19.575     6.300
 116   6 C      2.758     0.277    22.309     7.735
 117   8 O      0.858    -0.482    23.400     6.486
 118   6 C      3.800    -0.070    21.837     6.653
 119   6 C      2.683     0.372    20.688     7.443
 120   8 O      0.856    -0.638    27.061     6.974
 121   8 O      0.856    -0.650    27.372     7.014
 122   1 H      0.860     0.244     0.908     1.492
 123   1 H      0.924     0.027     2.627     2.535
 124   1 H      0.924     0.009     2.902     2.664
 125   1 H      0.924     0.006     2.959     2.690
 126   7 N      2.690    -0.147    24.175     7.302
 127   6 C      3.791     0.031    20.067     6.380
 128   6 C      2.770     0.205    23.655     7.965
 129   8 O      0.856    -0.375    21.197     6.173
 130   6 C      3.855    -0.016    20.831     6.491
 131   6 C      3.801    -0.061    21.677     6.629
 132   6 C      3.755    -0.126    22.979     6.835
 133   6 C      3.751    -0.110    22.672     6.790
 134   1 H      0.860     0.184     1.194     1.711
 135   1 H      0.924     0.096     1.826     2.113
 136   1 H      0.924     0.040     2.445     2.445
 137   1 H      0.924     0.009     2.904     2.665
 138   1 H      0.924     0.070     2.090     2.261
 139   1 H      0.925     0.083     1.950     2.184
 140   1 H      0.925     0.044     2.400     2.422
 141   1 H      0.925     0.067     2.119     2.277
 142   1 H      0.925     0.053     2.288     2.365
 143   1 H      0.925     0.069     2.100     2.266
 144   1 H      0.925     0.022     2.701     2.570
 145   7 N      2.637    -0.382    29.886     8.119
 146   6 C      3.785     0.032    20.046     6.377
 147   6 C      2.757     0.273    22.389     7.748
 148   8 O      0.858    -0.516    24.134     6.587
 149   6 C      3.754    -0.105    22.570     6.774
 150   1 H      0.860     0.155     1.366     1.831
 151   1 H      0.924     0.059     2.214     2.327
 152   1 H      0.925     0.011     2.876     2.652
 153   1 H      0.925     0.060     2.196     2.317
 154   1 H      0.925     0.028     2.620     2.531
 155   7 N      2.694    -0.185    25.007     7.427
 156   6 C      3.797     0.033    20.027     6.372
 157   6 C      2.765     0.277    22.308     7.735
 158   8 O      0.859    -0.465    23.021     6.433
 159   6 C      3.815    -0.073    21.892     6.659
 160   6 C      2.971     0.005    27.905     8.665
 161   6 C      2.927    -0.042    29.032     8.836
 162   6 C      2.926    -0.042    29.036     8.837
 163   6 C      2.919    -0.035    28.882     8.813
 164   6 C      2.920    -0.038    28.953     8.824
 165   6 C      2.922    -0.041    29.025     8.835
 166   1 H      0.860     0.226     0.984     1.554
 167   1 H      0.924     0.052     2.300     2.372
 168   1 H      0.924     0.065     2.141     2.288
 169   1 H      0.924     0.070     2.083     2.257
 170   1 H      0.926     0.026     2.651     2.546
 171   1 H      0.926     0.039     2.468     2.457
 172   1 H      0.926     0.039     2.456     2.451
 173   1 H      0.926     0.061     2.182     2.310
 174   1 H      0.926     0.058     2.223     2.332
 175   7 N      2.692    -0.185    25.016     7.428
 176   6 C      3.799     0.027    20.119     6.387
 177   6 C      2.766     0.272    22.402     7.751
 178   8 O      0.859    -0.523    24.293     6.608
 179   6 C      3.807    -0.030    21.110     6.540
 180   6 C      3.798    -0.074    21.921     6.666
 181   6 C      2.685     0.372    20.703     7.446
 182   8 O      0.856    -0.632    26.910     6.955
 183   8 O      0.856    -0.676    28.063     7.102
 184   1 H      0.860     0.197     1.121     1.659
 185   1 H      0.924     0.096     1.823     2.112
 186   1 H      0.924    -0.005     3.138     2.770
 187   1 H      0.924     0.038     2.480     2.463
 188   1 H      0.924     0.033     2.551     2.498
 189   1 H      0.924    -0.007     3.181     2.789
 190   7 N      2.689    -0.167    24.623     7.370
 191   6 C      3.801     0.020    20.234     6.404
 192   6 C      2.755     0.267    22.487     7.765
 193   8 O      0.858    -0.464    23.001     6.430
 194   6 C      3.756    -0.124    22.940     6.829
 195   1 H      0.860     0.248     0.892     1.480
 196   1 H      0.924     0.060     2.194     2.316
 197   1 H      0.925     0.075     2.030     2.228
 198   1 H      0.925     0.069     2.102     2.267
 199   1 H      0.925     0.077     2.014     2.219
 200   7 N      2.697    -0.180    24.895     7.410
 201   6 C      3.794     0.023    20.189     6.398
 202   6 C      2.766     0.271    22.416     7.754
 203   8 O      0.858    -0.508    23.955     6.562
 204   6 C      3.754    -0.123    22.920     6.826
 205   1 H      0.860     0.204     1.084     1.631
 206   1 H      0.924     0.083     1.951     2.184
 207   1 H      0.925     0.076     2.020     2.222
 208   1 H      0.925     0.067     2.120     2.277
 209   1 H      0.925     0.044     2.396     2.421
 210   7 N      2.692    -0.151    24.263     7.316
 211   6 C      3.797     0.024    20.176     6.396
 212   6 C      2.768     0.198    23.778     7.986
 213   8 O      0.856    -0.365    21.002     6.144
 214   6 C      3.853    -0.029    21.062     6.527
 215   6 C      3.802    -0.061    21.663     6.626
 216   6 C      3.755    -0.114    22.728     6.798
 217   6 C      3.752    -0.116    22.773     6.805
 218   1 H      0.860     0.236     0.942     1.520
 219   1 H      0.924     0.080     1.975     2.198
 220   1 H      0.925     0.079     1.992     2.207
 221   1 H      0.924     0.053     2.288     2.365
 222   1 H      0.924     0.029     2.600     2.522
 223   1 H      0.925     0.064     2.151     2.293
 224   1 H      0.925     0.024     2.666     2.553
 225   1 H      0.925     0.045     2.380     2.413
 226   1 H      0.925     0.049     2.335     2.390
 227   1 H      0.925     0.046     2.370     2.408
 228   1 H      0.925     0.051     2.310     2.377
 229   7 N      2.636    -0.389    30.063     8.143
 230   6 C      3.788     0.023    20.206     6.402
 231   6 C      2.750     0.274    22.366     7.744
 232   8 O      0.858    -0.502    23.818     6.543
 233   6 C      3.849    -0.023    20.954     6.511
 234   6 C      3.755    -0.109    22.641     6.785
 235   6 C      3.754    -0.121    22.882     6.821
 236   1 H      0.860     0.152     1.386     1.844
 237   1 H      0.923     0.043     2.404     2.425
 238   1 H      0.924     0.045     2.385     2.415
 239   1 H      0.925     0.049     2.337     2.391
 240   1 H      0.925     0.044     2.396     2.420
 241   1 H      0.925     0.028     2.619     2.531
 242   1 H      0.925     0.055     2.258     2.350
 243   1 H      0.925     0.040     2.446     2.446
 244   1 H      0.925     0.044     2.400     2.423
 245   7 N      2.699    -0.180    24.891     7.410
 246   6 C      3.789     0.011    20.399     6.433
 247   6 C      2.761     0.269    22.466     7.762
 248   8 O      0.858    -0.472    23.163     6.453
 249   6 C      3.808    -0.078    21.985     6.675
 250   6 C      3.801    -0.079    22.003     6.678
 251   6 C      3.804    -0.095    22.313     6.725
 252   6 C      3.730    -0.050    21.573     6.630
 253   7 N      3.483    -0.146    24.146     7.298
 254   1 H      0.860     0.214     1.036     1.594
 255   1 H      0.924     0.070     2.085     2.258
 256   1 H      0.924     0.059     2.216     2.328
 257   1 H      0.924     0.072     2.067     2.248
 258   1 H      0.924     0.051     2.305     2.374
 259   1 H      0.924     0.048     2.342     2.393
 260   1 H      0.925     0.080     1.976     2.198
 261   1 H      0.924     0.093     1.854     2.130
 262   1 H      0.925     0.105     1.742     2.064
 263   1 H      0.925     0.122     1.597     1.976
 264   1 H      0.859     0.300     0.714     1.324
 265   1 H      0.859     0.307     0.693     1.304
 266   1 H      0.859     0.290     0.745     1.352
 267   7 N      2.690    -0.167    24.608     7.367
 268   6 C      3.796     0.009    20.427     6.436
 269   6 C      2.757     0.278    22.299     7.733
 270   8 O      0.858    -0.485    23.447     6.492
 271   6 C      3.849    -0.018    20.857     6.496
 272   6 C      3.755    -0.114    22.735     6.799
 273   6 C      3.755    -0.129    23.038     6.844
 274   1 H      0.860     0.208     1.065     1.617
 275   1 H      0.924     0.083     1.947     2.182
 276   1 H      0.924     0.064     2.152     2.294
 277   1 H      0.925     0.059     2.208     2.324
 278   1 H      0.925     0.032     2.554     2.499
 279   1 H      0.925     0.039     2.460     2.453
 280   1 H      0.925     0.069     2.098     2.265
 281   1 H      0.925     0.041     2.430     2.438
 282   1 H      0.925     0.052     2.291     2.367
 283   7 N      2.686    -0.174    24.764     7.391
 284   6 C      3.793     0.015    20.324     6.420
 285   6 C      2.760     0.258    22.652     7.794
 286   8 O      0.859    -0.513    24.077     6.579
 287   6 C      3.756    -0.109    22.631     6.783
 288   1 H      0.860     0.218     1.021     1.583
 289   1 H      0.924     0.088     1.899     2.155
 290   1 H      0.925     0.023     2.684     2.562
 291   1 H      0.925     0.049     2.332     2.388
 292   1 H      0.925     0.076     2.020     2.223
 293   7 N      2.759    -0.072    22.626     7.065
 294   6 C      3.836     0.012    20.349     6.418
 295   6 C      2.752     0.279    22.281     7.729
 296   8 O      0.858    -0.490    23.564     6.508
 297   6 C      3.836    -0.078    21.960     6.667
 298   6 C      3.834    -0.069    21.794     6.642
 299   6 C      3.769    -0.016    20.903     6.516
 300   1 H      0.924     0.078     1.997     2.210
 301   1 H      0.925     0.068     2.108     2.271
 302   1 H      0.925     0.088     1.898     2.155
 303   1 H      0.925     0.048     2.342     2.393
 304   1 H      0.925     0.082     1.957     2.188
 305   1 H      0.924     0.067     2.116     2.275
 306   1 H      0.924     0.074     2.040     2.234
 307   7 N      2.694    -0.173    24.739     7.387
 308   6 C      3.789     0.026    20.156     6.394
 309   6 C      2.769     0.197    23.802     7.990
 310   8 O      0.856    -0.342    20.558     6.079
 311   6 C      3.805    -0.055    21.561     6.610
 312   6 C      3.807    -0.101    22.420     6.740
 313   6 C      2.745     0.291    22.066     7.692
 314   8 O      0.859    -0.507    23.946     6.561
 315   7 N      2.639    -0.294    27.592     7.801
 316   1 H      0.860     0.223     0.997     1.564
 317   1 H      0.924     0.082     1.957     2.188
 318   1 H      0.924     0.068     2.110     2.272
 319   1 H      0.924     0.051     2.308     2.376
 320   1 H      0.925     0.067     2.114     2.273
 321   1 H      0.924     0.092     1.864     2.135
 322   1 H      0.860     0.233     0.954     1.530
 323   1 H      0.860     0.229     0.971     1.543
 324   1 H      0.862     0.162     1.319     1.799
 325   1 H      0.930     0.097     1.816     2.107
 326   1 H      0.862     0.197     1.123     1.660
 327   1 H      0.930     0.084     1.937     2.176
 328   1 H      0.862     0.194     1.135     1.669
 329   1 H      0.930     0.084     1.937     2.176
 330   1 H      0.862     0.180     1.214     1.726
 331   1 H      0.930     0.092     1.857     2.131

 Mol. C6AA /au·bohr⁶  :    1029975.109239
 Mol. C8AA /au·bohr⁸  :   22898798.871984
 Mol. α(0) /au        :       1517.860731


Wiberg/Mayer (AO) data.
largest (>0.10) Wiberg bond orders for each atom
          total WBO             WBO to atom ...
     1  N   2.987        C    2 1.029    H  324 0.962    H    9 0.902
     2  C   3.987        N    1 1.029    C    5 0.960    H   10 0.944    C    3 0.938
     3  C   3.947        O    4 1.641    N   13 1.291    C    2 0.938
     4  O   1.946        C    3 1.641    N   13 0.191
     5  C   3.985        H   11 0.978    H   12 0.968    C    2 0.960    C    6 0.919
     6  C   3.935        O    7 1.512    O    8 1.477    C    5 0.919
     7  O   1.801        C    6 1.512    O    8 0.211
     8  O   1.834        C    6 1.477    O    7 0.211
     9  H   0.966        N    1 0.902
    10  H   1.000        C    2 0.944
    11  H   1.000        C    5 0.978
    12  H   1.000        C    5 0.968
    13  N   3.440        C    3 1.291    C   14 0.958    H   24 0.890    O    4 0.191
    14  C   3.947        H   25 0.961    N   13 0.958    C   17 0.954    C   15 0.941
    15  C   3.943        O   16 1.606    N   33 1.306    C   14 0.941
    16  O   1.962        C   15 1.606    N   33 0.192
    17  C   3.975        C   18 1.007    H   26 0.972    H   27 0.958    C   14 0.954
    18  C   3.982        C   19 1.415    C   20 1.408    C   17 1.007    C   23 0.110
    19  C   3.989        C   21 1.441    C   18 1.415    H   28 0.969    C   22 0.110
    20  C   3.988        C   22 1.446    C   18 1.408    H   29 0.968    C   21 0.112
    21  C   3.988        C   19 1.441    C   23 1.440    H   30 0.969    C   20 0.112
    22  C   3.986        C   20 1.446    C   23 1.435    H   31 0.965    C   19 0.110
    23  C   3.986        C   21 1.440    C   22 1.435    H   32 0.966    C   18 0.110
    24  H   0.957        N   13 0.890
    25  H   0.998        C   14 0.961
    26  H   0.997        C   17 0.972
    27  H   0.995        C   17 0.958
    28  H   0.999        C   19 0.969
    29  H   1.000        C   20 0.968
    30  H   0.997        C   21 0.969
    31  H   0.995        C   22 0.965
    32  H   0.994        C   23 0.966
    33  N   3.483        C   15 1.306    C   34 0.972    H   42 0.934    O   16 0.192
    34  C   3.955        C   37 0.975    N   33 0.972    H   43 0.948    C   35 0.929
    35  C   3.957        O   36 1.629    N   48 1.324    C   34 0.929
    36  O   1.956        C   35 1.629    N   48 0.207
    37  C   3.994        C   38 1.011    H   45 0.977    C   34 0.975    H   44 0.965
    38  C   3.989        C   37 1.011    H   46 0.982    H   47 0.958    C   39 0.912
    39  C   3.933        O   40 1.501    O   41 1.497    C   38 0.912
    40  O   1.786        C   39 1.501    O   41 0.213
    41  O   1.793        C   39 1.497    O   40 0.213
    42  H   0.965        N   33 0.934
    43  H   0.995        C   34 0.948
    44  H   0.997        C   37 0.965
    45  H   0.999        C   37 0.977
    46  H   1.000        C   38 0.982
    47  H   0.998        C   38 0.958
    48  N   3.476        C   35 1.324    C   49 0.970    H   57 0.892    O   36 0.207
    49  C   3.943        C   50 0.981    N   48 0.970    C   52 0.945    H   58 0.939
    50  C   3.893        O   51 1.898    C   49 0.981    H  325 0.949
    51  O   2.043        C   50 1.898
    52  C   3.967        C   53 1.004    H   60 0.969    H   59 0.965    C   49 0.945
    53  C   3.986        C   52 1.004    C   54 1.003    H   61 0.974    H   62 0.973
    54  C   3.983        C   55 1.011    C   53 1.003    H   63 0.970    H   64 0.968
    55  C   3.918        C   54 1.011    H   65 0.963    H   66 0.963    N   56 0.961
    56  N   3.663        C   55 0.961    H   68 0.895    H   67 0.894    H   69 0.892
    57  H   0.949        N   48 0.892
    58  H   0.990        C   49 0.939
    59  H   0.994        C   52 0.965
    60  H   0.995        C   52 0.969
    61  H   0.996        C   53 0.974
    62  H   0.995        C   53 0.973
    63  H   0.993        C   54 0.970
    64  H   0.990        C   54 0.968
    65  H   0.985        C   55 0.963
    66  H   0.989        C   55 0.963
    67  H   0.907        N   56 0.894
    68  H   0.910        N   56 0.895
    69  H   0.907        N   56 0.892
    70  N   2.991        C   71 1.025    H   78 0.952    H  326 0.944
    71  C   3.986        N   70 1.025    C   74 0.956    H   79 0.952    C   72 0.943
    72  C   3.932        O   73 1.622    N   84 1.291    C   71 0.943
    73  O   1.967        C   72 1.622    N   84 0.188
    74  C   3.990        H   80 0.970    C   75 0.961    C   71 0.956    H   81 0.949
    75  C   3.951        O   76 1.638    N   77 1.316    C   74 0.961
    76  O   1.964        C   75 1.638    N   77 0.202
    77  N   3.396        C   75 1.316    H   83 0.922    H   82 0.918    O   76 0.202
    78  H   0.974        N   70 0.952
    79  H   0.998        C   71 0.952
    80  H   0.995        C   74 0.970
    81  H   0.995        C   74 0.949
    82  H   0.939        N   77 0.918
    83  H   0.942        N   77 0.922
    84  N   3.460        C   72 1.291    C   85 1.000    H   90 0.886    O   73 0.188
    85  C   3.976        N   84 1.000    C   88 0.966    H   91 0.950    C   86 0.927
    86  C   3.950        O   87 1.602    N   95 1.335    C   85 0.927
    87  O   1.952        C   86 1.602    N   95 0.197
    88  C   3.943        O   89 0.987    H   92 0.970    C   85 0.966    H   93 0.966
    89  O   1.918        C   88 0.987    H   94 0.876
    90  H   0.947        N   84 0.886
    91  H   0.995        C   85 0.950
    92  H   0.999        C   88 0.970
    93  H   0.997        C   88 0.966
    94  H   0.890        O   89 0.876
    95  N   3.503        C   86 1.335    C   96 0.986    H  103 0.895    O   87 0.197
    96  C   3.957        N   95 0.986    C   99 0.952    H  104 0.945    C   97 0.941
    97  C   3.926        O   98 1.599    N  114 1.292    C   96 0.941
    98  O   1.957        C   97 1.599    N  114 0.178
    99  C   3.973        C  100 0.983    H  105 0.975    H  106 0.972    C   96 0.952
   100  C   3.986        C  101 1.010    C  102 1.007    C   99 0.983    H  107 0.967
   101  C   3.993        C  100 1.010    H  109 0.985    H  110 0.984    H  108 0.983
   102  C   3.989        C  100 1.007    H  112 0.986    H  111 0.982    H  113 0.976
   103  H   0.955        N   95 0.895
   104  H   0.993        C   96 0.945
   105  H   0.998        C   99 0.975
   106  H   0.997        C   99 0.972
   107  H   0.998        C  100 0.967
   108  H   0.995        C  101 0.983
   109  H   0.999        C  101 0.985
   110  H   0.997        C  101 0.984
   111  H   0.994        C  102 0.982
   112  H   0.997        C  102 0.986
   113  H   0.998        C  102 0.976
   114  N   3.428        C   97 1.292    C  115 0.989    H  122 0.858    O   98 0.178
   115  C   3.975        N  114 0.989    C  118 0.969    H  123 0.945    C  116 0.942
   116  C   3.953        O  117 1.594    N  126 1.331    C  115 0.942
   117  O   1.948        C  116 1.594    N  126 0.195
   118  C   3.985        H  124 0.974    C  115 0.969    H  125 0.963    C  119 0.907
   119  C   3.933        O  121 1.505    O  120 1.497    C  118 0.907
   120  O   1.798        C  119 1.497    O  121 0.215
   121  O   1.797        C  119 1.505    O  120 0.215
   122  H   0.940        N  114 0.858
   123  H   0.999        C  115 0.945
   124  H   0.999        C  118 0.974
   125  H   1.000        C  118 0.963
   126  N   3.502        C  116 1.331    C  127 0.967    H  134 0.928    O  117 0.195
   127  C   3.941        C  128 0.976    N  126 0.967    H  135 0.953    C  130 0.926
   128  C   3.892        O  129 1.897    C  127 0.976    H  327 0.952
   129  O   2.040        C  128 1.897
   130  C   3.975        C  132 1.007    C  131 0.991    H  136 0.966    C  127 0.926
   131  C   3.993        C  133 1.020    C  130 0.991    H  137 0.977    H  138 0.970
   132  C   3.987        C  130 1.007    H  140 0.985    H  141 0.981    H  139 0.980
   133  C   3.993        C  131 1.020    H  144 0.985    H  142 0.985    H  143 0.982
   134  H   0.966        N  126 0.928
   135  H   0.991        C  127 0.953
   136  H   0.998        C  130 0.966
   137  H   1.000        C  131 0.977
   138  H   0.995        C  131 0.970
   139  H   0.992        C  132 0.980
   140  H   0.998        C  132 0.985
   141  H   0.996        C  132 0.981
   142  H   0.997        C  133 0.985
   143  H   0.995        C  133 0.982
   144  H   1.000        C  133 0.985
   145  N   2.991        C  146 1.022    H  150 0.957    H  328 0.948
   146  C   3.986        N  145 1.022    C  149 0.983    H  151 0.952    C  147 0.941
   147  C   3.938        O  148 1.623    N  155 1.307    C  146 0.941
   148  O   1.935        C  147 1.623    N  155 0.194
   149  C   3.994        H  154 0.987    H  152 0.987    C  146 0.983    H  153 0.980
   150  H   0.976        N  145 0.957
   151  H   0.997        C  146 0.952
   152  H   1.000        C  149 0.987
   153  H   0.996        C  149 0.980
   154  H   0.999        C  149 0.987
   155  N   3.469        C  147 1.307    C  156 0.978    H  166 0.902    O  148 0.194
   156  C   3.962        N  155 0.978    H  167 0.958    C  159 0.948    C  157 0.943
   157  C   3.944        O  158 1.621    N  175 1.295    C  156 0.943
   158  O   1.964        C  157 1.621    N  175 0.190
   159  C   3.982        C  160 1.008    H  169 0.968    H  168 0.967    C  156 0.948
   160  C   3.986        C  161 1.413    C  162 1.413    C  159 1.008    C  165 0.110
   161  C   3.991        C  163 1.446    C  160 1.413    H  170 0.966    C  164 0.111
   162  C   3.988        C  164 1.444    C  160 1.413    H  171 0.966    C  163 0.111
   163  C   3.991        C  161 1.446    C  165 1.437    H  172 0.968    C  162 0.111
   164  C   3.989        C  162 1.444    C  165 1.438    H  173 0.965    C  161 0.111
   165  C   3.989        C  164 1.438    C  163 1.437    H  174 0.962    C  160 0.110
   166  H   0.949        N  155 0.902
   167  H   0.997        C  156 0.958
   168  H   0.995        C  159 0.967
   169  H   0.995        C  159 0.968
   170  H   0.999        C  161 0.966
   171  H   0.998        C  162 0.966
   172  H   0.998        C  163 0.968
   173  H   0.996        C  164 0.965
   174  H   0.996        C  165 0.962
   175  N   3.464        C  157 1.295    C  176 0.981    H  184 0.904    O  158 0.190
   176  C   3.962        N  175 0.981    C  179 0.963    H  185 0.947    C  177 0.944
   177  C   3.947        O  178 1.568    N  190 1.353    C  176 0.944
   178  O   1.956        C  177 1.568    N  190 0.198
   179  C   3.992        C  180 1.001    H  187 0.974    H  186 0.973    C  176 0.963
   180  C   3.992        C  179 1.001    H  189 0.979    H  188 0.974    C  181 0.911
   181  C   3.929        O  182 1.505    O  183 1.492    C  180 0.911
   182  O   1.793        C  181 1.505    O  183 0.216
   183  O   1.779        C  181 1.492    O  182 0.216
   184  H   0.961        N  175 0.904
   185  H   0.990        C  176 0.947
   186  H   1.000        C  179 0.973
   187  H   0.998        C  179 0.974
   188  H   0.999        C  180 0.974
   189  H   1.000        C  180 0.979
   190  N   3.492        C  177 1.353    C  191 0.972    H  195 0.877    O  178 0.198
   191  C   3.953        C  194 0.974    N  190 0.972    H  196 0.947    C  192 0.941
   192  C   3.954        O  193 1.620    N  200 1.311    C  191 0.941
   193  O   1.959        C  192 1.620    N  200 0.196
   194  C   3.980        H  199 0.980    H  198 0.980    H  197 0.976    C  191 0.974
   195  H   0.938        N  190 0.877
   196  H   0.996        C  191 0.947
   197  H   0.994        C  194 0.976
   198  H   0.995        C  194 0.980
   199  H   0.994        C  194 0.980
   200  N   3.478        C  192 1.311    C  201 0.966    H  205 0.905    O  193 0.196
   201  C   3.957        C  204 0.994    N  200 0.966    H  206 0.955    C  202 0.933
   202  C   3.950        O  203 1.592    N  210 1.343    C  201 0.933
   203  O   1.953        C  202 1.592    N  210 0.203
   204  C   3.987        C  201 0.994    H  209 0.985    H  208 0.982    H  207 0.980
   205  H   0.958        N  200 0.905
   206  H   0.993        C  201 0.955
   207  H   0.994        C  204 0.980
   208  H   0.995        C  204 0.982
   209  H   0.998        C  204 0.985
   210  N   3.508        C  202 1.343    C  211 0.986    H  218 0.896    O  203 0.203
   211  C   3.962        C  212 0.993    N  210 0.986    C  214 0.932    H  219 0.922
   212  C   3.908        O  213 1.882    C  211 0.993    H  329 0.952
   213  O   2.037        C  212 1.882
   214  C   3.978        C  216 1.008    C  215 0.995    H  220 0.948    C  211 0.932
   215  C   3.994        C  217 1.018    C  214 0.995    H  221 0.969    H  222 0.968
   216  C   3.994        C  214 1.008    H  224 0.982    H  225 0.982    H  223 0.979
   217  C   3.993        C  215 1.018    H  227 0.986    H  228 0.985    H  226 0.983
   218  H   0.944        N  210 0.896
   219  H   0.993        C  211 0.922
   220  H   0.993        C  214 0.948
   221  H   0.997        C  215 0.969
   222  H   0.999        C  215 0.968
   223  H   0.995        C  216 0.979
   224  H   0.999        C  216 0.982
   225  H   0.998        C  216 0.982
   226  H   0.997        C  217 0.983
   227  H   0.998        C  217 0.986
   228  H   0.997        C  217 0.985
   229  N   2.992        C  230 1.020    H  330 0.951    H  236 0.950
   230  C   3.984        N  229 1.020    C  233 0.955    H  237 0.951    C  231 0.945
   231  C   3.940        O  232 1.614    N  245 1.304    C  230 0.945
   232  O   1.958        C  231 1.614    N  245 0.192
   233  C   3.993        C  234 1.012    C  235 1.010    H  238 0.964    C  230 0.955
   234  C   3.996        C  233 1.012    H  241 0.985    H  239 0.984    H  240 0.978
   235  C   3.994        C  233 1.010    H  244 0.984    H  243 0.983    H  242 0.983
   236  H   0.977        N  229 0.950
   237  H   0.998        C  230 0.951
   238  H   0.998        C  233 0.964
   239  H   0.998        C  234 0.984
   240  H   0.998        C  234 0.978
   241  H   0.999        C  234 0.985
   242  H   0.997        C  235 0.983
   243  H   0.998        C  235 0.983
   244  H   0.998        C  235 0.984
   245  N   3.469        C  231 1.304    C  246 0.979    H  254 0.911    O  232 0.192
   246  C   3.963        N  245 0.979    C  249 0.964    H  255 0.953    C  247 0.939
   247  C   3.951        O  248 1.636    N  267 1.304    C  246 0.939
   248  O   1.962        C  247 1.636    N  267 0.200
   249  C   3.986        C  250 1.007    H  256 0.973    H  257 0.972    C  246 0.964
   250  C   3.993        C  249 1.007    C  251 1.005    H  259 0.976    H  258 0.971
   251  C   3.984        C  252 1.013    C  250 1.005    H  260 0.968    H  261 0.965
   252  C   3.917        C  251 1.013    H  262 0.967    H  263 0.964    N  253 0.956
   253  N   3.665        C  252 0.956    H  264 0.897    H  266 0.896    H  265 0.891
   254  H   0.954        N  245 0.911
   255  H   0.995        C  246 0.953
   256  H   0.996        C  249 0.973
   257  H   0.995        C  249 0.972
   258  H   0.997        C  250 0.971
   259  H   0.998        C  250 0.976
   260  H   0.993        C  251 0.968
   261  H   0.991        C  251 0.965
   262  H   0.989        C  252 0.967
   263  H   0.985        C  252 0.964
   264  H   0.910        N  253 0.897
   265  H   0.906        N  253 0.891
   266  H   0.916        N  253 0.896
   267  N   3.476        C  247 1.304    C  268 0.982    H  274 0.912    O  248 0.200
   268  C   3.962        N  267 0.982    H  275 0.952    C  269 0.950    C  271 0.943
   269  C   3.940        O  270 1.623    N  283 1.293    C  268 0.950
   270  O   1.995        C  269 1.623    N  283 0.193
   271  C   3.986        C  272 1.011    C  273 1.009    H  276 0.963    C  268 0.943
   272  C   3.994        C  271 1.011    H  278 0.984    H  279 0.983    H  277 0.982
   273  C   3.992        C  271 1.009    H  282 0.984    H  280 0.982    H  281 0.980
   274  H   0.957        N  267 0.912
   275  H   0.993        C  268 0.952
   276  H   0.995        C  271 0.963
   277  H   0.996        C  272 0.982
   278  H   0.999        C  272 0.984
   279  H   0.998        C  272 0.983
   280  H   0.995        C  273 0.982
   281  H   0.998        C  273 0.980
   282  H   0.997        C  273 0.984
   283  N   3.461        C  269 1.293    C  284 0.973    H  288 0.922    O  270 0.193
   284  C   3.961        C  287 0.997    N  283 0.973    C  285 0.945    H  289 0.923
   285  C   3.952        O  286 1.603    N  293 1.311    C  284 0.945
   286  O   1.924        C  285 1.603    N  293 0.197
   287  C   3.990        C  284 0.997    H  291 0.984    H  290 0.983    H  292 0.982
   288  H   0.952        N  283 0.922
   289  H   0.992        C  284 0.923
   290  H   0.999        C  287 0.983
   291  H   0.997        C  287 0.984
   292  H   0.994        C  287 0.982
   293  N   3.534        C  285 1.311    C  294 0.975    C  299 0.972    O  286 0.197
   294  C   3.968        N  293 0.975    C  297 0.974    H  300 0.952    C  295 0.932
   295  C   3.942        O  296 1.645    N  307 1.284    C  294 0.932
   296  O   1.979        C  295 1.645    N  307 0.194
   297  C   3.984        C  298 1.005    H  301 0.974    C  294 0.974    H  302 0.970
   298  C   3.990        C  297 1.005    C  299 1.005    H  303 0.977    H  304 0.973
   299  C   3.958        C  298 1.005    N  293 0.972    H  306 0.958    H  305 0.957
   300  H   0.994        C  294 0.952
   301  H   0.995        C  297 0.974
   302  H   0.992        C  297 0.970
   303  H   0.998        C  298 0.977
   304  H   0.993        C  298 0.973
   305  H   0.995        C  299 0.957
   306  H   0.994        C  299 0.958
   307  N   3.458        C  295 1.284    C  308 0.988    H  316 0.913    O  296 0.194
   308  C   3.972        N  307 0.988    C  309 0.986    C  311 0.946    H  317 0.946
   309  C   3.904        O  310 1.904    C  308 0.986    H  331 0.952
   310  O   2.059        C  309 1.904
   311  C   3.988        C  312 1.006    H  318 0.969    H  319 0.969    C  308 0.946
   312  C   3.994        C  311 1.006    H  320 0.970    C  313 0.969    H  321 0.947
   313  C   3.943        O  314 1.647    N  315 1.299    C  312 0.969
   314  O   1.946        C  313 1.647    N  315 0.197
   315  N   3.384        C  313 1.299    H  323 0.926    H  322 0.926    O  314 0.197
   316  H   0.950        N  307 0.913
   317  H   0.993        C  308 0.946
   318  H   0.995        C  311 0.969
   319  H   0.997        C  311 0.969
   320  H   0.995        C  312 0.970
   321  H   0.992        C  312 0.947
   322  H   0.946        N  315 0.926
   323  H   0.947        N  315 0.926
   324  H   0.973        N    1 0.962
   325  H   0.990        C   50 0.949
   326  H   0.961        N   70 0.944
   327  H   0.993        C  128 0.952
   328  H   0.962        N  145 0.948
   329  H   0.992        C  212 0.952
   330  H   0.967        N  229 0.951
   331  H   0.991        C  309 0.952
 
molecular dipole:
                 x           y           z       tot (Debye)
 q only:      -37.171     -87.674    -393.427
   full:      -39.764     -90.564    -394.344    1033.391
molecular quadrupole (traceless):
                xx          xy          yy          xz          yz          zz
 q only:    39908.528   -1908.450   36354.976  -10441.975  -25399.070  -76263.504
  q+dip:    40159.764   -2304.410   36198.565  -11256.048  -26365.275  -76358.329
   full:    40165.096   -2292.767   36193.650  -11258.977  -26366.390  -76358.746


           -------------------------------------------------
          | TOTAL ENERGY             -515.373851472162 Eh   |
          | GRADIENT NORM               0.451695301106 Eh/α |
          | HOMO-LUMO GAP               1.487901916340 eV   |
           -------------------------------------------------

------------------------------------------------------------------------
 * finished run on 2019/05/31 at 06:33:18.741     
------------------------------------------------------------------------
 total:
 * wall-time:     0 d,  0 h,  0 min, 10.212 sec
 *  cpu-time:     0 d,  0 h,  0 min, 20.215 sec
 * ratio c/w:     1.979 speedup
 SCF:
 * wall-time:     0 d,  0 h,  0 min,  9.479 sec
 *  cpu-time:     0 d,  0 h,  0 min, 18.889 sec
 * ratio c/w:     1.993 speedup

