      -----------------------------------------------------------      
     |                   =====================                   |     
     |                           x T B                           |     
     |                   =====================                   |     
     |                         S. Grimme                         |     
     |          Mulliken Center for Theoretical Chemistry        |     
     |                    University of Bonn                     |     
     |                Version 6.1 RC1 (SAW190329)                |     
      -----------------------------------------------------------      

   This program is distributed in the hope that it will be useful,
   but WITHOUT ANY WARRANTY; without even the implied warranty of
   MERCHANTABILITY or FITNESS FOR A PARTICULAR PURPOSE.
   
   FOR NON-COMMERCIAL, ACADEMIA USE ONLY.
   
   Cite this work as:
   S. Grimme, C. Bannwarth, P. Shushkov, J. Comput. Theory Chem., 2017,
   13, 1989-2009. DOI: 10.1021/acs.jctc.7b00118
   C. Bannwarth, S. Ehlert and S. Grimme., J. Comput. Theory Chem., 2019,
   just accepted. DOI: 10.1021/acs.jctc.8b01176
   
   for sTDA-xTB:
   S. Grimme and C. Bannwarth, J. Chem. Phys., 2016, 145, 054103.
   DOI: 10.1063/1.4959605
   
   in the mass-spec context:
   V. Asgeirsson, C. Bauer and S. Grimme, Chem. Sci., 2017, 8, 4879.
   DOI: 10.1039/c7sc00601b
   
   for metadynamics refer to:
   S. Grimme, ChemRxiv, Preprint. DOI: 10.26434/chemrxiv.7660532.v1
   
   with help from (in alphabetical order)
   C. Bannwarth, F. Bohle, G. Brandenburg, E. Caldeweyher, M. Checinski,
   S. Dohm, S. Ehlert, S. Ehrlich, F. März, H. Neugebauer, J. Pisarek,
   P. Pracht, P. Shushkov, and S. Spicher.
   
 * started run on 2019/05/31 at 05:34:51.131     

           -------------------------------------------------
          |                Calculation Setup                |
           -------------------------------------------------

          program call               : /home/lum/install/xtb/xtb-190329/bin/xtb xtb_tmp.xyz --chrg 1 --grad --gfn 2 --etemp 500 --acc 0.1 --gbsa h2o --parallel 2
          hostname                   : cpu02
          coordinate file            : xtb_tmp.xyz
          omp threads                :                     2
          number of atoms            :                   380
          number of electrons        :                  1030
          charge                     :                     1
          spin                       :                   0.0
          first test random number   :      0.73172958716611


molecular fragmentation (1/2 indicates fragments):
111111111111111111111111112222222222222222222222222222222222222222222222
222222222222222222222222222222222222222222222222222222222222222222222222
222222222222222222222222222222222222222222222222222222222222222222222222
222222222222222222222222222222222222222222222222222222222222222222222222
222222222222222222222222222222222222222222222222222222222222222222222222
22222211222222222222
# atoms in fragment 1/2:    28   352
 fragment masses (1/2) :      172.23     2417.76
CMA distance (Bohr)    :  21.911
constraining FC (au)   :  0.0500

########################################################################
# WARNING! Please study the warnings concerning your input carefully
#  - XTBPATH is not set, using XTBHOME instead
#  - Process number higher than OMP_NUM_THREADS, I hope you know what you are doing.
########################################################################

           ------------------------------------------------- 
          |                 G F N 2 - x T B                 |
          | Geometry, Frequencies, Noncovalent interactions |
          |            JCTC 2018 parametrisation            |
           ------------------------------------------------- 
 
             k(s)              :                1.8500
             k(p)              :                2.2300
             k(d)              :                2.2300
             k(f)              :                2.0000
             kEN (H0ij)        :               -2.0000
             D4 a1             :                0.5200
             D4 a2             :                5.0000
             D4 s6             :                1.0000
             D4 s8             :                2.7000
             D4 s9             :                5.0000
             alphaj            :                2.0000

  Z AO/shell   Hii/eV     exponent
  1     Wed Apr 25 08:07:45 CEST 2018   EN: 2.200 GM2: 0.406  GM3: 0.0800  RAES: 1.40
     1s    -10.707211    1.230000
  6     Wed Apr 25 08:07:45 CEST 2018   EN: 2.550 GM2: 0.538  GM3: 0.1500  RAES: 3.00
     2s    -13.970922    2.096432
     2p    -10.063292    1.800000
  7     Wed Apr 25 08:07:45 CEST 2018   EN: 3.040 GM2: 0.461  GM3:-0.0640  RAES: 1.90
     2s    -16.686243    2.339881
     2p    -12.523956    2.014332
  8     Wed Apr 25 08:07:45 CEST 2018   EN: 3.440 GM2: 0.452  GM3:-0.0517  RAES: 1.80
     2s    -20.229985    2.439742
     2p    -15.503117    2.137023

 Solvent             : h2o
 Using internal parameter file: .param_gbsa2_h2o
 Gsolv ref. state (COSMO-RS): gsolv [1 M gas/solution]
 temperature (mdtemp)       :    298.150000000000     
 dielectric constant        :    80.2000000000000     
 rho                        :    1.00000000000000     
 mass                       :    18.0000000000000     
 surface tension            :    15.5689454083859     
 probe radius               :   0.975313790000000     
 vdW radii scaling          :    1.00000000000000     
 Gshift (Eh)                :   1.857443126794793E-003
 c1                         :    1.55243817000000     
 soset                      :   0.130326360000000     
 HB correction              :  T
 Number of grid points      :          230

            Z     q(EN)     CN     RAES       Cart. coordinates
     1  N   5.0   -0.69    3.00    1.92   216.16843   124.94303   300.36830
     2  C   4.0    0.04    3.98    3.59   214.86224   123.56608   298.40805
     3  C   4.0    0.28    3.00    3.02   214.66202   120.74897   299.06688
     4  O   6.0   -0.36    1.00    1.80   215.14332   119.92495   301.17377
     5  H   1.0    0.29    1.00    1.43   215.10939   125.88664   301.66043
     6  H   1.0    0.16    0.99    1.43   212.97047   124.35254   298.13600
     7  H   1.0    0.13    0.99    1.43   215.90152   123.74619   296.62842
     8  N   5.0   -0.47    3.01    1.93   213.91493   119.32339   297.12545
     9  C   4.0    0.07    3.98    3.59   213.66796   116.60027   297.26371
    10  C   4.0    0.09    3.00    3.02   215.96529   115.42241   298.58668
    11  O   6.0   -0.36    1.00    1.80   218.12297   116.16985   298.32465
    12  C   4.0   -0.14    3.99    3.60   213.37763   115.46804   294.60545
    13  C   4.0   -0.09    3.98    3.58   215.80528   115.36177   293.02081
    14  C   4.0   -0.24    3.98    3.59   215.30847   113.83313   290.62243
    15  C   4.0   -0.20    3.98    3.59   216.79730   117.99004   292.36426
    16  H   1.0    0.27    1.00    1.43   213.08456   120.17373   295.61394
    17  H   1.0    0.11    0.99    1.43   211.96280   116.14577   298.36173
    18  H   1.0    0.09    0.99    1.43   212.66079   113.54529   294.81599
    19  H   1.0    0.12    0.99    1.43   211.96677   116.59389   293.60466
    20  H   1.0    0.14    0.99    1.43   217.28093   114.39640   294.10032
    21  H   1.0    0.10    0.99    1.43   217.02513   113.75389   289.49387
    22  H   1.0    0.09    0.99    1.43   214.74721   111.92198   291.11641
    23  H   1.0    0.10    0.99    1.43   213.82835   114.71704   289.50159
    24  H   1.0    0.11    0.99    1.43   218.37051   117.86473   291.04157
    25  H   1.0    0.11    0.99    1.43   215.33536   119.15173   291.49586
    26  H   1.0    0.15    0.99    1.43   217.48242   118.95286   294.04404
    27  N   5.0   -0.70    3.00    1.93   206.12049   108.20268   302.55744
    28  C   4.0    0.07    3.98    3.59   205.33945   109.02519   300.05484
    29  C   4.0    0.28    3.01    3.02   206.30451   107.27391   297.97150
    30  O   6.0   -0.43    1.00    1.80   205.04224   106.75763   296.11204
    31  C   4.0   -0.21    3.99    3.60   206.33803   111.68954   299.57640
    32  H   1.0    0.27    1.00    1.43   207.08136   109.47470   303.61288
    33  H   1.0    0.13    0.99    1.43   203.27096   108.97866   299.94375
    34  H   1.0    0.11    0.99    1.43   205.67205   112.36922   297.75763
    35  H   1.0    0.11    0.99    1.43   205.68170   112.96022   301.04728
    36  H   1.0    0.11    0.99    1.43   208.39330   111.68194   299.56535
    37  N   5.0   -0.48    3.01    1.93   208.71261   106.53620   298.26602
    38  C   4.0    0.06    3.99    3.60   210.03611   105.13627   296.32636
    39  C   4.0    0.07    3.00    3.02   211.03009   102.59657   297.32622
    40  O   6.0   -0.39    1.00    1.80   213.26205   102.04377   297.42191
    41  C   4.0   -0.14    3.98    3.59   212.12701   106.70320   295.05846
    42  C   4.0   -0.17    3.98    3.58   211.68754   106.98245   292.21657
    43  C   4.0   -0.15    3.98    3.59   209.44570   108.73000   291.65243
    44  C   4.0   -0.06    3.98    3.58   208.55317   108.62348   288.91769
    45  N   5.0   -0.73    3.98    2.82   207.10586   106.25341   288.43995
    46  H   1.0    0.26    1.00    1.43   209.66190   107.06618   299.83718
    47  H   1.0    0.14    0.99    1.43   208.57623   104.65205   294.93514
    48  H   1.0    0.11    0.99    1.43   212.21064   108.55917   295.94888
    49  H   1.0    0.14    0.99    1.43   213.92630   105.75294   295.39102
    50  H   1.0    0.09    0.99    1.43   213.39866   107.75494   291.37247
    51  H   1.0    0.11    0.99    1.43   211.43966   105.09312   291.42348
    52  H   1.0    0.14    0.99    1.43   207.86196   108.28476   292.89576
    53  H   1.0    0.10    0.99    1.43   210.01028   110.66711   292.05983
    54  H   1.0    0.12    0.99    1.43   207.31244   110.22264   288.52992
    55  H   1.0    0.10    0.99    1.43   210.15446   108.67682   287.62323
    56  H   1.0    0.24    1.00    1.43   206.46225   106.18661   286.60523
    57  H   1.0    0.24    1.00    1.43   208.24916   104.70787   288.73796
    58  H   1.0    0.26    1.00    1.43   205.59003   106.14819   289.66219
    59  N   5.0   -0.71    3.00    1.93   218.11670   102.80325   284.75586
    60  C   4.0    0.08    3.98    3.59   219.12109   105.34807   284.77932
    61  C   4.0    0.08    3.00    3.02   222.00800   105.38637   284.83273
    62  O   6.0   -0.40    1.00    1.80   223.14461   107.16232   283.85607
    63  C   4.0   -0.14    3.98    3.59   217.95692   107.02304   286.81843
    64  C   4.0   -0.13    3.98    3.59   215.29087   107.87565   286.05902
    65  C   4.0    0.25    3.00    3.02   215.33238   109.24145   283.52880
    66  O   6.0   -0.46    1.00    1.80   214.77888   108.19287   281.54690
    67  N   5.0   -0.67    3.00    1.93   216.00056   111.68132   283.64740
    68  H   1.0    0.26    1.00    1.43   217.30797   102.07068   286.32349
    69  H   1.0    0.14    0.99    1.43   218.65190   106.16412   282.92784
    70  H   1.0    0.11    0.99    1.43   217.87875   105.98795   288.59999
    71  H   1.0    0.12    0.99    1.43   219.17988   108.66653   287.05664
    72  H   1.0    0.11    0.99    1.43   214.09289   106.21017   285.87011
    73  H   1.0    0.09    0.99    1.43   214.55305   109.14639   287.49773
    74  H   1.0    0.25    1.00    1.43   216.57326   112.50577   285.26071
    75  H   1.0    0.27    1.00    1.43   216.20985   112.67139   282.03552
    76  N   5.0   -0.68    3.00    1.93   222.86108   105.95303   278.22250
    77  C   4.0    0.06    3.98    3.58   222.44413   108.54659   277.41347
    78  C   4.0    0.09    3.00    3.02   224.86072   110.09641   277.84068
    79  O   6.0   -0.45    1.00    1.80   225.73114   111.50180   276.21684
    80  C   4.0   -0.19    3.98    3.59   220.28157   109.75363   278.87377
    81  H   1.0    0.27    1.00    1.43   221.47215   105.03010   279.16722
    82  H   1.0    0.11    0.99    1.43   222.05289   108.57389   275.37318
    83  H   1.0    0.10    0.99    1.43   219.98688   111.67205   278.20173
    84  H   1.0    0.12    0.99    1.43   218.54813   108.67819   278.61633
    85  H   1.0    0.15    0.99    1.43   220.75164   109.82712   280.87338
    86  N   5.0   -0.68    3.00    1.93   229.94970   108.81575   273.54361
    87  C   4.0    0.08    3.98    3.59   229.46568   110.08152   271.16947
    88  C   4.0    0.29    3.02    3.02   230.37722   112.81567   271.30775
    89  O   6.0   -0.48    1.00    1.80   231.47082   113.78697   269.50087
    90  C   4.0   -0.12    3.99    3.60   226.66226   110.04349   270.49726
    91  C   4.0   -0.04    3.02    3.02   225.57872   107.49511   269.82337
    92  C   4.0   -0.10    3.04    3.02   222.96032   107.24255   269.79730
    93  C   4.0   -0.09    3.03    3.02   227.04413   105.43418   269.12914
    94  C   4.0   -0.10    3.03    3.02   221.82738   105.00404   269.07012
    95  C   4.0   -0.09    3.03    3.02   225.90882   103.18912   268.40209
    96  C   4.0   -0.09    3.03    3.02   223.30532   102.96542   268.35677
    97  H   1.0    0.29    1.00    1.43   228.45101   108.13590   274.52535
    98  H   1.0    0.11    0.99    1.43   230.59174   109.17593   269.68133
    99  H   1.0    0.14    0.99    1.43   225.61511   110.83578   272.09028
   100  H   1.0    0.10    0.99    1.43   226.39549   111.30157   268.87624
   101  H   1.0    0.10    0.99    1.43   221.79882   108.83638   270.33212
   102  H   1.0    0.11    1.00    1.43   229.07752   105.55863   269.11837
   103  H   1.0    0.11    1.00    1.43   219.79194   104.85116   269.05363
   104  H   1.0    0.12    1.00    1.43   227.07767   101.61067   267.84932
   105  H   1.0    0.12    1.00    1.43   222.43152   101.21740   267.77185
   106  N   5.0   -0.47    3.01    1.93   229.96151   114.04885   273.46451
   107  C   4.0    0.09    4.00    3.61   230.94700   116.58967   273.77458
   108  C   4.0    0.08    3.00    3.02   233.83893   116.50058   273.63411
   109  O   6.0   -0.41    1.00    1.80   235.05627   118.09220   272.46696
   110  C   4.0    0.03    3.98    3.58   230.06052   117.74506   276.28890
   111  O   6.0   -0.47    1.99    1.82   227.39466   117.56637   276.32731
   112  C   4.0   -0.21    3.98    3.59   230.92341   120.49434   276.49833
   113  H   1.0    0.31    1.00    1.43   228.68162   113.40081   274.74201
   114  H   1.0    0.13    0.99    1.43   230.28849   117.77801   272.20627
   115  H   1.0    0.12    0.99    1.43   230.86290   116.60156   277.82682
   116  H   1.0    0.27    0.99    1.43   226.80170   118.29982   277.88722
   117  H   1.0    0.12    0.99    1.43   230.49593   121.23756   278.36314
   118  H   1.0    0.13    0.99    1.43   232.93847   120.64543   276.15098
   119  H   1.0    0.11    0.99    1.43   229.94886   121.62053   275.08408
   120  N   5.0   -0.68    3.00    1.93   235.58735   116.24666   267.28110
   121  C   4.0    0.08    3.98    3.59   235.48540   118.75145   266.16595
   122  C   4.0    0.09    3.00    3.02   237.97788   120.11489   266.70378
   123  O   6.0   -0.39    1.00    1.80   239.16228   121.16342   265.00208
   124  C   4.0   -0.08    3.98    3.58   233.18993   120.26951   267.09548
   125  C   4.0   -0.16    3.98    3.59   230.75302   119.08139   266.06181
   126  C   4.0   -0.22    3.98    3.59   233.46098   123.02435   266.27119
   127  C   4.0   -0.24    3.98    3.58   228.35722   120.35985   267.03018
   128  H   1.0    0.33    1.00    1.43   234.11285   115.64118   268.35568
   129  H   1.0    0.12    0.99    1.43   235.38809   118.56768   264.09744
   130  H   1.0    0.15    0.99    1.43   233.18274   120.17858   269.15934
   131  H   1.0    0.10    0.99    1.43   230.78989   119.16251   263.99883
   132  H   1.0    0.13    0.99    1.43   230.70048   117.09108   266.59582
   133  H   1.0    0.10    0.99    1.43   231.87328   124.13931   266.93016
   134  H   1.0    0.13    0.99    1.43   235.18150   123.85074   267.02912
   135  H   1.0    0.11    0.99    1.43   233.55501   123.15746   264.22117
   136  H   1.0    0.10    0.99    1.43   226.70979   119.29557   266.42115
   137  H   1.0    0.11    0.99    1.43   228.36870   120.43197   269.08108
   138  H   1.0    0.09    0.99    1.43   228.18418   122.27000   266.29953
   139  N   5.0   -0.71    3.00    1.93   222.14684   120.18344   252.37745
   140  C   4.0    0.07    3.98    3.59   221.76898   118.50655   254.50012
   141  C   4.0    0.27    3.01    3.02   222.19086   119.90475   256.99988
   142  O   6.0   -0.48    1.00    1.80   220.63328   119.63898   258.69964
   143  C   4.0    0.04    3.97    3.58   223.34974   116.05189   254.32969
   144  O   6.0   -0.47    1.99    1.82   225.81113   116.44155   253.43739
   145  C   4.0   -0.20    3.98    3.59   222.08148   114.16335   252.55246
   146  H   1.0    0.28    1.00    1.43   223.44584   119.72230   251.03317
   147  H   1.0    0.10    0.99    1.43   219.76984   117.94118   254.55216
   148  H   1.0    0.11    0.99    1.43   223.40551   115.25121   256.25572
   149  H   1.0    0.26    0.99    1.43   226.55960   117.95168   254.17442
   150  H   1.0    0.12    0.99    1.43   223.24905   112.48050   252.42916
   151  H   1.0    0.10    0.99    1.43   220.22466   113.64538   253.25163
   152  H   1.0    0.12    0.99    1.43   221.91411   114.98280   250.67710
   153  N   5.0   -0.49    3.01    1.93   224.25342   121.31797   257.23324
   154  C   4.0    0.07    4.00    3.62   224.76646   122.72830   259.53387
   155  C   4.0    0.30    3.02    3.02   222.39514   124.14401   260.34187
   156  O   6.0   -0.47    1.00    1.80   221.51268   123.93489   262.47708
   157  C   4.0   -0.10    3.98    3.58   226.98976   124.56432   259.16687
   158  C   4.0   -0.22    3.98    3.59   227.05718   126.51815   261.29312
   159  C   4.0   -0.23    3.98    3.59   229.47415   123.10133   259.07348
   160  H   1.0    0.24    1.00    1.43   225.45528   121.59291   255.75993
   161  H   1.0    0.11    0.99    1.43   225.21203   121.40117   261.06901
   162  H   1.0    0.12    0.99    1.43   226.69117   125.55313   257.37616
   163  H   1.0    0.11    0.99    1.43   228.76870   127.64324   261.15504
   164  H   1.0    0.13    0.99    1.43   225.44982   127.79404   261.18316
   165  H   1.0    0.10    0.99    1.43   227.02771   125.59439   263.12894
   166  H   1.0    0.11    0.99    1.43   231.03908   124.39712   258.77515
   167  H   1.0    0.09    0.99    1.43   229.77396   122.11784   260.85162
   168  H   1.0    0.11    0.99    1.43   229.46032   121.73301   257.54547
   169  N   5.0   -0.47    3.01    1.93   221.36546   125.62137   258.58402
   170  C   4.0    0.08    4.00    3.62   219.20424   127.18474   259.20448
   171  C   4.0    0.30    3.01    3.02   217.19521   125.53780   260.47984
   172  O   6.0   -0.45    1.00    1.80   216.23997   126.06216   262.52590
   173  C   4.0   -0.11    3.99    3.60   218.16861   128.41789   256.80919
   174  C   4.0    0.27    3.00    3.02   219.92147   130.51947   255.88181
   175  O   6.0   -0.39    1.00    1.80   221.89635   131.07104   256.92627
   176  N   5.0   -0.65    3.00    1.93   219.08222   131.70991   253.80573
   177  H   1.0    0.25    1.00    1.43   222.22234   125.88582   256.89142
   178  H   1.0    0.14    0.99    1.43   219.77121   128.65606   260.55822
   179  H   1.0    0.11    0.99    1.43   217.98920   126.99198   255.32782
   180  H   1.0    0.12    0.99    1.43   216.31121   129.22452   257.19368
   181  H   1.0    0.30    1.00    1.43   220.09517   133.16136   253.10370
   182  H   1.0    0.27    1.00    1.43   217.41547   131.27641   253.00297
   183  N   5.0   -0.47    3.01    1.93   216.49922   123.54302   259.10103
   184  C   4.0    0.08    4.00    3.61   214.55138   121.83053   259.96221
   185  C   4.0    0.30    3.01    3.02   215.16819   120.67511   262.55370
   186  O   6.0   -0.46    1.00    1.80   213.50716   120.49060   264.16197
   187  C   4.0   -0.11    3.99    3.60   214.11941   119.73589   258.01213
   188  C   4.0    0.27    3.00    3.02   212.45159   120.73133   255.87910
   189  O   6.0   -0.38    1.00    1.80   210.14965   120.60063   255.98369
   190  N   5.0   -0.64    3.00    1.93   213.67073   121.77771   253.92700
   191  H   1.0    0.26    1.00    1.43   217.52845   123.05646   257.56074
   192  H   1.0    0.15    0.99    1.43   212.79217   122.90091   260.23704
   193  H   1.0    0.12    0.99    1.43   215.94320   119.07210   257.32625
   194  H   1.0    0.12    0.99    1.43   213.11079   118.18713   258.92249
   195  H   1.0    0.29    1.00    1.43   212.63348   122.54156   252.52289
   196  H   1.0    0.25    1.00    1.43   215.56951   121.99599   253.88022
   197  N   5.0   -0.48    3.01    1.93   217.51623   119.85084   262.85828
   198  C   4.0    0.07    3.99    3.61   218.34247   118.62443   265.16301
   199  C   4.0    0.29    3.02    3.02   218.03390   120.39865   267.41302
   200  O   6.0   -0.47    1.00    1.80   217.11555   119.66828   269.40961
   201  C   4.0   -0.14    3.99    3.60   221.11173   117.81773   264.94375
   202  C   4.0   -0.10    3.98    3.58   221.53448   115.54865   263.18404
   203  C   4.0   -0.23    3.98    3.59   224.33978   115.35163   262.52674
   204  C   4.0   -0.23    3.98    3.59   220.63387   113.09143   264.39659
   205  H   1.0    0.31    1.00    1.43   218.80414   119.98017   261.44157
   206  H   1.0    0.12    0.99    1.43   217.13098   116.98484   265.53650
   207  H   1.0    0.13    0.99    1.43   222.17829   119.44080   264.24999
   208  H   1.0    0.10    0.99    1.43   221.80849   117.34167   266.82558
   209  H   1.0    0.13    0.99    1.43   220.47855   115.85797   261.43358
   210  H   1.0    0.10    0.99    1.43   224.68158   113.73501   261.30561
   211  H   1.0    0.11    0.99    1.43   224.97806   117.04168   261.54815
   212  H   1.0    0.10    0.99    1.43   225.47287   115.11702   264.22571
   213  H   1.0    0.10    0.99    1.43   220.93237   111.51236   263.11678
   214  H   1.0    0.10    0.99    1.43   221.68398   112.71962   266.12401
   215  H   1.0    0.10    0.99    1.43   218.63378   113.16934   264.85235
   216  N   5.0   -0.48    3.01    1.93   218.88835   122.74931   267.08081
   217  C   4.0    0.08    4.00    3.62   218.66026   124.54080   269.14042
   218  C   4.0    0.32    3.01    3.02   215.89146   124.65669   269.95596
   219  O   6.0   -0.46    1.00    1.80   215.25254   124.41852   272.16667
   220  C   4.0    0.04    3.98    3.58   219.67028   127.21931   268.51509
   221  O   6.0   -0.45    1.99    1.82   218.08998   128.57600   266.87541
   222  C   4.0   -0.21    3.98    3.59   222.40326   127.10571   267.58073
   223  H   1.0    0.30    1.00    1.43   219.66216   123.28393   265.41297
   224  H   1.0    0.11    0.99    1.43   219.72466   123.82742   270.77182
   225  H   1.0    0.13    0.99    1.43   219.59539   128.29127   270.28847
   226  H   1.0    0.31    0.99    1.43   217.95570   127.73201   265.24728
   227  H   1.0    0.12    0.99    1.43   223.12949   129.01697   267.39338
   228  H   1.0    0.09    0.99    1.43   223.57007   126.07257   268.91103
   229  H   1.0    0.14    0.99    1.43   222.50943   126.18950   265.74761
   230  N   5.0   -0.47    3.01    1.93   214.24817   125.01602   268.07251
   231  C   4.0    0.10    4.00    3.61   211.58186   125.30511   268.58549
   232  C   4.0    0.31    3.01    3.02   210.56173   122.98055   270.00071
   233  O   6.0   -0.40    1.00    1.80   209.18701   123.18432   271.84810
   234  C   4.0   -0.01    3.98    3.59   210.13277   125.71451   266.11627
   235  O   6.0   -0.50    1.99    1.82   207.61612   126.30294   266.74526
   236  H   1.0    0.29    1.00    1.43   214.85910   125.30731   266.28315
   237  H   1.0    0.14    0.99    1.43   211.27188   126.95354   269.81149
   238  H   1.0    0.13    0.99    1.43   211.03508   127.28022   265.09793
   239  H   1.0    0.14    0.99    1.43   210.23788   123.99489   264.96084
   240  H   1.0    0.27    0.99    1.43   206.68311   126.69723   265.22624
   241  N   5.0   -0.47    3.01    1.93   211.27817   120.78398   269.00157
   242  C   4.0    0.07    3.99    3.61   210.43751   118.37218   269.99746
   243  C   4.0    0.29    3.02    3.02   211.14709   118.16443   272.78397
   244  O   6.0   -0.47    1.00    1.80   209.54797   117.78913   274.42465
   245  C   4.0   -0.21    3.98    3.59   211.59371   116.22439   268.47143
   246  H   1.0    0.31    1.00    1.43   212.34428   120.73808   267.40548
   247  H   1.0    0.13    0.99    1.43   208.36555   118.28683   269.91790
   248  H   1.0    0.10    0.99    1.43   210.92204   114.42052   269.18250
   249  H   1.0    0.12    0.99    1.43   211.05220   116.41600   266.49986
   250  H   1.0    0.13    0.99    1.43   213.64081   116.28651   268.61391
   251  N   5.0   -0.49    3.01    1.93   213.60126   118.36248   273.33495
   252  C   4.0    0.07    4.00    3.62   214.34943   118.07710   275.95033
   253  C   4.0    0.29    3.01    3.02   213.11816   120.12099   277.58789
   254  O   6.0   -0.48    1.00    1.80   212.31068   119.58465   279.69783
   255  C   4.0   -0.15    3.98    3.59   217.20388   117.86494   276.31165
   256  C   4.0   -0.13    3.98    3.58   218.71807   120.21829   275.62249
   257  C   4.0   -0.03    3.99    3.60   221.51326   119.74036   276.24559
   258  N   5.0   -0.48    3.02    1.93   223.01043   122.03009   276.18020
   259  C   4.0    0.37    3.00    3.02   223.18445   123.71382   278.05375
   260  N   5.0   -0.62    3.01    1.93   222.29413   123.23580   280.32741
   261  N   5.0   -0.65    3.02    1.93   224.41810   125.87880   277.59555
   262  H   1.0    0.30    1.00    1.43   214.90976   118.79872   272.00347
   263  H   1.0    0.12    0.99    1.43   213.49078   116.31043   276.63973
   264  H   1.0    0.13    0.99    1.43   217.53784   117.46822   278.30944
   265  H   1.0    0.10    0.99    1.43   217.86652   116.26430   275.19417
   266  H   1.0    0.14    0.99    1.43   218.47039   120.67896   273.63131
   267  H   1.0    0.15    0.99    1.43   218.04116   121.80637   276.74948
   268  H   1.0    0.14    0.99    1.43   221.61822   118.91097   278.12827
   269  H   1.0    0.12    0.99    1.43   222.34900   118.41841   274.90472
   270  H   1.0    0.23    1.00    1.43   223.66118   122.55611   274.46768
   271  H   1.0    0.33    0.99    1.43   221.12394   121.71137   280.78124
   272  H   1.0    0.29    1.00    1.43   222.34054   124.57043   281.68263
   273  H   1.0    0.26    1.00    1.43   225.27351   126.19554   275.92786
   274  H   1.0    0.27    1.00    1.43   224.71009   127.12952   278.99661
   275  N   5.0   -0.48    3.01    1.93   212.84681   122.40318   276.55634
   276  C   4.0    0.09    3.99    3.60   211.52885   124.45424   277.79095
   277  C   4.0    0.31    3.01    3.02   208.69782   123.98384   278.23277
   278  O   6.0   -0.39    1.00    1.80   207.44490   125.55964   279.37819
   279  C   4.0    0.00    3.98    3.59   211.91623   126.84142   276.16525
   280  O   6.0   -0.46    1.99    1.82   210.35860   128.89159   276.75657
   281  H   1.0    0.30    1.00    1.43   213.59703   122.79208   274.83139
   282  H   1.0    0.14    0.99    1.43   212.31466   124.75550   279.69557
   283  H   1.0    0.13    0.99    1.43   213.92185   127.36668   276.28425
   284  H   1.0    0.16    0.99    1.43   211.47856   126.33986   274.21252
   285  H   1.0    0.29    0.99    1.43   210.25593   129.09346   278.56574
   286  N   5.0   -0.46    3.00    1.93   207.72154   121.87260   277.26946
   287  C   4.0    0.09    3.99    3.61   205.15812   121.08846   277.75181
   288  C   4.0    0.28    3.01    3.02   204.97528   119.01914   279.77722
   289  O   6.0   -0.39    1.00    1.80   202.97325   118.59385   280.85492
   290  C   4.0   -0.12    3.98    3.59   203.91702   120.09012   275.31315
   291  C   4.0   -0.15    3.98    3.58   201.05017   120.49174   275.32023
   292  C   4.0   -0.03    3.98    3.59   200.25007   122.94544   273.98526
   293  N   5.0   -0.47    3.02    1.93   201.79874   125.08954   274.69872
   294  C   4.0    0.39    3.00    3.02   203.74826   126.05951   273.42137
   295  N   5.0   -0.62    3.01    1.93   204.05658   125.63793   270.96996
   296  N   5.0   -0.61    3.02    1.93   205.23190   127.72622   274.59367
   297  H   1.0    0.32    1.00    1.43   208.75081   120.70294   276.15283
   298  H   1.0    0.16    0.99    1.43   204.14995   122.72590   278.50972
   299  H   1.0    0.15    0.99    1.43   204.80639   121.04355   273.71660
   300  H   1.0    0.12    0.99    1.43   204.36124   118.08493   275.15256
   301  H   1.0    0.11    0.99    1.43   200.12287   118.92534   274.36058
   302  H   1.0    0.14    0.99    1.43   200.39903   120.47989   277.27481
   303  H   1.0    0.12    0.99    1.43   200.34687   122.67285   271.94912
   304  H   1.0    0.12    0.99    1.43   198.29551   123.37910   274.48117
   305  H   1.0    0.25    1.00    1.43   201.66745   125.59280   276.53619
   306  H   1.0    0.27    1.00    1.43   202.90193   124.45520   270.02956
   307  H   1.0    0.32    1.00    1.43   205.63331   126.20840   270.05037
   308  H   1.0    0.31    1.00    1.43   205.34543   127.74845   276.50075
   309  H   1.0    0.30    1.00    1.43   206.78297   128.39708   273.71514
   310  N   5.0   -0.48    3.01    1.93   207.06535   117.63530   280.08745
   311  C   4.0    0.08    4.00    3.62   207.25834   115.57081   281.86448
   312  C   4.0    0.29    3.01    3.02   208.17488   116.55639   284.43095
   313  O   6.0   -0.40    1.00    1.80   207.07403   116.09007   286.40941
   314  C   4.0   -0.08    3.98    3.59   209.04086   113.51550   280.83620
   315  C   4.0   -0.15    3.98    3.59   208.14931   112.62795   278.22740
   316  C   4.0   -0.22    3.98    3.59   209.14897   111.34563   282.72906
   317  C   4.0   -0.22    3.98    3.58   210.05946   110.91459   276.91774
   318  H   1.0    0.29    1.00    1.43   208.70071   118.25236   279.31813
   319  H   1.0    0.15    0.99    1.43   205.34766   114.82284   282.14284
   320  H   1.0    0.13    0.99    1.43   210.91986   114.36331   280.64787
   321  H   1.0    0.11    0.99    1.43   206.34582   111.64966   278.43268
   322  H   1.0    0.14    0.99    1.43   207.83824   114.28261   277.03679
   323  H   1.0    0.13    0.99    1.43   210.47172   109.91753   282.08860
   324  H   1.0    0.12    0.99    1.43   209.75188   112.06776   284.55298
   325  H   1.0    0.11    0.99    1.43   207.27551   110.52789   282.91091
   326  H   1.0    0.11    0.99    1.43   209.34604   110.36870   275.07166
   327  H   1.0    0.11    0.99    1.43   211.83826   111.90965   276.65614
   328  H   1.0    0.12    0.99    1.43   210.43227   109.21441   278.00219
   329  N   5.0   -0.49    3.01    1.93   210.36371   117.83708   284.30607
   330  C   4.0    0.07    4.00    3.61   211.15504   119.46088   286.35807
   331  C   4.0    0.30    3.02    3.02   209.11120   121.46373   286.77555
   332  O   6.0   -0.33    1.00    1.80   208.20666   122.64383   284.99647
   333  C   4.0   -0.12    3.99    3.60   213.56745   120.87330   285.63989
   334  C   4.0   -0.11    3.98    3.58   215.78513   119.17294   284.96038
   335  C   4.0    0.31    2.99    3.02   217.90583   120.72916   283.67856
   336  O   6.0   -0.40    1.00    1.80   218.25187   122.95413   284.33186
   337  O   6.0   -0.48    1.00    1.80   219.16128   119.59820   282.00763
   338  H   1.0    0.30    1.00    1.43   210.97502   118.42750   282.59181
   339  H   1.0    0.11    0.99    1.43   211.39230   118.33805   288.07927
   340  H   1.0    0.16    0.99    1.43   213.11118   122.06499   284.01282
   341  H   1.0    0.14    0.99    1.43   214.09059   122.14309   287.18251
   342  H   1.0    0.10    0.99    1.43   216.56392   118.29638   286.65564
   343  H   1.0    0.13    0.99    1.43   215.19724   117.70349   283.64258
   344  N   5.0   -0.46    3.01    1.93   208.36262   121.73317   289.16572
   345  C   4.0    0.08    3.99    3.61   206.85253   123.84676   289.99770
   346  C   4.0    0.29    3.02    3.02   208.46606   126.25324   289.98333
   347  O   6.0   -0.38    1.00    1.80   210.76880   126.12577   290.09929
   348  C   4.0   -0.10    3.99    3.60   206.10901   123.33229   292.75109
   349  C   4.0    0.33    2.99    3.02   208.55593   123.06758   294.39345
   350  O   6.0   -0.47    1.00    1.80   209.97116   121.23405   293.88922
   351  O   6.0   -0.39    1.00    1.80   208.90409   124.66455   296.07119
   352  H   1.0    0.29    1.00    1.43   209.36997   120.96310   290.63260
   353  H   1.0    0.14    0.99    1.43   205.20886   124.04803   288.75200
   354  H   1.0    0.12    0.99    1.43   204.96604   124.86495   293.51429
   355  H   1.0    0.13    0.99    1.43   205.05750   121.56141   292.84085
   356  N   5.0   -0.45    3.01    1.93   207.20253   128.47639   289.93188
   357  C   4.0    0.09    3.99    3.60   208.37997   130.70782   290.99967
   358  C   4.0    0.09    3.00    3.02   206.37622   132.72461   291.38198
   359  O   6.0   -0.34    1.00    1.80   204.44458   132.84636   290.11720
   360  C   4.0    0.01    3.98    3.58   210.51458   131.75296   289.31509
   361  O   6.0   -0.41    1.99    1.82   209.49611   133.01515   287.21546
   362  H   1.0    0.26    1.00    1.43   205.29624   128.44873   290.03464
   363  H   1.0    0.12    0.99    1.43   209.21755   130.20431   292.83777
   364  H   1.0    0.11    0.99    1.43   211.64051   133.06278   290.47236
   365  H   1.0    0.15    0.99    1.43   211.69674   130.14732   288.77499
   366  H   1.0    0.26    0.99    1.43   210.74066   133.01685   285.87649
   367  H   1.0    0.34    1.00    1.43   217.12273   123.86827   301.27757
   368  H   1.0    0.13    1.00    1.43   215.73477   113.94827   299.74636
   369  H   1.0    0.31    1.00    1.43   204.74860   107.78374   303.47122
   370  H   1.0    0.15    1.00    1.43   209.81836   101.28587   297.94659
   371  H   1.0    0.30    1.00    1.43   216.89590   102.68558   283.57758
   372  H   1.0    0.15    1.00    1.43   222.95658   103.97507   285.65704
   373  H   1.0    0.30    1.00    1.43   223.16677   104.97670   276.86387
   374  H   1.0    0.16    1.00    1.43   225.77999   109.97859   279.48753
   375  H   1.0    0.30    1.00    1.43   230.94809   107.46555   273.27391
   376  H   1.0    0.15    1.00    1.43   234.78525   115.11821   274.50852
   377  H   1.0    0.31    1.00    1.43   235.72123   115.08177   266.04916
   378  H   1.0    0.16    1.00    1.43   238.66821   120.16307   268.46225
   379  H   1.0    0.29    1.00    1.43   220.68912   120.34710   251.51673
   380  H   1.0    0.14    1.00    1.43   206.60204   134.03912   292.72068

           ------------------------------------------------- 
          |        Self-Consistent Charge Iterations        |
           ------------------------------------------------- 

          ...................................................
          :                      SETUP                      :
          :.................................................:
          :  # basis functions                 923          :
          :  # atomic orbitals                 923          :
          :  # shells                          561          :
          :  # electrons                      1030          :
          :  max. iterations                   250          :
          :  Hamiltonian                  GFN2-xTB          :
          :  restarted?                      false          :
          :  GBSA solvation                   true          :
          :  PC potential                    false          :
          :  electronic temp.          500.0000000     K    :
          :  accuracy                    0.1000000          :
          :  -> integral cutoff          0.3500000E+02      :
          :  -> integral neglect         0.1000000E-08      :
          :  -> SCF convergence          0.1000000E-06 Eh   :
          :  -> wf. convergence          0.1000000E-04 e    :
          :  Broyden damping             0.4000000          :
          ...................................................

 iter      E             dE          RMSdq      gap      omega  full diag
   1   -592.3155596 -0.592316E+03  0.427E+00    1.82       0.0  T
   2   -593.8022119 -0.148665E+01  0.221E+00    1.33       1.0  T
   3   -593.8571746 -0.549627E-01  0.117E+00    1.73       1.0  T
   4   -593.8785167 -0.213421E-01  0.266E-01    1.33       1.0  T
   5   -593.8922368 -0.137201E-01  0.111E-01    1.41       1.0  T
   6   -593.8928056 -0.568814E-03  0.484E-02    1.37       1.0  T
   7   -593.8928559 -0.502838E-04  0.208E-02    1.36       1.0  T
   8   -593.8928994 -0.434759E-04  0.840E-03    1.36       1.0  T
   9   -593.8929055 -0.609114E-05  0.390E-03    1.36       1.3  T
  10   -593.8929065 -0.100303E-05  0.172E-03    1.36       3.0  T
  11   -593.8929067 -0.169916E-06  0.587E-04    1.36       8.7  T
  12   -593.8929067 -0.271287E-07  0.276E-04    1.36      18.6  T
  13   -593.8929067 -0.617729E-08  0.137E-04    1.36      37.5  T
  14   -593.8929067 -0.123975E-08  0.563E-05    1.36      91.1  T
  15   -593.8929067 -0.300702E-09  0.255E-05    1.36     201.1  T

   *** convergence criteria satisfied after 15 iterations ***

         #    Occupation            Energy/Eh            Energy/eV
      -------------------------------------------------------------
         1        2.0000           -0.7410488             -20.1650
       ...           ...                  ...                  ...
       509        2.0000           -0.3727911             -10.1442
       510        2.0000           -0.3674696              -9.9994
       511        2.0000           -0.3668549              -9.9826
       512        2.0000           -0.3633903              -9.8884
       513        2.0000           -0.3628814              -9.8745
       514        2.0000           -0.3624118              -9.8617
       515        2.0000           -0.3486683              -9.4877 (HOMO)
       516        0.0000           -0.2987301              -8.1289 (LUMO)
       517                         -0.2891268              -7.8675
       518                         -0.2855045              -7.7690
       519                         -0.2834980              -7.7144
       520                         -0.2806936              -7.6381
       ...                                ...                  ...
       923                          0.6665047              18.1365
      -------------------------------------------------------------
                  HL-Gap            0.0499383 Eh            1.3589 eV
             Fermi-level           -0.3237010 Eh           -8.8084 eV

 SCC (total)                   0 d,  0 h,  0 min,  4.998 sec
 SCC setup                      ...        0 min,  0.090 sec (  1.791%)
 Dispersion                     ...        0 min,  0.059 sec (  1.177%)
 integral evaluation            ...        0 min,  0.200 sec (  3.995%)
 zeroth order Hamiltonian       ...        0 min,  0.005 sec (  0.102%)
 iterations                     ...        0 min,  3.841 sec ( 76.863%)
 molecular gradient             ...        0 min,  0.774 sec ( 15.489%)
 printout                       ...        0 min,  0.029 sec (  0.580%)

         :::::::::::::::::::::::::::::::::::::::::::::::::::::
         ::                     SUMMARY                     ::
         :::::::::::::::::::::::::::::::::::::::::::::::::::::
         :: total energy             -586.872933107631 Eh   ::
         :: total w/o Gsasa/hb       -586.791525322002 Eh   ::
         :: gradient norm               0.587059907064 Eh/α ::
         :: HOMO-LUMO gap               1.358889938242 eV   ::
         ::.................................................::
         :: SCC energy               -593.911546595862 Eh   ::
         :: -> isotropic ES             1.842134379700 Eh   ::
         :: -> anisotropic ES          -0.083583124173 Eh   ::
         :: -> anisotropic XC           0.180682895170 Eh   ::
         :: -> dispersion              -0.476462263679 Eh   ::
         :: -> Gsolv                   -0.435949930814 Eh   ::
         ::    -> Gborn                -0.354542145185 Eh   ::
         ::    -> Gsasa                -0.020497336337 Eh   ::
         ::    -> Ghb                  -0.062767892418 Eh   ::
         ::    -> Gshift                0.001857443127 Eh   ::
         :: repulsion energy            7.000746180680 Eh   ::
         :: add. restraining            0.000000000000 Eh   ::
         :::::::::::::::::::::::::::::::::::::::::::::::::::::

           -------------------------------------------------
          |                Property Printout                |
           -------------------------------------------------

    * Orbital Energies and Occupations

         #    Occupation            Energy/Eh            Energy/eV
      -------------------------------------------------------------
         1        2.0000           -0.7410488             -20.1650
       ...           ...                  ...                  ...
       503        2.0000           -0.3938800             -10.7180
       504        2.0000           -0.3902911             -10.6204
       505        2.0000           -0.3888313             -10.5806
       506        2.0000           -0.3864496             -10.5158
       507        2.0000           -0.3845375             -10.4638
       508        2.0000           -0.3789474             -10.3117
       509        2.0000           -0.3727911             -10.1442
       510        2.0000           -0.3674696              -9.9994
       511        2.0000           -0.3668549              -9.9826
       512        2.0000           -0.3633903              -9.8884
       513        2.0000           -0.3628814              -9.8745
       514        2.0000           -0.3624118              -9.8617
       515        2.0000           -0.3486683              -9.4877 (HOMO)
       516        0.0000           -0.2987301              -8.1289 (LUMO)
       517                         -0.2891268              -7.8675
       518                         -0.2855045              -7.7690
       519                         -0.2834980              -7.7144
       520                         -0.2806936              -7.6381
       521                         -0.2772613              -7.5447
       522                         -0.2729351              -7.4269
       523                         -0.2584749              -7.0335
       524                         -0.2527365              -6.8773
       525                         -0.2467878              -6.7154
       526                         -0.2435935              -6.6285
       ...                                ...                  ...
       923                          0.6665047              18.1365
      -------------------------------------------------------------
                  HL-Gap            0.0499383 Eh            1.3589 eV
             Fermi-level           -0.3237010 Eh           -8.8084 eV

   #   Z        covCN         q      C6AA      α(0)
   1   7 N      2.632    -0.384    29.945     8.127
   2   6 C      3.737    -0.006    20.777     6.505
   3   6 C      2.750     0.274    22.371     7.745
   4   8 O      0.858    -0.516    24.145     6.588
   5   1 H      0.860     0.160     1.337     1.811
   6   1 H      0.924     0.053     2.285     2.364
   7   1 H      0.924     0.045     2.384     2.415
   8   7 N      2.691    -0.184    24.986     7.424
   9   6 C      3.788     0.038    19.947     6.361
  10   6 C      2.765     0.213    23.495     7.938
  11   8 O      0.856    -0.366    21.023     6.147
  12   6 C      3.809    -0.076    21.937     6.667
  13   6 C      3.849    -0.013    20.766     6.482
  14   6 C      3.757    -0.124    22.935     6.828
  15   6 C      3.754    -0.103    22.523     6.767
  16   1 H      0.860     0.214     1.037     1.595
  17   1 H      0.923     0.057     2.234     2.337
  18   1 H      0.924     0.075     2.028     2.227
  19   1 H      0.924     0.066     2.127     2.281
  20   1 H      0.924     0.044     2.399     2.422
  21   1 H      0.925     0.047     2.357     2.401
  22   1 H      0.925     0.069     2.098     2.265
  23   1 H      0.925     0.043     2.407     2.426
  24   1 H      0.925     0.037     2.487     2.466
  25   1 H      0.925     0.019     2.748     2.592
  26   1 H      0.925     0.030     2.588     2.516
  27   7 N      2.635    -0.398    30.320     8.178
  28   6 C      3.786     0.032    20.052     6.378
  29   6 C      2.757     0.268    22.482     7.764
  30   8 O      0.858    -0.475    23.228     6.462
  31   6 C      3.758    -0.119    22.828     6.812
  32   1 H      0.860     0.162     1.324     1.802
  33   1 H      0.924     0.037     2.485     2.465
  34   1 H      0.925     0.053     2.282     2.362
  35   1 H      0.925     0.047     2.363     2.404
  36   1 H      0.925     0.049     2.329     2.386
  37   7 N      2.689    -0.160    24.459     7.345
  38   6 C      3.791     0.008    20.447     6.440
  39   6 C      2.763     0.198    23.779     7.986
  40   8 O      0.856    -0.358    20.866     6.124
  41   6 C      3.803    -0.084    22.106     6.694
  42   6 C      3.801    -0.086    22.144     6.700
  43   6 C      3.803    -0.098    22.374     6.734
  44   6 C      3.730    -0.052    21.608     6.636
  45   7 N      3.483    -0.141    24.052     7.284
  46   1 H      0.860     0.205     1.083     1.630
  47   1 H      0.924     0.122     1.599     1.978
  48   1 H      0.924     0.053     2.285     2.364
  49   1 H      0.924     0.079     1.988     2.205
  50   1 H      0.925     0.065     2.138     2.287
  51   1 H      0.924     0.069     2.101     2.267
  52   1 H      0.924     0.083     1.948     2.183
  53   1 H      0.925     0.072     2.063     2.246
  54   1 H      0.924     0.111     1.684     2.029
  55   1 H      0.925     0.116     1.649     2.008
  56   1 H      0.859     0.298     0.718     1.328
  57   1 H      0.859     0.294     0.731     1.339
  58   1 H      0.859     0.295     0.727     1.336
  59   7 N      2.633    -0.398    30.316     8.177
  60   6 C      3.784     0.035    20.010     6.372
  61   6 C      2.764     0.192    23.904     8.007
  62   8 O      0.856    -0.373    21.152     6.166
  63   6 C      3.804    -0.070    21.828     6.651
  64   6 C      3.807    -0.114    22.672     6.778
  65   6 C      2.744     0.285    22.162     7.708
  66   8 O      0.859    -0.483    23.409     6.487
  67   7 N      2.639    -0.259    26.725     7.678
  68   1 H      0.860     0.172     1.260     1.758
  69   1 H      0.923     0.070     2.091     2.261
  70   1 H      0.924     0.072     2.063     2.246
  71   1 H      0.924     0.045     2.383     2.414
  72   1 H      0.924     0.091     1.873     2.140
  73   1 H      0.925     0.078     2.001     2.212
  74   1 H      0.860     0.204     1.087     1.633
  75   1 H      0.860     0.198     1.118     1.656
  76   7 N      2.635    -0.385    29.950     8.128
  77   6 C      3.780     0.048    19.787     6.337
  78   6 C      2.767     0.195    23.830     7.995
  79   8 O      0.856    -0.359    20.882     6.127
  80   6 C      3.757    -0.122    22.889     6.821
  81   1 H      0.860     0.159     1.341     1.814
  82   1 H      0.923     0.042     2.427     2.436
  83   1 H      0.925     0.051     2.305     2.374
  84   1 H      0.925     0.072     2.063     2.246
  85   1 H      0.925     0.064     2.156     2.296
  86   7 N      2.636    -0.389    30.058     8.142
  87   6 C      3.786     0.038    19.952     6.362
  88   6 C      2.764     0.265    22.524     7.772
  89   8 O      0.859    -0.505    23.886     6.553
  90   6 C      3.813    -0.079    22.005     6.677
  91   6 C      2.967     0.013    27.710     8.634
  92   6 C      2.928    -0.045    29.113     8.849
  93   6 C      2.922    -0.041    29.015     8.833
  94   6 C      2.919    -0.035    28.868     8.811
  95   6 C      2.921    -0.034    28.848     8.808
  96   6 C      2.919    -0.037    28.931     8.820
  97   1 H      0.860     0.155     1.370     1.833
  98   1 H      0.924     0.036     2.502     2.474
  99   1 H      0.924     0.078     1.998     2.210
 100   1 H      0.924     0.052     2.300     2.371
 101   1 H      0.925     0.041     2.430     2.438
 102   1 H      0.926     0.026     2.650     2.546
 103   1 H      0.926     0.041     2.436     2.441
 104   1 H      0.926     0.027     2.635     2.539
 105   1 H      0.926     0.031     2.574     2.509
 106   7 N      2.690    -0.164    24.556     7.360
 107   6 C      3.799     0.023    20.184     6.397
 108   6 C      2.766     0.199    23.753     7.982
 109   8 O      0.856    -0.346    20.626     6.089
 110   6 C      3.726     0.110    18.869     6.202
 111   8 O      1.656    -0.458    21.998     6.331
 112   6 C      3.753    -0.144    23.329     6.888
 113   1 H      0.860     0.243     0.909     1.494
 114   1 H      0.923     0.094     1.837     2.120
 115   1 H      0.923     0.034     2.536     2.490
 116   1 H      0.805     0.332     0.631     1.248
 117   1 H      0.925     0.068     2.107     2.270
 118   1 H      0.925     0.051     2.313     2.378
 119   1 H      0.925     0.074     2.038     2.233
 120   7 N      2.635    -0.408    30.606     8.216
 121   6 C      3.787     0.044    19.845     6.345
 122   6 C      2.766     0.206    23.629     7.961
 123   8 O      0.856    -0.399    21.670     6.241
 124   6 C      3.852    -0.023    20.955     6.511
 125   6 C      3.803    -0.060    21.658     6.626
 126   6 C      3.756    -0.115    22.751     6.801
 127   6 C      3.751    -0.113    22.715     6.797
 128   1 H      0.860     0.188     1.171     1.695
 129   1 H      0.923     0.031     2.568     2.506
 130   1 H      0.924     0.058     2.223     2.332
 131   1 H      0.924     0.029     2.594     2.519
 132   1 H      0.924     0.046     2.376     2.411
 133   1 H      0.925     0.061     2.184     2.311
 134   1 H      0.925     0.023     2.691     2.565
 135   1 H      0.925     0.042     2.426     2.436
 136   1 H      0.925     0.045     2.378     2.411
 137   1 H      0.925     0.041     2.442     2.444
 138   1 H      0.925     0.045     2.389     2.417
 139   7 N      2.633    -0.390    30.107     8.149
 140   6 C      3.784     0.010    20.433     6.439
 141   6 C      2.756     0.257    22.672     7.797
 142   8 O      0.859    -0.485    23.459     6.494
 143   6 C      3.724     0.120    18.718     6.178
 144   8 O      1.656    -0.470    22.262     6.369
 145   6 C      3.754    -0.126    22.968     6.834
 146   1 H      0.860     0.172     1.260     1.759
 147   1 H      0.923     0.050     2.316     2.380
 148   1 H      0.923     0.017     2.784     2.609
 149   1 H      0.804     0.321     0.661     1.278
 150   1 H      0.925     0.059     2.205     2.322
 151   1 H      0.925     0.054     2.265     2.353
 152   1 H      0.925     0.060     2.204     2.322
 153   7 N      2.688    -0.166    24.600     7.366
 154   6 C      3.803     0.010    20.406     6.431
 155   6 C      2.762     0.279    22.275     7.729
 156   8 O      0.859    -0.475    23.247     6.464
 157   6 C      3.853    -0.024    20.959     6.511
 158   6 C      3.756    -0.119    22.844     6.815
 159   6 C      3.757    -0.122    22.897     6.822
 160   1 H      0.860     0.216     1.028     1.588
 161   1 H      0.923     0.085     1.933     2.174
 162   1 H      0.924     0.052     2.290     2.366
 163   1 H      0.925     0.060     2.204     2.321
 164   1 H      0.925     0.042     2.419     2.432
 165   1 H      0.925     0.053     2.283     2.363
 166   1 H      0.925     0.056     2.246     2.344
 167   1 H      0.925     0.056     2.246     2.344
 168   1 H      0.925     0.045     2.381     2.413
 169   7 N      2.693    -0.173    24.739     7.387
 170   6 C      3.804     0.024    20.161     6.392
 171   6 C      2.759     0.276    22.332     7.739
 172   8 O      0.858    -0.478    23.310     6.473
 173   6 C      3.810    -0.121    22.814     6.799
 174   6 C      2.743     0.289    22.093     7.696
 175   8 O      0.859    -0.485    23.456     6.493
 176   7 N      2.639    -0.289    27.463     7.783
 177   1 H      0.860     0.217     1.022     1.584
 178   1 H      0.923     0.089     1.888     2.149
 179   1 H      0.924     0.092     1.859     2.132
 180   1 H      0.924     0.097     1.812     2.105
 181   1 H      0.860     0.234     0.946     1.524
 182   1 H      0.860     0.237     0.936     1.516
 183   7 N      2.691    -0.169    24.648     7.373
 184   6 C      3.800     0.022    20.206     6.400
 185   6 C      2.755     0.270    22.447     7.758
 186   8 O      0.858    -0.492    23.602     6.514
 187   6 C      3.809    -0.112    22.633     6.772
 188   6 C      2.745     0.291    22.066     7.692
 189   8 O      0.859    -0.489    23.531     6.504
 190   7 N      2.637    -0.278    27.181     7.743
 191   1 H      0.860     0.209     1.062     1.614
 192   1 H      0.923     0.085     1.931     2.173
 193   1 H      0.925     0.084     1.940     2.178
 194   1 H      0.924     0.091     1.873     2.140
 195   1 H      0.860     0.241     0.919     1.502
 196   1 H      0.860     0.215     1.031     1.591
 197   7 N      2.690    -0.181    24.912     7.413
 198   6 C      3.798     0.017    20.290     6.414
 199   6 C      2.765     0.271    22.426     7.755
 200   8 O      0.859    -0.485    23.459     6.494
 201   6 C      3.811    -0.082    22.058     6.685
 202   6 C      3.849    -0.015    20.803     6.487
 203   6 C      3.757    -0.110    22.655     6.786
 204   6 C      3.756    -0.119    22.844     6.815
 205   1 H      0.860     0.247     0.894     1.481
 206   1 H      0.924     0.078     2.004     2.214
 207   1 H      0.924     0.066     2.126     2.280
 208   1 H      0.924     0.065     2.140     2.288
 209   1 H      0.924     0.046     2.369     2.407
 210   1 H      0.925     0.039     2.463     2.454
 211   1 H      0.925     0.034     2.526     2.485
 212   1 H      0.925     0.041     2.429     2.437
 213   1 H      0.925     0.043     2.412     2.429
 214   1 H      0.925     0.043     2.405     2.425
 215   1 H      0.925     0.042     2.425     2.435
 216   7 N      2.690    -0.183    24.957     7.420
 217   6 C      3.803    -0.001    20.590     6.460
 218   6 C      2.760     0.282    22.226     7.720
 219   8 O      0.858    -0.490    23.562     6.508
 220   6 C      3.724     0.108    18.906     6.209
 221   8 O      1.655    -0.479    22.455     6.397
 222   6 C      3.752    -0.148    23.419     6.901
 223   1 H      0.860     0.237     0.935     1.515
 224   1 H      0.924     0.081     1.969     2.194
 225   1 H      0.924     0.057     2.229     2.335
 226   1 H      0.804     0.325     0.651     1.267
 227   1 H      0.925     0.067     2.113     2.273
 228   1 H      0.925     0.064     2.152     2.294
 229   1 H      0.925     0.072     2.063     2.246
 230   7 N      2.691    -0.179    24.875     7.407
 231   6 C      3.799     0.014    20.337     6.421
 232   6 C      2.755     0.273    22.383     7.747
 233   8 O      0.858    -0.489    23.536     6.504
 234   6 C      3.678     0.065    19.699     6.358
 235   8 O      1.656    -0.476    22.386     6.387
 236   1 H      0.860     0.224     0.993     1.561
 237   1 H      0.923     0.076     2.017     2.221
 238   1 H      0.924     0.054     2.273     2.358
 239   1 H      0.924     0.052     2.300     2.371
 240   1 H      0.805     0.364     0.557     1.172
 241   7 N      2.692    -0.185    25.003     7.426
 242   6 C      3.795     0.021    20.223     6.404
 243   6 C      2.768     0.272    22.403     7.752
 244   8 O      0.859    -0.494    23.653     6.521
 245   6 C      3.757    -0.138    23.219     6.870
 246   1 H      0.860     0.236     0.940     1.519
 247   1 H      0.923     0.080     1.983     2.202
 248   1 H      0.925     0.074     2.045     2.236
 249   1 H      0.925     0.079     1.993     2.207
 250   1 H      0.925     0.070     2.085     2.258
 251   7 N      2.689    -0.185    25.015     7.428
 252   6 C      3.805     0.023    20.188     6.396
 253   6 C      2.753     0.280    22.260     7.726
 254   8 O      0.859    -0.509    23.989     6.567
 255   6 C      3.806    -0.083    22.080     6.689
 256   6 C      3.801    -0.080    22.036     6.684
 257   6 C      3.741    -0.036    21.297     6.584
 258   7 N      2.700    -0.142    24.077     7.288
 259   6 C      2.736     0.233    23.112     7.871
 260   7 N      2.647    -0.262    26.807     7.690
 261   7 N      2.653    -0.273    27.052     7.725
 262   1 H      0.860     0.243     0.911     1.495
 263   1 H      0.923     0.079     1.993     2.208
 264   1 H      0.924     0.073     2.054     2.241
 265   1 H      0.924     0.080     1.982     2.202
 266   1 H      0.925     0.072     2.064     2.247
 267   1 H      0.924     0.040     2.450     2.448
 268   1 H      0.925     0.092     1.863     2.135
 269   1 H      0.925     0.103     1.759     2.074
 270   1 H      0.860     0.223     0.995     1.563
 271   1 H      0.858     0.261     0.844     1.439
 272   1 H      0.860     0.216     1.029     1.589
 273   1 H      0.860     0.248     0.892     1.480
 274   1 H      0.860     0.241     0.921     1.503
 275   7 N      2.690    -0.190    25.122     7.444
 276   6 C      3.790     0.020    20.246     6.408
 277   6 C      2.754     0.278    22.292     7.731
 278   8 O      0.859    -0.497    23.716     6.529
 279   6 C      3.680     0.067    19.659     6.350
 280   8 O      1.656    -0.453    21.910     6.319
 281   1 H      0.860     0.239     0.929     1.510
 282   1 H      0.923     0.047     2.358     2.402
 283   1 H      0.923     0.046     2.374     2.409
 284   1 H      0.924     0.079     1.987     2.204
 285   1 H      0.805     0.331     0.634     1.250
 286   7 N      2.688    -0.185    25.012     7.428
 287   6 C      3.797     0.017    20.288     6.414
 288   6 C      2.754     0.273    22.376     7.746
 289   8 O      0.858    -0.499    23.771     6.537
 290   6 C      3.805    -0.079    22.000     6.677
 291   6 C      3.801    -0.086    22.148     6.700
 292   6 C      3.736    -0.030    21.200     6.571
 293   7 N      2.699    -0.141    24.057     7.285
 294   6 C      2.735     0.235    23.071     7.864
 295   7 N      2.650    -0.233    26.116     7.590
 296   7 N      2.655    -0.249    26.478     7.642
 297   1 H      0.860     0.224     0.993     1.561
 298   1 H      0.924     0.075     2.028     2.227
 299   1 H      0.924     0.079     1.988     2.205
 300   1 H      0.925     0.065     2.146     2.291
 301   1 H      0.925     0.082     1.954     2.186
 302   1 H      0.924     0.065     2.143     2.289
 303   1 H      0.925     0.093     1.847     2.125
 304   1 H      0.924     0.097     1.815     2.107
 305   1 H      0.860     0.213     1.042     1.599
 306   1 H      0.860     0.246     0.898     1.484
 307   1 H      0.860     0.249     0.888     1.476
 308   1 H      0.860     0.228     0.974     1.546
 309   1 H      0.860     0.238     0.931     1.512
 310   7 N      2.690    -0.186    25.040     7.432
 311   6 C      3.801     0.014    20.343     6.422
 312   6 C      2.757     0.276    22.340     7.740
 313   8 O      0.858    -0.491    23.577     6.510
 314   6 C      3.854    -0.026    20.999     6.517
 315   6 C      3.803    -0.068    21.797     6.647
 316   6 C      3.757    -0.137    23.189     6.866
 317   6 C      3.752    -0.112    22.712     6.796
 318   1 H      0.860     0.207     1.070     1.620
 319   1 H      0.924     0.081     1.967     2.193
 320   1 H      0.924     0.036     2.499     2.472
 321   1 H      0.924     0.046     2.366     2.405
 322   1 H      0.924     0.042     2.425     2.435
 323   1 H      0.925     0.080     1.983     2.202
 324   1 H      0.925     0.043     2.411     2.428
 325   1 H      0.925     0.063     2.169     2.303
 326   1 H      0.925     0.044     2.396     2.421
 327   1 H      0.925     0.032     2.553     2.499
 328   1 H      0.925     0.060     2.201     2.320
 329   7 N      2.693    -0.199    25.333     7.475
 330   6 C      3.799     0.035    19.983     6.365
 331   6 C      2.763     0.282    22.228     7.721
 332   8 O      0.858    -0.519    24.216     6.598
 333   6 C      3.812    -0.034    21.169     6.549
 334   6 C      3.800    -0.098    22.377     6.735
 335   6 C      2.686     0.365    20.816     7.467
 336   8 O      0.856    -0.625    26.739     6.933
 337   8 O      0.857    -0.591    25.893     6.822
 338   1 H      0.860     0.235     0.943     1.521
 339   1 H      0.924     0.047     2.355     2.400
 340   1 H      0.924     0.026     2.638     2.540
 341   1 H      0.924     0.023     2.691     2.565
 342   1 H      0.924     0.041     2.433     2.439
 343   1 H      0.925     0.050     2.314     2.379
 344   7 N      2.695    -0.201    25.364     7.480
 345   6 C      3.796     0.041    19.895     6.351
 346   6 C      2.763     0.280    22.261     7.727
 347   8 O      0.858    -0.488    23.514     6.501
 348   6 C      3.808    -0.106    22.513     6.754
 349   6 C      2.684     0.372    20.699     7.445
 350   8 O      0.856    -0.597    26.051     6.843
 351   8 O      0.856    -0.618    26.568     6.911
 352   1 H      0.859     0.228     0.975     1.547
 353   1 H      0.924     0.054     2.271     2.357
 354   1 H      0.925     0.035     2.517     2.481
 355   1 H      0.924     0.060     2.201     2.320
 356   7 N      2.689    -0.182    24.933     7.416
 357   6 C      3.793     0.037    19.965     6.363
 358   6 C      2.769     0.204    23.670     7.968
 359   8 O      0.856    -0.341    20.541     6.076
 360   6 C      3.677     0.083    19.421     6.314
 361   8 O      1.655    -0.475    22.355     6.383
 362   1 H      0.860     0.209     1.059     1.612
 363   1 H      0.923     0.065     2.147     2.291
 364   1 H      0.923     0.051     2.307     2.375
 365   1 H      0.924     0.060     2.199     2.319
 366   1 H      0.805     0.360     0.566     1.181
 367   1 H      0.862     0.184     1.193     1.711
 368   1 H      0.930     0.079     1.985     2.203
 369   1 H      0.862     0.178     1.225     1.733
 370   1 H      0.930     0.076     2.023     2.224
 371   1 H      0.862     0.187     1.175     1.698
 372   1 H      0.930     0.073     2.052     2.240
 373   1 H      0.862     0.175     1.243     1.747
 374   1 H      0.930     0.077     2.007     2.215
 375   1 H      0.862     0.175     1.242     1.745
 376   1 H      0.930     0.072     2.059     2.244
 377   1 H      0.862     0.170     1.272     1.766
 378   1 H      0.930     0.065     2.142     2.288
 379   1 H      0.862     0.186     1.180     1.702
 380   1 H      0.930     0.092     1.861     2.133

 Mol. C6AA /au·bohr⁶  :    1285750.438293
 Mol. C8AA /au·bohr⁸  :   28250118.496357
 Mol. α(0) /au        :       1691.037098


Wiberg/Mayer (AO) data.
largest (>0.10) Wiberg bond orders for each atom
          total WBO             WBO to atom ...
     1  N   2.994        C    2 1.034    H    5 0.961    H  367 0.951
     2  C   3.988        N    1 1.034    H    7 0.957    H    6 0.955    C    3 0.949
     3  C   3.944        O    4 1.613    N    8 1.309    C    2 0.949
     4  O   1.936        C    3 1.613    N    8 0.188
     5  H   0.974        N    1 0.961
     6  H   0.997        C    2 0.955
     7  H   0.998        C    2 0.957
     8  N   3.460        C    3 1.309    C    9 0.977    H   16 0.890    O    4 0.188
     9  C   3.967        N    8 0.977    C   10 0.977    C   12 0.958    H   17 0.950
    10  C   3.903        O   11 1.896    C    9 0.977    H  368 0.953
    11  O   2.048        C   10 1.896
    12  C   3.981        C   13 0.997    H   18 0.968    H   19 0.965    C    9 0.958
    13  C   3.993        C   15 1.010    C   14 1.006    C   12 0.997    H   20 0.966
    14  C   3.993        C   13 1.006    H   23 0.984    H   21 0.982    H   22 0.977
    15  C   3.995        C   13 1.010    H   25 0.985    H   26 0.983    H   24 0.983
    16  H   0.954        N    8 0.890
    17  H   0.997        C    9 0.950
    18  H   0.994        C   12 0.968
    19  H   0.996        C   12 0.965
    20  H   0.998        C   13 0.966
    21  H   0.998        C   14 0.982
    22  H   0.995        C   14 0.977
    23  H   0.998        C   14 0.984
    24  H   0.999        C   15 0.983
    25  H   1.000        C   15 0.985
    26  H   0.999        C   15 0.983
    27  N   2.991        C   28 1.011    H  369 0.958    H   32 0.956
    28  C   3.983        N   27 1.011    C   31 0.991    H   33 0.964    C   29 0.938
    29  C   3.950        O   30 1.641    N   37 1.291    C   28 0.938
    30  O   1.966        C   29 1.641    N   37 0.196
    31  C   3.992        C   28 0.991    H   34 0.984    H   36 0.984    H   35 0.982
    32  H   0.974        N   27 0.956
    33  H   0.998        C   28 0.964
    34  H   0.997        C   31 0.984
    35  H   0.997        C   31 0.982
    36  H   0.998        C   31 0.984
    37  N   3.477        C   29 1.291    C   38 0.974    H   46 0.926    O   30 0.196
    38  C   3.956        C   41 0.982    N   37 0.974    C   39 0.969    H   47 0.918
    39  C   3.897        O   40 1.908    C   38 0.969    H  370 0.954
    40  O   2.055        C   39 1.908
    41  C   3.986        C   42 1.007    C   38 0.982    H   48 0.973    H   49 0.965
    42  C   3.991        C   41 1.007    C   43 1.006    H   51 0.969    H   50 0.967
    43  C   3.984        C   44 1.012    C   42 1.006    H   53 0.965    H   52 0.960
    44  C   3.916        C   43 1.012    H   54 0.966    H   55 0.959    N   45 0.954
    45  N   3.668        C   44 0.954    H   56 0.898    H   58 0.897    H   57 0.894
    46  H   0.958        N   37 0.926
    47  H   0.985        C   38 0.918
    48  H   0.997        C   41 0.973
    49  H   0.993        C   41 0.965
    50  H   0.996        C   42 0.967
    51  H   0.995        C   42 0.969
    52  H   0.993        C   43 0.960
    53  H   0.995        C   43 0.965
    54  H   0.987        C   44 0.966
    55  H   0.987        C   44 0.959
    56  H   0.911        N   45 0.898
    57  H   0.913        N   45 0.894
    58  H   0.913        N   45 0.897
    59  N   2.996        C   60 1.022    H  371 0.953    H   68 0.952
    60  C   3.985        N   59 1.022    C   61 0.979    C   63 0.961    H   69 0.938
    61  C   3.893        O   62 1.891    C   60 0.979    H  372 0.954
    62  O   2.037        C   61 1.891
    63  C   3.992        C   64 0.988    H   71 0.974    H   70 0.969    C   60 0.961
    64  C   3.990        C   63 0.988    H   72 0.968    C   65 0.966    H   73 0.957
    65  C   3.939        O   66 1.643    N   67 1.300    C   64 0.966
    66  O   1.957        C   65 1.643    N   67 0.200
    67  N   3.410        C   65 1.300    H   75 0.938    H   74 0.935    O   66 0.200
    68  H   0.970        N   59 0.952
    69  H   0.995        C   60 0.938
    70  H   0.995        C   63 0.969
    71  H   0.998        C   63 0.974
    72  H   0.992        C   64 0.968
    73  H   0.994        C   64 0.957
    74  H   0.958        N   67 0.935
    75  H   0.961        N   67 0.938
    76  N   2.999        C   77 1.009    H  373 0.958    H   81 0.954
    77  C   3.983        N   76 1.009    C   80 0.981    C   78 0.973    H   82 0.958
    78  C   3.887        O   79 1.880    C   77 0.973    H  374 0.954
    79  O   2.060        C   78 1.880
    80  C   3.988        H   83 0.984    C   77 0.981    H   85 0.979    H   84 0.973
    81  H   0.975        N   76 0.954
    82  H   0.998        C   77 0.958
    83  H   0.997        C   80 0.984
    84  H   0.995        C   80 0.973
    85  H   0.996        C   80 0.979
    86  N   2.997        C   87 1.014    H  375 0.958    H   97 0.955
    87  C   3.985        N   86 1.014    C   90 0.978    H   98 0.957    C   88 0.939
    88  C   3.943        O   89 1.593    N  106 1.322    C   87 0.939
    89  O   1.950        C   88 1.593    N  106 0.192
    90  C   3.991        C   91 1.008    C   87 0.978    H  100 0.955    H   99 0.952
    91  C   3.988        C   93 1.421    C   92 1.401    C   90 1.008    C   96 0.110
    92  C   3.990        C   94 1.455    C   91 1.401    H  101 0.968    C   95 0.113
    93  C   3.992        C   95 1.436    C   91 1.421    H  102 0.965    C   94 0.109
    94  C   3.991        C   92 1.455    C   96 1.430    H  103 0.970    C   93 0.109
    95  C   3.993        C   96 1.446    C   93 1.436    H  104 0.972    C   92 0.113
    96  C   3.992        C   95 1.446    C   94 1.430    H  105 0.971    C   91 0.110
    97  H   0.976        N   86 0.955
    98  H   0.998        C   87 0.957
    99  H   0.994        C   90 0.952
   100  H   0.997        C   90 0.955
   101  H   0.998        C   92 0.968
   102  H   0.999        C   93 0.965
   103  H   0.998        C   94 0.970
   104  H   0.999        C   95 0.972
   105  H   0.998        C   96 0.971
   106  N   3.476        C   88 1.322    C  107 0.984    H  113 0.888    O   89 0.192
   107  C   3.969        N  106 0.984    C  108 0.972    C  110 0.952    H  114 0.940
   108  C   3.904        O  109 1.904    C  107 0.972    H  376 0.954
   109  O   2.058        C  108 1.904
   110  C   3.960        C  112 1.000    O  111 0.995    H  115 0.960    C  107 0.952
   111  O   1.946        C  110 0.995    H  116 0.872
   112  C   3.988        C  110 1.000    H  118 0.982    H  117 0.982    H  119 0.982
   113  H   0.941        N  106 0.888
   114  H   0.991        C  107 0.940
   115  H   0.999        C  110 0.960
   116  H   0.890        O  111 0.872
   117  H   0.995        C  112 0.982
   118  H   0.997        C  112 0.982
   119  H   0.994        C  112 0.982
   120  N   3.000        C  121 1.011    H  377 0.960    H  128 0.909
   121  C   3.983        N  120 1.011    C  122 0.975    H  129 0.960    C  124 0.950
   122  C   3.884        O  123 1.873    C  121 0.975    H  378 0.956
   123  O   2.012        C  122 1.873
   124  C   3.988        C  126 1.008    C  125 0.994    H  130 0.957    C  121 0.950
   125  C   3.995        C  127 1.017    C  124 0.994    H  131 0.974    H  132 0.969
   126  C   3.995        C  124 1.008    H  135 0.985    H  134 0.982    H  133 0.981
   127  C   3.994        C  125 1.017    H  137 0.984    H  136 0.983    H  138 0.983
   128  H   0.965        N  120 0.909
   129  H   0.999        C  121 0.960
   130  H   0.996        C  124 0.957
   131  H   0.999        C  125 0.974
   132  H   0.998        C  125 0.969
   133  H   0.996        C  126 0.981
   134  H   0.999        C  126 0.982
   135  H   0.998        C  126 0.985
   136  H   0.997        C  127 0.983
   137  H   0.998        C  127 0.984
   138  H   0.998        C  127 0.983
   139  N   2.994        C  140 1.023    H  379 0.954    H  146 0.947
   140  C   3.985        N  139 1.023    H  147 0.959    C  143 0.945    C  141 0.940
   141  C   3.944        O  142 1.590    N  153 1.322    C  140 0.940
   142  O   1.977        C  141 1.590    N  153 0.194
   143  C   3.954        C  145 1.002    O  144 0.997    H  148 0.958    C  140 0.945
   144  O   1.954        C  143 0.997    H  149 0.874
   145  C   3.990        C  143 1.002    H  151 0.984    H  152 0.984    H  150 0.982
   146  H   0.970        N  139 0.947
   147  H   0.997        C  140 0.959
   148  H   1.000        C  143 0.958
   149  H   0.897        O  144 0.874
   150  H   0.996        C  145 0.982
   151  H   0.997        C  145 0.984
   152  H   0.996        C  145 0.984
   153  N   3.483        C  141 1.322    C  154 0.972    H  160 0.914    O  142 0.194
   154  C   3.960        N  153 0.972    C  157 0.965    H  161 0.944    C  155 0.942
   155  C   3.947        O  156 1.605    N  169 1.302    C  154 0.942
   156  O   1.981        C  155 1.605    N  169 0.188
   157  C   3.988        C  159 1.009    C  158 1.007    C  154 0.965    H  162 0.962
   158  C   3.991        C  157 1.007    H  164 0.983    H  165 0.983    H  163 0.983
   159  C   3.991        C  157 1.009    H  168 0.983    H  166 0.982    H  167 0.980
   160  H   0.953        N  153 0.914
   161  H   0.992        C  154 0.944
   162  H   0.997        C  157 0.962
   163  H   0.996        C  158 0.983
   164  H   0.998        C  158 0.983
   165  H   0.997        C  158 0.983
   166  H   0.996        C  159 0.982
   167  H   0.997        C  159 0.980
   168  H   0.998        C  159 0.983
   169  N   3.467        C  155 1.302    C  170 0.977    H  177 0.918    O  156 0.188
   170  C   3.965        C  173 0.989    N  169 0.977    H  178 0.948    C  171 0.935
   171  C   3.948        O  172 1.618    N  183 1.303    C  170 0.935
   172  O   1.980        C  171 1.618    N  183 0.190
   173  C   3.988        C  170 0.989    C  174 0.957    H  180 0.955    H  179 0.954
   174  C   3.950        O  175 1.658    N  176 1.309    C  173 0.957
   175  O   1.970        C  174 1.658    N  176 0.205
   176  N   3.396        C  174 1.309    H  182 0.926    H  181 0.924    O  175 0.205
   177  H   0.952        N  169 0.918
   178  H   0.992        C  170 0.948
   179  H   0.991        C  173 0.954
   180  H   0.990        C  173 0.955
   181  H   0.944        N  176 0.924
   182  H   0.944        N  176 0.926
   183  N   3.472        C  171 1.303    C  184 0.981    H  191 0.913    O  172 0.190
   184  C   3.963        N  183 0.981    C  187 0.971    H  192 0.950    C  185 0.925
   185  C   3.954        O  186 1.593    N  197 1.347    C  184 0.925
   186  O   1.964        C  185 1.593    N  197 0.203
   187  C   3.985        C  184 0.971    H  194 0.964    H  193 0.961    C  188 0.958
   188  C   3.948        O  189 1.660    N  190 1.304    C  187 0.958
   189  O   1.965        C  188 1.660    N  190 0.204
   190  N   3.396        C  188 1.304    H  196 0.931    H  195 0.921    O  189 0.204
   191  H   0.956        N  183 0.913
   192  H   0.992        C  184 0.950
   193  H   0.993        C  187 0.961
   194  H   0.991        C  187 0.964
   195  H   0.941        N  190 0.921
   196  H   0.954        N  190 0.931
   197  N   3.491        C  185 1.347    C  198 0.976    H  205 0.863    O  186 0.203
   198  C   3.963        C  201 0.979    N  197 0.976    H  206 0.945    C  199 0.940
   199  C   3.948        O  200 1.604    N  216 1.316    C  198 0.940
   200  O   1.969        C  199 1.604    N  216 0.195
   201  C   3.985        C  202 0.992    C  198 0.979    H  208 0.970    H  207 0.965
   202  C   3.994        C  204 1.011    C  203 1.007    C  201 0.992    H  209 0.964
   203  C   3.994        C  202 1.007    H  210 0.985    H  212 0.985    H  211 0.982
   204  C   3.994        C  202 1.011    H  213 0.985    H  214 0.985    H  215 0.982
   205  H   0.939        N  197 0.863
   206  H   0.993        C  198 0.945
   207  H   0.996        C  201 0.965
   208  H   0.995        C  201 0.970
   209  H   0.998        C  202 0.964
   210  H   0.998        C  203 0.985
   211  H   0.999        C  203 0.982
   212  H   0.998        C  203 0.985
   213  H   0.998        C  204 0.985
   214  H   0.998        C  204 0.985
   215  H   0.998        C  204 0.982
   216  N   3.473        C  199 1.316    C  217 0.983    H  223 0.881    O  200 0.195
   217  C   3.965        N  216 0.983    H  224 0.948    C  220 0.948    C  218 0.939
   218  C   3.946        O  219 1.609    N  230 1.310    C  217 0.939
   219  O   1.969        C  218 1.609    N  230 0.193
   220  C   3.952        O  221 1.006    C  222 0.995    H  225 0.960    C  217 0.948
   221  O   1.955        C  220 1.006    H  226 0.847
   222  C   3.987        C  220 0.995    H  228 0.983    H  227 0.982    H  229 0.969
   223  H   0.943        N  216 0.881
   224  H   0.993        C  217 0.948
   225  H   0.996        C  220 0.960
   226  H   0.894        O  221 0.847
   227  H   0.995        C  222 0.982
   228  H   0.996        C  222 0.983
   229  H   0.995        C  222 0.969
   230  N   3.473        C  218 1.310    C  231 0.983    H  236 0.902    O  219 0.193
   231  C   3.965        N  230 0.983    C  234 0.979    H  237 0.949    C  232 0.928
   232  C   3.955        O  233 1.623    N  241 1.327    C  231 0.928
   233  O   1.955        C  232 1.623    N  241 0.203
   234  C   3.958        O  235 1.004    C  231 0.979    H  238 0.965    H  239 0.965
   235  O   1.936        C  234 1.004    H  240 0.854
   236  H   0.950        N  230 0.902
   237  H   0.994        C  231 0.949
   238  H   0.997        C  234 0.965
   239  H   0.997        C  234 0.965
   240  H   0.867        O  235 0.854
   241  N   3.479        C  232 1.327    C  242 0.974    H  246 0.876    O  233 0.203
   242  C   3.965        C  245 0.997    N  241 0.974    H  247 0.952    C  243 0.940
   243  C   3.945        O  244 1.593    N  251 1.322    C  242 0.940
   244  O   1.955        C  243 1.593    N  251 0.191
   245  C   3.982        C  242 0.997    H  248 0.981    H  249 0.978    H  250 0.978
   246  H   0.944        N  241 0.876
   247  H   0.993        C  242 0.952
   248  H   0.994        C  245 0.981
   249  H   0.994        C  245 0.978
   250  H   0.995        C  245 0.978
   251  N   3.477        C  243 1.322    C  252 0.985    H  262 0.879    O  244 0.191
   252  C   3.966        N  251 0.985    C  255 0.980    H  263 0.943    C  253 0.936
   253  C   3.938        O  254 1.578    N  275 1.321    C  252 0.936
   254  O   1.954        C  253 1.578    N  275 0.188
   255  C   3.983        C  256 1.007    C  252 0.980    H  265 0.968    H  264 0.965
   256  C   3.992        C  255 1.007    C  257 0.991    H  267 0.975    H  266 0.966
   257  C   3.951        C  256 0.991    N  258 0.990    H  269 0.965    H  268 0.959
   258  N   3.449        C  259 1.288    C  257 0.990    H  270 0.921    N  260 0.107
   259  C   3.976        N  260 1.374    N  258 1.288    N  261 1.282
   260  N   3.421        C  259 1.374    H  272 0.929    H  271 0.810    N  261 0.108    N  258 0.107
   261  N   3.359        C  259 1.282    H  274 0.923    H  273 0.919    N  260 0.108
   262  H   0.941        N  251 0.879
   263  H   0.993        C  252 0.943
   264  H   0.994        C  255 0.965
   265  H   0.993        C  255 0.968
   266  H   0.995        C  256 0.966
   267  H   0.998        C  256 0.975
   268  H   0.991        C  257 0.959
   269  H   0.989        C  257 0.965
   270  H   0.950        N  258 0.921
   271  H   0.932        N  260 0.810
   272  H   0.953        N  260 0.929
   273  H   0.938        N  261 0.919
   274  H   0.942        N  261 0.923
   275  N   3.478        C  253 1.321    C  276 0.991    H  281 0.878    O  254 0.188
   276  C   3.968        N  275 0.991    C  279 0.964    H  282 0.945    C  277 0.935
   277  C   3.953        O  278 1.612    N  286 1.320    C  276 0.935
   278  O   1.945        C  277 1.612    N  286 0.195
   279  C   3.955        O  280 1.019    H  283 0.965    C  276 0.964    H  284 0.957
   280  O   1.959        C  279 1.019    H  285 0.871
   281  H   0.943        N  275 0.878
   282  H   0.997        C  276 0.945
   283  H   0.997        C  279 0.965
   284  H   0.994        C  279 0.957
   285  H   0.890        O  280 0.871
   286  N   3.482        C  277 1.320    C  287 0.985    H  297 0.874    O  278 0.195
   287  C   3.958        N  286 0.985    C  290 0.966    H  298 0.947    C  288 0.933
   288  C   3.946        O  289 1.630    N  310 1.301    C  287 0.933
   289  O   1.944        C  288 1.630    N  310 0.192
   290  C   3.982        C  291 1.007    H  300 0.974    C  287 0.966    H  299 0.965
   291  C   3.988        C  290 1.007    C  292 0.994    H  302 0.973    H  301 0.969
   292  C   3.951        C  291 0.994    N  293 0.985    H  304 0.963    H  303 0.959
   293  N   3.455        C  294 1.296    C  292 0.985    H  305 0.921    N  295 0.101
   294  C   3.976        N  295 1.338    N  296 1.306    N  293 1.296
   295  N   3.412        C  294 1.338    H  306 0.910    H  307 0.899    N  296 0.102    N  293 0.101
   296  N   3.384        C  294 1.306    H  309 0.919    H  308 0.915    N  295 0.102
   297  H   0.950        N  286 0.874
   298  H   0.994        C  287 0.947
   299  H   0.993        C  290 0.965
   300  H   0.996        C  290 0.974
   301  H   0.992        C  291 0.969
   302  H   0.996        C  291 0.973
   303  H   0.991        C  292 0.959
   304  H   0.991        C  292 0.963
   305  H   0.955        N  293 0.921
   306  H   0.939        N  295 0.910
   307  H   0.938        N  295 0.899
   308  H   0.948        N  296 0.915
   309  H   0.943        N  296 0.919
   310  N   3.468        C  288 1.301    C  311 0.977    H  318 0.897    O  289 0.192
   311  C   3.955        N  310 0.977    C  314 0.959    H  319 0.955    C  312 0.930
   312  C   3.940        O  313 1.646    N  329 1.281    C  311 0.930
   313  O   1.951        C  312 1.646    N  329 0.188
   314  C   3.984        C  316 1.007    C  315 0.994    H  320 0.963    C  311 0.959
   315  C   3.993        C  317 1.019    C  314 0.994    H  321 0.976    H  322 0.971
   316  C   3.989        C  314 1.007    H  325 0.984    H  324 0.982    H  323 0.975
   317  C   3.993        C  315 1.019    H  326 0.986    H  327 0.986    H  328 0.982
   318  H   0.957        N  310 0.897
   319  H   0.993        C  311 0.955
   320  H   0.999        C  314 0.963
   321  H   0.998        C  315 0.976
   322  H   0.998        C  315 0.971
   323  H   0.993        C  316 0.975
   324  H   0.998        C  316 0.982
   325  H   0.996        C  316 0.984
   326  H   0.997        C  317 0.986
   327  H   0.999        C  317 0.986
   328  H   0.996        C  317 0.982
   329  N   3.430        C  312 1.281    C  330 0.985    H  338 0.874    O  313 0.188
   330  C   3.977        N  329 0.985    C  333 0.977    H  339 0.955    C  331 0.931
   331  C   3.940        O  332 1.621    N  344 1.305    C  330 0.931
   332  O   1.924        C  331 1.621    N  344 0.189
   333  C   3.988        C  334 1.003    C  330 0.977    H  341 0.975    H  340 0.972
   334  C   3.986        C  333 1.003    H  343 0.972    H  342 0.962    C  335 0.927
   335  C   3.937        O  336 1.538    O  337 1.446    C  334 0.927
   336  O   1.828        C  335 1.538    O  337 0.213
   337  O   1.872        C  335 1.446    O  336 0.213
   338  H   0.945        N  329 0.874
   339  H   0.997        C  330 0.955
   340  H   0.999        C  333 0.972
   341  H   0.999        C  333 0.975
   342  H   0.998        C  334 0.962
   343  H   0.997        C  334 0.972
   344  N   3.448        C  331 1.305    C  345 0.993    H  352 0.857    O  332 0.189
   345  C   3.976        N  344 0.993    C  348 0.968    H  353 0.953    C  346 0.936
   346  C   3.941        O  347 1.661    N  356 1.266    C  345 0.936
   347  O   1.966        C  346 1.661    N  356 0.182
   348  C   3.982        H  354 0.980    C  345 0.968    H  355 0.966    C  349 0.914
   349  C   3.935        O  351 1.538    O  350 1.456    C  348 0.914
   350  O   1.874        C  349 1.456    O  351 0.211
   351  O   1.836        C  349 1.538    O  350 0.211
   352  H   0.948        N  344 0.857
   353  H   0.997        C  345 0.953
   354  H   0.998        C  348 0.980
   355  H   0.996        C  348 0.966
   356  N   3.424        C  346 1.266    C  357 0.981    H  362 0.922    O  347 0.182
   357  C   3.971        C  358 0.993    N  356 0.981    C  360 0.944    H  363 0.943
   358  C   3.910        O  359 1.907    C  357 0.993    H  380 0.951
   359  O   2.057        C  358 1.907
   360  C   3.959        O  361 1.013    H  364 0.964    H  365 0.963    C  357 0.944
   361  O   1.930        C  360 1.013    H  366 0.858
   362  H   0.956        N  356 0.922
   363  H   0.996        C  357 0.943
   364  H   0.997        C  360 0.964
   365  H   0.996        C  360 0.963
   366  H   0.871        O  361 0.858
   367  H   0.966        N    1 0.951
   368  H   0.994        C   10 0.953
   369  H   0.968        N   27 0.958
   370  H   0.994        C   39 0.954
   371  H   0.965        N   59 0.953
   372  H   0.995        C   61 0.954
   373  H   0.969        N   76 0.958
   374  H   0.994        C   78 0.954
   375  H   0.969        N   86 0.958
   376  H   0.995        C  108 0.954
   377  H   0.971        N  120 0.960
   378  H   0.996        C  122 0.956
   379  H   0.965        N  139 0.954
   380  H   0.991        C  358 0.951
 
molecular dipole:
                 x           y           z       tot (Debye)
 q only:      212.419     109.515     250.605
   full:      212.745     109.804     250.143     880.098
molecular quadrupole (traceless):
                xx          xy          yy          xz          yz          zz
 q only:     7925.806   35021.097  -41562.007   79751.870   40280.070   33636.201
  q+dip:     8084.890   35175.820  -41483.561   79685.188   40328.669   33398.671
   full:     8083.140   35173.788  -41481.399   79685.467   40330.656   33398.259


           -------------------------------------------------
          | TOTAL ENERGY             -586.872933107631 Eh   |
          | GRADIENT NORM               0.587059907064 Eh/α |
          | HOMO-LUMO GAP               1.358889938242 eV   |
           -------------------------------------------------

------------------------------------------------------------------------
 * finished run on 2019/05/31 at 05:34:56.690     
------------------------------------------------------------------------
 total:
 * wall-time:     0 d,  0 h,  0 min,  5.559 sec
 *  cpu-time:     0 d,  0 h,  0 min, 10.777 sec
 * ratio c/w:     1.939 speedup
 SCF:
 * wall-time:     0 d,  0 h,  0 min,  4.999 sec
 *  cpu-time:     0 d,  0 h,  0 min,  9.997 sec
 * ratio c/w:     2.000 speedup

