      -----------------------------------------------------------      
     |                   =====================                   |     
     |                           x T B                           |     
     |                   =====================                   |     
     |                         S. Grimme                         |     
     |          Mulliken Center for Theoretical Chemistry        |     
     |                    University of Bonn                     |     
     |                 Version 6.0.1 (SAW181210)                 |     
      -----------------------------------------------------------      

   This program is distributed in the hope that it will be useful,
   but WITHOUT ANY WARRANTY; without even the implied warranty of
   MERCHANTABILITY or FITNESS FOR A PARTICULAR PURPOSE.
   
   FOR NON-COMMERCIAL, ACADEMIA USE ONLY.
   
   Cite this work as:
   S. Grimme, C. Bannwarth, P. Shushkov, J. Comput. Theory Chem., 2017,
   13, 1989-2009.
   C. Bannwarth, S. Ehlert and S. Grimme., ChemRxiv, 2018, preprint.
   http://doi.org/10.26434/chemrxiv.7246238.v1
   
   for sTDA-xTB:
   S. Grimme and C. Bannwarth, J. Chem. Phys., 2016, 145, 054103.
   
   in the mass-spec context:
   V. Asgeirsson, C. Bauer and S. Grimme, Chem. Sci., 2017, 8, 4879.
   
   if GBSA is used:
   P. Shushkov, F. März and S. Grimme, unpublished.
   
   for ANC optimizer:
   S. Grimme, unpublished.
   Rational Function algorithm used in ANCopt:
   F. Eckert, P. Pulay, H.-J. Werner, J. Comput. Chem., 1997, 18, 1473.
   
   with help from (in alphabetical order)
   C. Bannwarth, F. Bohle, G. Brandenburg, E. Caldeweyher, M. Checinski,
   S. Dohm, S. Ehlert, S. Ehrlich, F. März, H. Neugebauer, J. Pisarek,
   P. Pracht, P. Shushkov, and S. Spicher.
   
 * started run on 2019/03/15 at 00:15:16.794     
========================================================================
 # omp threads = 1
========================================================================
number of atoms            : 308
number of electrons        : 882
charge                     : -3
spin                       : .0
first test random number   : .5214
           ------------------------------------------------- 
          |                 G F N 2 - x T B                 |
          | Geometry, Frequencies, Noncovalent interactions |
          |            JCTC 2018 parametrisation            |
           ------------------------------------------------- 
 
      method parameters     
 k(s)        :  1.8500
 k(p)        :  2.2300
 k(d)        :  2.2300
 k(f)        :  2.0000
 kEN (H0ij)  : -2.0000
 D4 a1       :  0.5200
 D4 a2       :  5.0000
 D4 s6       :  1.0000
 D4 s8       :  2.7000
 D4 s9       :  5.0000
 alphaj      :  2.0000

 Solvent             : h2o
 Using internal parameter file: .param_gbsa2_h2o
 Gsolv ref. state (COSMO-RS): gsolv [1 M gas/solution]
 temperature (mdtemp)       :    298.150000000000     
 dielectric constant        :    80.2000000000000     
 rho                        :    1.00000000000000     
 mass                       :    18.0000000000000     
 surface tension            :    15.5689454083859     
 probe radius               :   0.975313790000000     
 vdW radii scaling          :    1.00000000000000     
 Gshift (Eh)                :   1.857443126794793E-003
 c1                         :    1.55243817000000     
 soset                      :   0.130326360000000     
 HB correction              :  T

            Z     q(EN)     CN     RAES       Cart. coordinates
     1  N   5.0   -0.24    3.30    1.98    90.99773    68.85469    50.64423
     2  C   4.0    0.03    4.37    4.32    93.60713    69.50967    50.73725
     3  C   4.0    0.06    3.22    3.04    95.09126    68.48390    52.94214
     4  O   6.0   -0.32    1.16    1.80    96.75702    69.72044    53.90781
     5  C   4.0   -0.03    4.53    4.58    93.92968    72.27725    50.45921
     6  C   4.0    0.15    3.32    3.06    93.10191    73.29454    47.96614
     7  O   6.0   -0.32    1.31    1.80    91.29671    72.27679    46.93303
     8  N   5.0   -0.21    3.30    1.98    94.30509    75.05827    47.10895
     9  H   1.0    0.09    1.07    1.44    89.95543    69.92377    51.57651
    10  H   1.0    0.04    1.13    1.45    94.33756    68.61431    49.17922
    11  H   1.0    0.04    1.08    1.44    92.95073    73.16508    51.86963
    12  H   1.0    0.05    1.09    1.44    95.76869    72.77223    50.75723
    13  H   1.0    0.10    1.07    1.44    93.94681    75.84743    45.53091
    14  H   1.0    0.08    1.07    1.44    95.70621    75.85571    47.91338
    15  N   5.0   -0.22    3.29    1.98   102.02141    72.01681    53.73469
    16  C   4.0    0.03    4.40    4.39   102.67798    74.57879    54.34076
    17  C   4.0    0.08    3.23    3.04   101.40886    75.42052    56.79266
    18  O   6.0   -0.31    1.15    1.80   101.36332    77.62516    57.42332
    19  C   4.0   -0.02    4.48    4.50   102.10150    76.49059    52.26427
    20  C   4.0   -0.06    4.40    4.38   101.87017    75.20772    49.73547
    21  C   4.0   -0.07    4.26    4.13   104.05367    78.50319    52.17452
    22  C   4.0   -0.08    4.19    3.98   104.19279    74.12214    48.73625
    23  H   1.0    0.10    1.08    1.44   100.78839    71.85238    52.49215
    24  H   1.0    0.06    1.11    1.45   104.61171    74.56466    54.56492
    25  H   1.0    0.05    1.12    1.45   100.39056    77.31082    52.69961
    26  H   1.0    0.04    1.09    1.44   100.52452    73.82419    49.84264
    27  H   1.0    0.04    1.08    1.44   101.16489    76.46526    48.44816
    28  H   1.0    0.04    1.04    1.43   103.66444    79.81186    50.82505
    29  H   1.0    0.06    1.04    1.43   104.20758    79.42957    53.85331
    30  H   1.0    0.06    1.05    1.44   105.77587    77.74817    51.77511
    31  H   1.0    0.04    1.04    1.43   103.92635    73.27714    47.03133
    32  H   1.0    0.05    1.05    1.44   105.54124    75.47019    48.51554
    33  H   1.0    0.04    1.05    1.44   104.89582    72.80436    49.93561
    34  N   5.0   -0.24    3.32    1.99   107.98798    70.21807    62.47288
    35  C   4.0    0.02    4.40    4.38   110.55997    71.02209    62.41590
    36  C   4.0    0.15    3.45    3.09   110.80643    73.87000    62.01677
    37  O   6.0   -0.29    1.25    1.80   112.84980    74.89782    61.86781
    38  C   4.0   -0.05    4.38    4.35   112.05881    69.59397    60.45263
    39  C   4.0   -0.04    4.29    4.18   111.02388    69.62051    57.83192
    40  C   4.0    0.25    3.14    3.03   111.23238    72.14261    56.45200
    41  O   6.0   -0.26    1.18    1.80   113.38088    73.08236    56.21710
    42  O   6.0   -0.29    1.17    1.80   109.25371    73.14518    55.63494
    43  H   1.0    0.08    1.08    1.44   107.51181    69.28137    61.06446
    44  H   1.0    0.02    1.11    1.44   111.30607    70.63736    64.17322
    45  H   1.0    0.05    1.08    1.44   113.85842    70.30328    60.40030
    46  H   1.0    0.02    1.07    1.44   112.28215    67.76238    61.03729
    47  H   1.0    0.03    1.07    1.44   111.88600    68.26274    56.75465
    48  H   1.0    0.04    1.08    1.44   109.16730    69.09536    57.87671
    49  N   5.0   -0.15    3.51    2.09   108.65915    75.16992    61.86012
    50  C   4.0    0.04    4.40    4.37   108.53578    77.84234    61.46959
    51  C   4.0    0.08    3.27    3.05   109.49404    79.32694    63.73165
    52  O   6.0   -0.29    1.15    1.80   109.88812    81.58893    63.60064
    53  C   4.0   -0.03    4.42    4.42   105.93418    78.78324    60.76770
    54  C   4.0    0.18    3.30    3.05   105.72688    81.63615    60.34697
    55  O   6.0   -0.29    1.24    1.80   107.04020    82.64142    58.73610
    56  N   5.0   -0.21    3.28    1.98   104.22124    82.79435    61.70457
    57  H   1.0    0.08    1.13    1.45   107.08271    74.40608    61.99701
    58  H   1.0    0.08    1.11    1.45   109.73602    78.20926    59.98728
    59  H   1.0    0.07    1.07    1.44   105.31276    77.85755    59.18357
    60  H   1.0    0.04    1.08    1.44   104.69341    78.25788    62.15110
    61  H   1.0    0.09    1.07    1.44   103.96584    84.56597    61.61283
    62  H   1.0    0.07    1.07    1.44   103.18840    82.03816    62.95728
    63  N   5.0   -0.22    3.21    1.96   116.91505    81.44897    61.50403
    64  C   4.0    0.03    4.40    4.38   117.29879    83.27256    59.49433
    65  C   4.0    0.15    3.48    3.11   116.49792    82.47782    56.81236
    66  O   6.0   -0.26    1.22    1.80   117.10967    80.40064    56.00008
    67  C   4.0   -0.04    4.45    4.46   120.00324    84.15048    59.37957
    68  C   4.0    0.15    3.31    3.06   120.53907    86.13716    57.40163
    69  O   6.0   -0.32    1.25    1.80   119.47390    88.19568    57.55364
    70  N   5.0   -0.20    3.29    1.98   122.03157    85.56590    55.71853
    71  H   1.0    0.12    1.06    1.44   115.73906    80.20741    61.09674
    72  H   1.0    0.04    1.13    1.45   116.12323    84.72616    59.99443
    73  H   1.0    0.03    1.07    1.44   120.54003    84.79569    61.12485
    74  H   1.0    0.04    1.08    1.44   121.13239    82.61543    59.06722
    75  H   1.0    0.09    1.07    1.44   122.47417    86.65623    54.36464
    76  H   1.0    0.08    1.07    1.44   122.86018    83.98046    55.58029
    77  N   5.0   -0.08    3.70    2.26   115.16727    84.16481    55.43541
    78  C   4.0    0.04    4.65    4.72   114.30256    83.74699    52.82939
    79  C   4.0    0.16    3.42    3.08   116.38006    84.11787    50.86421
    80  O   6.0   -0.29    1.31    1.80   118.55590    83.53070    51.28277
    81  C   4.0   -0.05    4.56    4.62   112.14409    85.55387    52.52873
    82  C   4.0   -0.05    4.46    4.47   111.36783    86.16456    55.10110
    83  C   4.0   -0.01    4.55    4.60   113.74614    86.26093    56.48849
    84  H   1.0    0.09    1.12    1.45   113.76766    81.88716    52.57670
    85  H   1.0    0.04    1.08    1.44   112.70047    87.14204    51.56990
    86  H   1.0    0.04    1.07    1.44   110.69989    84.82783    51.46460
    87  H   1.0    0.03    1.07    1.44   110.35561    87.80996    55.21121
    88  H   1.0    0.06    1.08    1.44   110.17464    84.81508    55.82062
    89  H   1.0    0.05    1.06    1.44   114.66309    87.95613    56.25900
    90  H   1.0    0.04    1.07    1.44   113.52224    86.10565    58.40853
    91  N   5.0   -0.16    3.51    2.08   115.67227    85.17521    48.68290
    92  C   4.0    0.03    4.52    4.56   117.30046    85.76849    46.58006
    93  C   4.0    0.14    3.53    3.13   115.93447    86.39142    44.12619
    94  O   6.0   -0.32    1.35    1.80   113.88552    85.47100    43.65117
    95  C   4.0    0.06    4.37    4.32   119.28752    83.71288    46.08166
    96  O   6.0   -0.28    2.16    1.85   121.55833    84.25836    47.34679
    97  C   4.0   -0.08    4.29    4.18   119.80603    83.38428    43.32542
    98  H   1.0    0.09    1.13    1.45   113.99225    85.59320    48.38011
    99  H   1.0    0.04    1.11    1.45   118.22879    87.37197    47.15267
   100  H   1.0    0.06    1.10    1.44   118.52748    82.04242    46.72988
   101  H   1.0    0.16    1.10    1.44   121.28332    84.19477    49.02978
   102  H   1.0    0.03    1.04    1.43   121.07473    81.97917    43.01808
   103  H   1.0    0.04    1.05    1.44   118.20681    82.95257    42.35289
   104  H   1.0    0.04    1.05    1.44   120.52600    85.00046    42.58871
   105  N   5.0   -0.16    3.54    2.11   117.11566    87.91915    42.53761
   106  C   4.0    0.03    4.55    4.60   116.17468    88.69895    40.11132
   107  C   4.0    0.16    3.51    3.12   114.84024    86.53216    38.75260
   108  O   6.0   -0.31    1.24    1.80   112.60089    86.52955    38.35618
   109  C   4.0    0.04    4.35    4.29   118.22094    89.82259    38.40081
   110  O   6.0   -0.29    2.16    1.85   119.66281    91.59787    39.77157
   111  C   4.0   -0.10    4.20    4.01   117.12334    90.97582    36.09540
   112  H   1.0    0.08    1.12    1.45   118.69524    88.60704    42.90152
   113  H   1.0    0.05    1.11    1.44   114.85537    90.07679    40.47591
   114  H   1.0    0.03    1.10    1.44   119.36364    88.34592    37.85698
   115  H   1.0    0.11    1.06    1.44   120.88997    92.20727    38.75551
   116  H   1.0    0.02    1.04    1.43   118.49101    91.67250    34.94055
   117  H   1.0    0.03    1.04    1.43   116.09578    89.70932    35.08323
   118  H   1.0    0.03    1.04    1.43   115.96388    92.43019    36.56938
   119  N   5.0   -0.16    3.54    2.11   116.36007    84.66575    38.03014
   120  C   4.0    0.03    4.43    4.43   115.62220    82.39451    36.73403
   121  C   4.0    0.16    3.45    3.10   113.53040    80.95967    38.10030
   122  O   6.0   -0.29    1.23    1.80   111.43957    80.69644    37.20920
   123  C   4.0   -0.10    4.26    4.11   117.82756    80.74374    36.27361
   124  H   1.0    0.07    1.13    1.45   118.08657    84.70629    38.35337
   125  H   1.0    0.05    1.11    1.45   114.84507    82.95619    35.04351
   126  H   1.0    0.03    1.04    1.43   117.32482    79.14266    35.33604
   127  H   1.0    0.02    1.04    1.43   119.17096    81.63091    35.22669
   128  H   1.0    0.03    1.04    1.44   118.63083    80.21678    37.93590
   129  N   5.0   -0.15    3.51    2.09   114.19512    80.01314    40.32269
   130  C   4.0    0.03    4.47    4.49   112.60964    78.59024    42.01715
   131  C   4.0    0.16    3.50    3.11   109.91130    79.53177    42.39650
   132  O   6.0   -0.31    1.24    1.80   108.15867    78.03490    42.51154
   133  C   4.0   -0.05    4.40    4.38   113.82239    78.25039    44.56910
   134  C   4.0   -0.03    4.33    4.25   112.20802    77.22517    46.61313
   135  C   4.0    0.25    3.14    3.03   113.24848    77.56721    49.26420
   136  O   6.0   -0.27    1.18    1.80   115.28038    76.49959    49.78175
   137  O   6.0   -0.29    1.20    1.80   112.04362    78.93271    50.75908
   138  H   1.0    0.08    1.12    1.45   115.82063    80.22777    40.95719
   139  H   1.0    0.05    1.12    1.45   112.38275    76.89541    41.09654
   140  H   1.0    0.04    1.08    1.44   115.38761    77.12893    44.39905
   141  H   1.0    0.06    1.08    1.44   114.51121    79.96368    45.14351
   142  H   1.0    0.06    1.10    1.44   110.46145    78.04172    46.51801
   143  H   1.0    0.05    1.07    1.44   111.88773    75.34537    46.30743
   144  N   5.0   -0.15    3.49    2.07   109.56144    81.99511    42.65904
   145  C   4.0    0.04    4.53    4.58   107.13401    83.17121    43.04888
   146  C   4.0    0.16    3.57    3.15   105.62390    83.61739    40.64585
   147  O   6.0   -0.31    1.41    1.80   103.54934    82.62879    40.37827
   148  C   4.0    0.05    4.33    4.25   107.21057    85.68109    44.52441
   149  O   6.0   -0.27    2.16    1.85   104.73061    86.65388    44.75689
   150  C   4.0   -0.08    4.27    4.14   108.87638    87.54229    43.26337
   151  H   1.0    0.11    1.13    1.45   110.89062    83.14852    42.60202
   152  H   1.0    0.06    1.12    1.45   106.19210    81.82070    44.08097
   153  H   1.0    0.04    1.09    1.44   107.94012    85.30122    46.28775
   154  H   1.0    0.12    1.06    1.44   104.79922    88.11939    45.63005
   155  H   1.0    0.04    1.04    1.43   108.95969    89.19274    44.24174
   156  H   1.0    0.08    1.08    1.44   110.66854    86.88114    43.08653
   157  H   1.0    0.05    1.07    1.44   108.22147    87.93830    41.50774
   158  N   5.0   -0.16    3.58    2.14   106.59854    85.09279    38.89907
   159  C   4.0    0.03    4.50    4.53   105.39293    85.67695    36.52689
   160  C   4.0    0.16    3.51    3.12   104.07219    83.41707    35.36637
   161  O   6.0   -0.32    1.24    1.80   102.54934    83.69536    33.66605
   162  C   4.0   -0.05    4.49    4.52   107.14923    86.87774    34.63309
   163  C   4.0   -0.03    4.29    4.19   107.52067    89.70366    34.64806
   164  C   4.0   -0.09    4.22    4.05   109.89109    90.43591    33.30558
   165  C   4.0   -0.09    4.24    4.07   105.26348    90.99399    33.58215
   166  H   1.0    0.10    1.13    1.45   108.17491    85.85562    39.07618
   167  H   1.0    0.04    1.12    1.45   104.01550    86.97114    36.96644
   168  H   1.0    0.06    1.08    1.44   108.87232    86.02576    34.82327
   169  H   1.0    0.05    1.09    1.44   106.55675    86.38235    32.86036
   170  H   1.0    0.04    1.11    1.45   107.70774    90.27423    36.49460
   171  H   1.0    0.02    1.04    1.43   110.16649    92.33606    33.34716
   172  H   1.0    0.04    1.04    1.43   111.43521    89.60546    34.09142
   173  H   1.0    0.03    1.04    1.43   109.81120    89.89714    31.46570
   174  H   1.0    0.02    1.04    1.43   105.45291    92.90460    33.62452
   175  H   1.0    0.03    1.04    1.43   104.99607    90.47210    31.75390
   176  H   1.0    0.04    1.04    1.43   103.66703    90.54504    34.55296
   177  N   5.0   -0.13    3.66    2.22   104.70762    81.16518    36.24744
   178  C   4.0    0.04    4.50    4.54   103.61695    78.82258    35.44541
   179  C   4.0    0.16    3.49    3.11   101.20752    78.32394    36.93085
   180  O   6.0   -0.32    1.39    1.80    99.15011    78.20761    35.89602
   181  C   4.0   -0.03    4.38    4.34   105.37302    76.60706    35.65233
   182  C   4.0    0.25    3.14    3.03   104.37350    74.17126    34.48280
   183  O   6.0   -0.30    1.18    1.80   103.96716    74.16440    32.16995
   184  O   6.0   -0.30    1.17    1.80   103.98147    72.32976    35.89857
   185  H   1.0    0.11    1.17    1.46   105.91500    80.95832    37.51130
   186  H   1.0    0.07    1.11    1.45   103.18430    79.01632    33.56007
   187  H   1.0    0.05    1.07    1.44   107.07660    77.03424    34.84556
   188  H   1.0    0.06    1.08    1.44   105.77747    76.29314    37.51300
   189  N   5.0   -0.14    3.56    2.12   101.43630    78.04239    39.39573
   190  C   4.0    0.04    4.41    4.40    99.36252    77.63971    41.11458
   191  C   4.0    0.16    3.47    3.10    97.25434    79.61764    40.78197
   192  O   6.0   -0.31    1.24    1.80    95.02463    79.05422    40.90290
   193  C   4.0   -0.08    4.22    4.04   100.23171    77.52660    43.79246
   194  H   1.0    0.10    1.12    1.45   102.99723    78.11143    40.20233
   195  H   1.0    0.05    1.11    1.44    98.57719    75.92444    40.63839
   196  H   1.0    0.04    1.04    1.43    98.77129    77.21373    44.99901
   197  H   1.0    0.04    1.04    1.43   101.51877    76.12499    44.06160
   198  H   1.0    0.05    1.04    1.43   101.06158    79.18358    44.29723
   199  N   5.0   -0.16    3.59    2.14    97.99261    81.97240    40.40024
   200  C   4.0    0.04    4.55    4.61    96.29888    84.03448    39.98177
   201  C   4.0    0.17    3.49    3.11    94.93173    83.65714    37.46829
   202  O   6.0   -0.27    1.25    1.80    92.97236    84.71327    37.01259
   203  C   4.0    0.05    4.33    4.25    97.56858    86.64448    39.97540
   204  O   6.0   -0.26    2.15    1.85    95.70684    88.55019    39.97264
   205  C   4.0   -0.07    4.25    4.10    99.27674    86.91670    37.77642
   206  H   1.0    0.11    1.14    1.45    99.68946    82.43627    40.33447
   207  H   1.0    0.06    1.10    1.44    95.01085    84.02659    41.43895
   208  H   1.0    0.04    1.09    1.44    98.64193    86.77414    41.59562
   209  H   1.0    0.12    1.06    1.44    96.48095    90.07078    39.97106
   210  H   1.0    0.04    1.04    1.43   100.15404    88.62588    37.77424
   211  H   1.0    0.06    1.05    1.44   100.63335    85.56156    37.76037
   212  H   1.0    0.06    1.05    1.44    98.28262    86.76749    36.14070
   213  N   5.0   -0.14    3.55    2.12    96.08152    82.18479    35.77666
   214  C   4.0    0.04    4.52    4.56    95.04727    81.44843    33.34155
   215  C   4.0    0.16    3.60    3.17    92.93664    79.48902    33.31369
   216  O   6.0   -0.31    1.48    1.80    90.89749    79.90799    32.36870
   217  C   4.0   -0.05    4.52    4.56    97.00587    80.38504    31.61485
   218  C   4.0   -0.05    4.39    4.37    96.00797    78.80120    29.50002
   219  C   4.0   -0.01    4.35    4.29    95.49784    80.29681    27.18781
   220  N   5.0   -0.14    3.59    2.15    94.24689    82.66671    27.62451
   221  C   4.0    0.10    3.44    3.09    93.85308    84.51538    25.94581
   222  N   5.0   -0.19    3.43    2.04    92.75398    86.44871    26.62736
   223  N   5.0   -0.19    3.49    2.07    94.61530    84.25324    23.84036
   224  H   1.0    0.12    1.16    1.46    97.68027    81.50521    36.05635
   225  H   1.0    0.07    1.12    1.45    94.24763    83.11649    32.75265
   226  H   1.0    0.05    1.08    1.44    98.07216    81.81375    30.87441
   227  H   1.0    0.08    1.12    1.45    98.25431    79.36383    32.68579
   228  H   1.0    0.04    1.07    1.44    97.22096    77.33788    29.11067
   229  H   1.0    0.06    1.13    1.45    94.38530    77.91398    30.07127
   230  H   1.0    0.04    1.08    1.44    97.16404    80.64439    26.27098
   231  H   1.0    0.06    1.08    1.44    94.45559    79.26020    25.92572
   232  H   1.0    0.09    1.14    1.45    93.64470    82.89703    29.26751
   233  H   1.0    0.10    1.06    1.44    92.09498    86.78444    28.28371
   234  H   1.0    0.07    1.07    1.44    92.40849    87.83984    25.53721
   235  H   1.0    0.07    1.08    1.44    95.49371    82.79298    23.18368
   236  H   1.0    0.07    1.08    1.44    94.42885    85.46517    22.50710
   237  N   5.0   -0.15    3.58    2.14    93.48361    77.30567    34.40526
   238  C   4.0    0.03    4.49    4.53    91.72187    75.28849    34.80726
   239  C   4.0    0.16    3.51    3.12    89.34085    76.12684    36.17184
   240  O   6.0   -0.29    1.28    1.80    87.24896    75.54495    35.38711
   241  C   4.0   -0.05    4.53    4.58    92.87841    73.12871    36.22324
   242  C   4.0   -0.05    4.37    4.34    95.47052    72.31469    35.58398
   243  C   4.0   -0.01    4.39    4.36    96.25574    70.39515    37.40419
   244  N   5.0   -0.15    3.68    2.24    94.29428    68.55989    37.69838
   245  C   4.0    0.09    3.44    3.09    93.81597    67.11381    39.73254
   246  N   5.0   -0.18    3.50    2.07    95.08171    67.28652    41.51956
   247  N   5.0   -0.20    3.45    2.05    91.98951    65.65544    39.60131
   248  H   1.0    0.10    1.14    1.45    95.09855    76.94456    35.00150
   249  H   1.0    0.05    1.11    1.45    91.20679    74.72662    33.02181
   250  H   1.0    0.05    1.10    1.44    92.84935    73.57197    38.10371
   251  H   1.0    0.04    1.10    1.44    91.71903    71.58947    36.06945
   252  H   1.0    0.04    1.08    1.44    95.55101    71.62150    33.78026
   253  H   1.0    0.06    1.08    1.44    96.67583    73.82809    35.56965
   254  H   1.0    0.04    1.07    1.44    97.91440    69.54866    36.87821
   255  H   1.0    0.04    1.08    1.44    96.64821    71.20856    39.11486
   256  H   1.0    0.07    1.13    1.45    93.24435    68.38455    36.28936
   257  H   1.0    0.08    1.08    1.44    96.53874    68.39768    41.74680
   258  H   1.0    0.07    1.08    1.44    94.89166    66.33348    43.06385
   259  H   1.0    0.07    1.06    1.44    90.86731    65.42692    38.18975
   260  H   1.0    0.07    1.07    1.44    91.50495    64.55642    40.94320
   261  N   5.0   -0.15    3.51    2.09    89.60005    77.43279    38.26366
   262  C   4.0    0.04    4.61    4.68    87.47929    78.30615    39.72335
   263  C   4.0    0.16    3.58    3.15    85.40671    79.43839    38.10787
   264  O   6.0   -0.30    1.24    1.80    83.26259    78.60979    38.21252
   265  C   4.0   -0.03    4.39    4.36    88.15741    80.08315    41.88844
   266  C   4.0   -0.09    4.31    4.21    85.96444    81.69498    42.59263
   267  C   4.0   -0.08    4.24    4.07    89.09577    78.64204    44.11188
   268  H   1.0    0.10    1.11    1.45    91.16204    77.90356    38.92481
   269  H   1.0    0.05    1.12    1.45    86.74427    76.68745    40.50735
   270  H   1.0    0.06    1.11    1.45    89.57307    81.25392    41.25493
   271  H   1.0    0.03    1.04    1.43    86.41919    82.92469    43.99400
   272  H   1.0    0.04    1.06    1.44    85.33021    82.72271    41.09799
   273  H   1.0    0.04    1.04    1.44    84.51082    80.60650    43.21264
   274  H   1.0    0.04    1.04    1.43    89.59531    79.81342    45.54952
   275  H   1.0    0.04    1.04    1.43    87.73100    77.46128    44.76437
   276  H   1.0    0.06    1.04    1.43    90.62968    77.57740    43.66670
   277  N   5.0   -0.15    3.54    2.11    86.01479    81.35227    36.61012
   278  C   4.0    0.04    4.50    4.53    84.25203    82.59859    34.95652
   279  C   4.0    0.16    3.50    3.12    83.97481    81.33519    32.37041
   280  O   6.0   -0.29    1.27    1.80    82.02238    81.48012    31.10673
   281  C   4.0   -0.04    4.36    4.30    84.78852    85.38900    34.67304
   282  C   4.0    0.25    3.16    3.03    87.11883    85.98041    33.12770
   283  O   6.0   -0.26    1.22    1.80    89.13807    84.98749    33.77961
   284  O   6.0   -0.30    1.17    1.80    86.88684    87.43032    31.27614
   285  H   1.0    0.11    1.12    1.45    87.64389    82.01129    36.51171
   286  H   1.0    0.05    1.12    1.45    82.53065    82.38852    35.82980
   287  H   1.0    0.04    1.07    1.44    83.27246    86.29271    33.88591
   288  H   1.0    0.04    1.07    1.44    84.97839    86.20162    36.41583
   289  N   5.0   -0.13    3.64    2.20    85.93925    80.11401    31.56042
   290  C   4.0    0.05    4.44    4.44    86.08941    78.93634    29.14523
   291  C   4.0    0.11    3.37    3.07    83.77838    77.23685    29.18147
   292  O   6.0   -0.29    1.12    1.80    82.30782    77.08638    27.43977
   293  C   4.0   -0.03    4.42    4.41    88.57962    77.59869    28.77887
   294  C   4.0    0.24    3.13    3.03    89.54940    77.39841    26.10065
   295  O   6.0   -0.32    1.19    1.80    91.63383    76.33693    25.75183
   296  O   6.0   -0.30    1.20    1.80    88.18303    78.24867    24.38601
   297  H   1.0    0.13    1.17    1.46    87.39677    79.88100    32.52462
   298  H   1.0    0.07    1.11    1.45    85.99333    80.15518    27.62741
   299  H   1.0    0.09    1.19    1.46    89.92970    78.47314    29.85226
   300  H   1.0    0.05    1.08    1.44    88.45104    75.82658    29.52966
   301  H   1.0    0.11    1.10    1.44    90.45611    68.90800    49.03290
   302  H   1.0    0.04    1.05    1.44    94.70446    66.76416    53.62328
   303  H   1.0    0.09    1.08    1.44   103.40033    71.19515    53.17253
   304  H   1.0    0.05    1.05    1.44   100.59040    74.14344    57.91971
   305  H   1.0    0.07    1.08    1.44   107.72822    69.24285    63.84184
   306  H   1.0    0.04    1.05    1.44   109.81443    78.44647    65.37274
   307  H   1.0    0.09    1.08    1.44   118.38588    80.66878    61.85117
   308  H   1.0    0.06    1.05    1.44    83.41308    76.17095    30.69854

  Z AO/shell   Hii/eV     exponent
  1     Wed Apr 25 08:07:45 CEST 2018   EN: 2.200 GM2: 0.406  GM3: 0.0800  RAES: 1.40
     1s    -10.707211    1.230000
  6     Wed Apr 25 08:07:45 CEST 2018   EN: 2.550 GM2: 0.538  GM3: 0.1500  RAES: 3.00
     2s    -13.970922    2.096432
     2p    -10.063292    1.800000
  7     Wed Apr 25 08:07:45 CEST 2018   EN: 3.040 GM2: 0.461  GM3:-0.0640  RAES: 1.90
     2s    -16.686243    2.339881
     2p    -12.523956    2.014332
  8     Wed Apr 25 08:07:45 CEST 2018   EN: 3.440 GM2: 0.452  GM3:-0.0517  RAES: 1.80
     2s    -20.229985    2.439742
     2p    -15.503117    2.137023
 no old-style atom pair restraining (fixing) potential

molecular fragmentation (1/2 indicates fragments):
111111111111112222222222222222222222222222222222222222222222222222222222
222222222222222222222222222222222222222222222222222222222222222222222222
222222222222222222222222222222222222222222222222222222222222222222222222
222222222222222222222222222222222222222222222222222222222222222222222222
22222222222211222222
# atoms in fragment 1/2:    16   292
 fragment masses (1/2) :      116.12     2116.24
CMA distance (Bohr)    :  15.300
constraining FC (au)   :  0.0500
           ------------------------------------------------- 
          |        Self-Consistent Charge Iterations        |
           ------------------------------------------------- 

 Ncao       : 776
 Nao        : 776
 Nshell     : 464
 Nel        : 882
 T(el)      :   500.0
 intcut     :    35.0
 scfconv/Eh :  0.100E-06
   qconv/e  :  0.100E-04
 intneglect :  0.100E-08
 broydamp   :      0.400
 iter      E             dE          RMSdq      gap      omega  full diag
   1   -512.4034911 -0.512403E+03  0.498E+00    3.44       0.0  T
   2   -513.9132076 -0.150972E+01  0.228E+00    2.12       1.0  T
   3   -513.9931609 -0.799533E-01  0.126E+00    2.34       1.0  T
   4   -514.0564093 -0.632485E-01  0.263E-01    1.46       1.0  T
   5   -514.0619108 -0.550149E-02  0.130E-01    1.62       1.0  T
   6   -514.0624093 -0.498492E-03  0.467E-02    1.64       1.0  T
   7   -514.0625159 -0.106545E-03  0.184E-02    1.66       1.0  T
   8   -514.0625288 -0.129316E-04  0.866E-03    1.66       1.0  T
   9   -514.0625338 -0.496425E-05  0.316E-03    1.66       1.8  T
  10   -514.0625341 -0.363759E-06  0.122E-03    1.66       4.7  T
  11   -514.0625342 -0.958337E-07  0.495E-04    1.66      11.5  T
  12   -514.0625342 -0.127500E-07  0.227E-04    1.66      25.1  T
  13   -514.0625342 -0.230261E-08  0.975E-05    1.66      58.4  T
  14   -514.0625342 -0.482032E-09  0.377E-05    1.66     151.0  T
speedup  1.00
cpu  time for SCC    3.37 s
wall time for SCC    3.37 s

   *** convergence criteria satisfied after 14 iterations ***

          eigenvalues
 #    :         429        430        431        432        433        434        435        436
 occ. :        2.000      2.000      2.000      2.000      2.000      2.000      2.000      2.000
 eps  :       -10.240    -10.237    -10.002     -9.985     -9.984     -9.969     -9.931     -9.913
 #    :         437        438        439        440        441        442        443        444
 occ. :        2.000      2.000      2.000      2.000      2.000      0.000      0.000      0.000
 eps  :        -9.904     -9.869     -9.636     -9.620     -9.590     -7.933     -7.515     -7.499
 #    :         445        446        447        448        449        450        451        452
 occ. :        0.000      0.000      0.000      0.000      0.000      0.000      0.000      0.000
 eps  :        -7.275     -6.907     -6.743     -6.645     -6.575     -6.533     -6.452     -6.352


   #   Z            q   n(s)   n(p)   n(d)      C6AA      α(0)
   1   7 N     -0.397  1.285  4.113  0.000    30.301     8.175
   2   6 C      0.040  1.025  2.935  0.000    19.907     6.353
   3   6 C      0.192  1.085  2.723  0.000    23.900     8.007
   4   8 O     -0.373  1.757  4.616  0.000    21.148     6.166
   5   6 C     -0.118  1.022  3.096  0.000    22.719     6.780
   6   6 C      0.295  1.007  2.698  0.000    21.991     7.679
   7   8 O     -0.527  1.737  4.790  0.000    24.382     6.621
   8   7 N     -0.235  1.207  4.028  0.000    26.154     7.595
   9   1 H      0.171  0.829  0.000  0.000     1.265     1.762
  10   1 H      0.091  0.909  0.000  0.000     1.864     2.135
  11   1 H      0.079  0.921  0.000  0.000     1.986     2.204
  12   1 H      0.058  0.942  0.000  0.000     2.220     2.330
  13   1 H      0.220  0.780  0.000  0.000     1.009     1.574
  14   1 H      0.213  0.787  0.000  0.000     1.040     1.598
  15   7 N     -0.390  1.289  4.101  0.000    30.109     8.149
  16   6 C      0.029  1.040  2.931  0.000    20.085     6.381
  17   6 C      0.194  1.094  2.712  0.000    23.856     7.999
  18   8 O     -0.382  1.745  4.636  0.000    21.318     6.190
  19   6 C     -0.020  1.040  2.980  0.000    20.880     6.498
  20   6 C     -0.072  1.013  3.058  0.000    21.852     6.652
  21   6 C     -0.119  0.993  3.127  0.000    22.812     6.805
  22   6 C     -0.114  0.984  3.130  0.000    22.722     6.793
  23   1 H      0.186  0.814  0.000  0.000     1.179     1.701
  24   1 H      0.067  0.933  0.000  0.000     2.117     2.275
  25   1 H      0.053  0.947  0.000  0.000     2.281     2.362
  26   1 H      0.054  0.946  0.000  0.000     2.273     2.358
  27   1 H      0.052  0.948  0.000  0.000     2.300     2.372
  28   1 H      0.049  0.951  0.000  0.000     2.331     2.387
  29   1 H      0.044  0.956  0.000  0.000     2.399     2.422
  30   1 H      0.022  0.978  0.000  0.000     2.702     2.570
  31   1 H      0.048  0.952  0.000  0.000     2.346     2.395
  32   1 H      0.021  0.979  0.000  0.000     2.720     2.579
  33   1 H      0.032  0.968  0.000  0.000     2.551     2.498
  34   7 N     -0.414  1.296  4.117  0.000    30.756     8.237
  35   6 C      0.031  1.038  2.931  0.000    20.063     6.378
  36   6 C      0.279  1.045  2.676  0.000    22.280     7.730
  37   8 O     -0.528  1.758  4.770  0.000    24.406     6.624
  38   6 C     -0.058  1.016  3.043  0.000    21.603     6.614
  39   6 C     -0.095  1.029  3.066  0.000    22.301     6.721
  40   6 C      0.372  1.023  2.605  0.000    20.697     7.445
  41   8 O     -0.677  1.793  4.884  0.000    28.102     7.107
  42   8 O     -0.669  1.770  4.898  0.000    27.864     7.077
  43   1 H      0.173  0.827  0.000  0.000     1.256     1.756
  44   1 H      0.063  0.937  0.000  0.000     2.162     2.299
  45   1 H      0.033  0.967  0.000  0.000     2.543     2.493
  46   1 H      0.056  0.944  0.000  0.000     2.250     2.345
  47   1 H      0.028  0.972  0.000  0.000     2.611     2.527
  48   1 H      0.037  0.963  0.000  0.000     2.489     2.467
  49   7 N     -0.195  1.223  3.972  0.000    25.240     7.462
  50   6 C      0.046  1.028  2.926  0.000    19.799     6.335
  51   6 C      0.201  1.084  2.716  0.000    23.731     7.978
  52   8 O     -0.354  1.747  4.607  0.000    20.777     6.111
  53   6 C     -0.108  1.032  3.076  0.000    22.531     6.754
  54   6 C      0.310  1.010  2.680  0.000    21.738     7.634
  55   8 O     -0.539  1.752  4.786  0.000    24.655     6.657
  56   7 N     -0.254  1.219  4.035  0.000    26.591     7.659
  57   1 H      0.229  0.771  0.000  0.000     0.968     1.541
  58   1 H      0.072  0.928  0.000  0.000     2.059     2.244
  59   1 H      0.075  0.925  0.000  0.000     2.030     2.228
  60   1 H      0.081  0.919  0.000  0.000     1.972     2.196
  61   1 H      0.261  0.739  0.000  0.000     0.843     1.438
  62   1 H      0.250  0.750  0.000  0.000     0.883     1.472
  63   7 N     -0.387  1.301  4.086  0.000    30.006     8.135
  64   6 C      0.037  1.036  2.926  0.000    19.957     6.362
  65   6 C      0.260  1.052  2.688  0.000    22.619     7.788
  66   8 O     -0.542  1.776  4.766  0.000    24.730     6.667
  67   6 C     -0.112  1.031  3.080  0.000    22.606     6.764
  68   6 C      0.297  1.013  2.690  0.000    21.968     7.674
  69   8 O     -0.534  1.740  4.795  0.000    24.551     6.643
  70   7 N     -0.244  1.216  4.028  0.000    26.364     7.626
  71   1 H      0.141  0.859  0.000  0.000     1.467     1.897
  72   1 H      0.065  0.935  0.000  0.000     2.145     2.290
  73   1 H      0.099  0.901  0.000  0.000     1.795     2.095
  74   1 H      0.050  0.950  0.000  0.000     2.318     2.381
  75   1 H      0.247  0.753  0.000  0.000     0.896     1.482
  76   1 H      0.227  0.773  0.000  0.000     0.978     1.549
  77   7 N     -0.103  1.243  3.860  0.000    23.260     7.163
  78   6 C      0.029  1.043  2.929  0.000    20.055     6.369
  79   6 C      0.280  1.044  2.675  0.000    22.254     7.725
  80   8 O     -0.489  1.733  4.756  0.000    23.536     6.504
  81   6 C     -0.076  1.016  3.060  0.000    21.890     6.651
  82   6 C     -0.076  1.008  3.068  0.000    21.899     6.653
  83   6 C     -0.013  1.019  2.994  0.000    20.779     6.485
  84   1 H      0.075  0.925  0.000  0.000     2.028     2.227
  85   1 H      0.066  0.934  0.000  0.000     2.131     2.282
  86   1 H      0.046  0.954  0.000  0.000     2.372     2.408
  87   1 H      0.087  0.913  0.000  0.000     1.906     2.159
  88   1 H      0.062  0.938  0.000  0.000     2.173     2.305
  89   1 H      0.087  0.913  0.000  0.000     1.910     2.161
  90   1 H      0.067  0.933  0.000  0.000     2.116     2.275
  91   7 N     -0.198  1.217  3.981  0.000    25.298     7.470
  92   6 C     -0.002  1.052  2.950  0.000    20.617     6.465
  93   6 C      0.269  1.037  2.695  0.000    22.463     7.761
  94   8 O     -0.502  1.740  4.762  0.000    23.818     6.543
  95   6 C      0.127  1.017  2.856  0.000    18.596     6.154
  96   8 O     -0.465  1.676  4.789  0.000    22.158     6.355
  97   6 C     -0.152  1.001  3.150  0.000    23.467     6.904
  98   1 H      0.203  0.797  0.000  0.000     1.093     1.637
  99   1 H      0.096  0.904  0.000  0.000     1.819     2.109
 100   1 H      0.016  0.984  0.000  0.000     2.793     2.613
 101   1 H      0.328  0.672  0.000  0.000     0.641     1.258
 102   1 H      0.086  0.914  0.000  0.000     1.913     2.163
 103   1 H      0.039  0.961  0.000  0.000     2.458     2.451
 104   1 H      0.088  0.912  0.000  0.000     1.894     2.152
 105   7 N     -0.170  1.217  3.953  0.000    24.669     7.377
 106   6 C     -0.005  1.052  2.953  0.000    20.666     6.472
 107   6 C      0.277  1.034  2.689  0.000    22.315     7.735
 108   8 O     -0.461  1.734  4.728  0.000    22.944     6.422
 109   6 C      0.106  1.028  2.867  0.000    18.924     6.208
 110   8 O     -0.491  1.703  4.788  0.000    22.696     6.431
 111   6 C     -0.159  1.000  3.159  0.000    23.622     6.926
 112   1 H      0.240  0.760  0.000  0.000     0.923     1.505
 113   1 H      0.106  0.894  0.000  0.000     1.727     2.055
 114   1 H      0.044  0.956  0.000  0.000     2.393     2.419
 115   1 H      0.359  0.641  0.000  0.000     0.567     1.183
 116   1 H      0.088  0.912  0.000  0.000     1.899     2.155
 117   1 H      0.057  0.943  0.000  0.000     2.229     2.334
 118   1 H      0.079  0.921  0.000  0.000     1.991     2.206
 119   7 N     -0.197  1.223  3.973  0.000    25.266     7.465
 120   6 C      0.014  1.038  2.948  0.000    20.340     6.421
 121   6 C      0.280  1.035  2.685  0.000    22.259     7.726
 122   8 O     -0.487  1.748  4.738  0.000    23.489     6.498
 123   6 C     -0.163  1.001  3.162  0.000    23.692     6.935
 124   1 H      0.220  0.780  0.000  0.000     1.009     1.573
 125   1 H      0.098  0.902  0.000  0.000     1.803     2.100
 126   1 H      0.083  0.917  0.000  0.000     1.952     2.185
 127   1 H      0.106  0.894  0.000  0.000     1.728     2.056
 128   1 H      0.067  0.933  0.000  0.000     2.113     2.273
 129   7 N     -0.194  1.224  3.970  0.000    25.215     7.458
 130   6 C      0.021  1.041  2.937  0.000    20.220     6.402
 131   6 C      0.287  1.037  2.676  0.000    22.137     7.705
 132   8 O     -0.507  1.746  4.761  0.000    23.948     6.561
 133   6 C     -0.054  1.014  3.041  0.000    21.531     6.603
 134   6 C     -0.087  1.022  3.064  0.000    22.138     6.697
 135   6 C      0.374  1.018  2.608  0.000    20.668     7.440
 136   8 O     -0.658  1.777  4.881  0.000    27.591     7.042
 137   8 O     -0.650  1.772  4.878  0.000    27.384     7.016
 138   1 H      0.209  0.791  0.000  0.000     1.063     1.615
 139   1 H      0.074  0.926  0.000  0.000     2.038     2.233
 140   1 H      0.059  0.941  0.000  0.000     2.215     2.327
 141   1 H      0.040  0.960  0.000  0.000     2.455     2.450
 142   1 H      0.024  0.976  0.000  0.000     2.668     2.554
 143   1 H      0.025  0.975  0.000  0.000     2.654     2.547
 144   7 N     -0.195  1.226  3.968  0.000    25.221     7.459
 145   6 C      0.015  1.044  2.941  0.000    20.319     6.417
 146   6 C      0.277  1.037  2.686  0.000    22.310     7.735
 147   8 O     -0.512  1.738  4.773  0.000    24.039     6.574
 148   6 C      0.113  1.026  2.861  0.000    18.806     6.188
 149   8 O     -0.501  1.710  4.791  0.000    22.916     6.462
 150   6 C     -0.179  1.003  3.176  0.000    24.028     6.985
 151   1 H      0.223  0.777  0.000  0.000     0.995     1.563
 152   1 H      0.076  0.924  0.000  0.000     2.024     2.225
 153   1 H      0.030  0.970  0.000  0.000     2.583     2.513
 154   1 H      0.363  0.637  0.000  0.000     0.558     1.173
 155   1 H      0.082  0.918  0.000  0.000     1.959     2.189
 156   1 H      0.085  0.915  0.000  0.000     1.926     2.170
 157   1 H      0.076  0.924  0.000  0.000     2.021     2.223
 158   7 N     -0.184  1.227  3.957  0.000    24.990     7.424
 159   6 C      0.012  1.044  2.943  0.000    20.368     6.425
 160   6 C      0.278  1.034  2.688  0.000    22.288     7.731
 161   8 O     -0.484  1.737  4.747  0.000    23.430     6.490
 162   6 C     -0.093  1.024  3.069  0.000    22.249     6.711
 163   6 C     -0.017  1.031  2.987  0.000    20.843     6.493
 164   6 C     -0.141  1.000  3.141  0.000    23.250     6.870
 165   6 C     -0.143  1.000  3.143  0.000    23.270     6.872
 166   1 H      0.234  0.766  0.000  0.000     0.946     1.524
 167   1 H      0.098  0.902  0.000  0.000     1.804     2.100
 168   1 H      0.068  0.932  0.000  0.000     2.112     2.272
 169   1 H      0.073  0.927  0.000  0.000     2.048     2.238
 170   1 H      0.047  0.953  0.000  0.000     2.361     2.403
 171   1 H      0.068  0.932  0.000  0.000     2.102     2.267
 172   1 H      0.047  0.953  0.000  0.000     2.361     2.403
 173   1 H      0.055  0.945  0.000  0.000     2.258     2.350
 174   1 H      0.065  0.935  0.000  0.000     2.143     2.289
 175   1 H      0.055  0.945  0.000  0.000     2.262     2.352
 176   1 H      0.038  0.962  0.000  0.000     2.476     2.460
 177   7 N     -0.181  1.218  3.963  0.000    24.929     7.415
 178   6 C      0.036  1.033  2.931  0.000    19.974     6.362
 179   6 C      0.274  1.043  2.683  0.000    22.376     7.746
 180   8 O     -0.495  1.730  4.765  0.000    23.681     6.524
 181   6 C     -0.107  1.032  3.075  0.000    22.521     6.754
 182   6 C      0.371  1.017  2.612  0.000    20.716     7.449
 183   8 O     -0.634  1.766  4.868  0.000    26.969     6.963
 184   8 O     -0.638  1.764  4.874  0.000    27.079     6.977
 185   1 H      0.193  0.807  0.000  0.000     1.143     1.675
 186   1 H      0.082  0.918  0.000  0.000     1.963     2.191
 187   1 H      0.046  0.954  0.000  0.000     2.375     2.410
 188   1 H      0.027  0.973  0.000  0.000     2.625     2.534
 189   7 N     -0.167  1.218  3.949  0.000    24.608     7.367
 190   6 C      0.019  1.041  2.940  0.000    20.261     6.409
 191   6 C      0.273  1.040  2.687  0.000    22.386     7.748
 192   8 O     -0.482  1.729  4.753  0.000    23.393     6.485
 193   6 C     -0.148  0.999  3.149  0.000    23.397     6.893
 194   1 H      0.208  0.792  0.000  0.000     1.067     1.618
 195   1 H      0.092  0.908  0.000  0.000     1.862     2.134
 196   1 H      0.088  0.912  0.000  0.000     1.896     2.153
 197   1 H      0.079  0.921  0.000  0.000     1.984     2.202
 198   1 H      0.067  0.933  0.000  0.000     2.118     2.276
 199   7 N     -0.188  1.221  3.967  0.000    25.068     7.436
 200   6 C      0.010  1.048  2.942  0.000    20.409     6.431
 201   6 C      0.288  1.030  2.682  0.000    22.127     7.703
 202   8 O     -0.465  1.749  4.716  0.000    23.017     6.432
 203   6 C      0.116  1.024  2.859  0.000    18.757     6.180
 204   8 O     -0.495  1.713  4.782  0.000    22.790     6.445
 205   6 C     -0.149  0.998  3.151  0.000    23.418     6.896
 206   1 H      0.216  0.784  0.000  0.000     1.027     1.587
 207   1 H      0.094  0.906  0.000  0.000     1.836     2.119
 208   1 H      0.049  0.951  0.000  0.000     2.326     2.385
 209   1 H      0.359  0.641  0.000  0.000     0.567     1.183
 210   1 H      0.072  0.928  0.000  0.000     2.063     2.246
 211   1 H      0.052  0.948  0.000  0.000     2.298     2.370
 212   1 H      0.059  0.941  0.000  0.000     2.209     2.324
 213   7 N     -0.207  1.228  3.979  0.000    25.498     7.500
 214   6 C      0.025  1.038  2.937  0.000    20.158     6.392
 215   6 C      0.287  1.035  2.679  0.000    22.146     7.707
 216   8 O     -0.490  1.744  4.746  0.000    23.565     6.509
 217   6 C     -0.113  1.023  3.090  0.000    22.616     6.765
 218   6 C     -0.081  1.015  3.067  0.000    22.039     6.681
 219   6 C     -0.022  1.015  3.007  0.000    21.017     6.537
 220   7 N     -0.198  1.185  4.013  0.000    25.297     7.470
 221   6 C      0.274  0.967  2.759  0.000    22.364     7.743
 222   7 N     -0.249  1.183  4.066  0.000    26.465     7.640
 223   7 N     -0.226  1.177  4.050  0.000    25.939     7.564
 224   1 H      0.211  0.789  0.000  0.000     1.052     1.607
 225   1 H      0.075  0.925  0.000  0.000     2.031     2.228
 226   1 H      0.081  0.919  0.000  0.000     1.966     2.193
 227   1 H      0.097  0.903  0.000  0.000     1.813     2.106
 228   1 H      0.078  0.922  0.000  0.000     1.997     2.210
 229   1 H      0.052  0.948  0.000  0.000     2.290     2.366
 230   1 H      0.080  0.920  0.000  0.000     1.975     2.198
 231   1 H      0.084  0.916  0.000  0.000     1.936     2.176
 232   1 H      0.190  0.810  0.000  0.000     1.160     1.687
 233   1 H      0.222  0.778  0.000  0.000     1.001     1.567
 234   1 H      0.270  0.730  0.000  0.000     0.809     1.409
 235   1 H      0.254  0.746  0.000  0.000     0.869     1.460
 236   1 H      0.276  0.724  0.000  0.000     0.791     1.393
 237   7 N     -0.200  1.222  3.978  0.000    25.337     7.476
 238   6 C      0.019  1.037  2.944  0.000    20.258     6.408
 239   6 C      0.277  1.034  2.690  0.000    22.323     7.738
 240   8 O     -0.505  1.752  4.753  0.000    23.892     6.554
 241   6 C     -0.102  1.022  3.080  0.000    22.418     6.735
 242   6 C     -0.085  1.008  3.077  0.000    22.107     6.690
 243   6 C     -0.016  1.011  3.006  0.000    20.902     6.515
 244   7 N     -0.208  1.187  4.022  0.000    25.529     7.504
 245   6 C      0.273  0.965  2.762  0.000    22.379     7.745
 246   7 N     -0.202  1.170  4.032  0.000    25.383     7.483
 247   7 N     -0.258  1.186  4.072  0.000    26.680     7.672
 248   1 H      0.224  0.776  0.000  0.000     0.991     1.559
 249   1 H      0.074  0.926  0.000  0.000     2.041     2.234
 250   1 H      0.077  0.923  0.000  0.000     2.012     2.218
 251   1 H      0.093  0.907  0.000  0.000     1.853     2.129
 252   1 H      0.072  0.928  0.000  0.000     2.065     2.247
 253   1 H      0.057  0.943  0.000  0.000     2.235     2.338
 254   1 H      0.080  0.920  0.000  0.000     1.981     2.201
 255   1 H      0.068  0.932  0.000  0.000     2.105     2.269
 256   1 H      0.217  0.783  0.000  0.000     1.024     1.585
 257   1 H      0.246  0.754  0.000  0.000     0.898     1.485
 258   1 H      0.268  0.732  0.000  0.000     0.815     1.414
 259   1 H      0.252  0.748  0.000  0.000     0.876     1.466
 260   1 H      0.267  0.733  0.000  0.000     0.820     1.419
 261   7 N     -0.182  1.221  3.961  0.000    24.943     7.418
 262   6 C      0.010  1.048  2.942  0.000    20.398     6.428
 263   6 C      0.294  1.033  2.673  0.000    22.011     7.683
 264   8 O     -0.493  1.739  4.754  0.000    23.631     6.518
 265   6 C     -0.021  1.035  2.986  0.000    20.904     6.502
 266   6 C     -0.136  0.996  3.140  0.000    23.142     6.853
 267   6 C     -0.146  1.000  3.145  0.000    23.337     6.882
 268   1 H      0.215  0.785  0.000  0.000     1.034     1.593
 269   1 H      0.097  0.903  0.000  0.000     1.807     2.102
 270   1 H      0.044  0.956  0.000  0.000     2.398     2.421
 271   1 H      0.073  0.927  0.000  0.000     2.050     2.239
 272   1 H      0.030  0.970  0.000  0.000     2.589     2.516
 273   1 H      0.064  0.936  0.000  0.000     2.157     2.296
 274   1 H      0.071  0.929  0.000  0.000     2.072     2.251
 275   1 H      0.071  0.929  0.000  0.000     2.076     2.253
 276   1 H      0.058  0.942  0.000  0.000     2.225     2.332
 277   7 N     -0.195  1.221  3.974  0.000    25.240     7.462
 278   6 C      0.036  1.039  2.925  0.000    19.960     6.360
 279   6 C      0.276  1.039  2.685  0.000    22.332     7.739
 280   8 O     -0.530  1.751  4.779  0.000    24.449     6.630
 281   6 C     -0.106  1.032  3.073  0.000    22.499     6.750
 282   6 C      0.364  1.017  2.618  0.000    20.820     7.467
 283   8 O     -0.619  1.768  4.851  0.000    26.589     6.913
 284   8 O     -0.658  1.767  4.891  0.000    27.596     7.043
 285   1 H      0.201  0.799  0.000  0.000     1.100     1.643
 286   1 H      0.075  0.925  0.000  0.000     2.029     2.227
 287   1 H      0.047  0.953  0.000  0.000     2.361     2.403
 288   1 H      0.052  0.948  0.000  0.000     2.297     2.370
 289   7 N     -0.176  1.227  3.949  0.000    24.813     7.398
 290   6 C      0.044  1.032  2.925  0.000    19.840     6.341
 291   6 C      0.218  1.080  2.702  0.000    23.399     7.924
 292   8 O     -0.374  1.738  4.637  0.000    21.176     6.170
 293   6 C     -0.126  1.042  3.085  0.000    22.902     6.811
 294   6 C      0.368  1.017  2.614  0.000    20.754     7.456
 295   8 O     -0.638  1.762  4.876  0.000    27.062     6.975
 296   8 O     -0.644  1.771  4.873  0.000    27.230     6.996
 297   1 H      0.229  0.771  0.000  0.000     0.968     1.541
 298   1 H      0.080  0.920  0.000  0.000     1.983     2.202
 299   1 H      0.115  0.885  0.000  0.000     1.655     2.012
 300   1 H      0.034  0.966  0.000  0.000     2.530     2.487
 301   1 H      0.206  0.794  0.000  0.000     1.074     1.623
 302   1 H      0.082  0.918  0.000  0.000     1.961     2.190
 303   1 H      0.163  0.837  0.000  0.000     1.318     1.798
 304   1 H      0.083  0.917  0.000  0.000     1.949     2.183
 305   1 H      0.208  0.792  0.000  0.000     1.066     1.617
 306   1 H      0.086  0.914  0.000  0.000     1.919     2.166
 307   1 H      0.190  0.810  0.000  0.000     1.158     1.685
 308   1 H      0.056  0.944  0.000  0.000     2.250     2.345

 Mol. C6AA /au·bohr⁶  :     900197.434614
 Mol. C8AA /au·bohr⁸  :   19879704.914922
 Mol. α(0) /au        :       1406.935866

 
molecular dipole:
                 x           y           z       tot (Debye)
 q only:     -302.178    -232.982    -128.397
   full:     -298.852    -233.935    -127.091    1017.326
molecular quadrupole (traceless):
                xx          xy          yy          xz          yz          zz
 q only:   -19088.418  -34780.158     557.518  -20398.205  -15000.895   18530.900
  q+dip:   -18382.262  -34574.860      34.073  -20007.102  -14936.157   18348.189
   full:   -18379.656  -34575.946      32.962  -20007.677  -14933.312   18346.694
speedup  1.00
cpu  time for grad    4.40 s
wall time for grad    4.40 s

SCC energy    :    -514.0710927
rep           :       7.9971331
ES            :       2.6074518
AES           :      -0.0989086
AXC           :       0.0583730
disp          :      -0.4044281
XB            :       0.0000000
fix           :       0.0000000
Gborn         :       0.0000000
Gsasa         :       0.0000000
Ghb           :       0.0000000
Gshift        :       0.0000000
Gsolv         :      -0.9352529     -586.88
Etot ala COSMO:    -514.0710927
grad norm     :       1.0854354
total E       :    -506.0430532
atomizationE  :      87.4505714    54876.06
(atE without considering molecular charge,
 total energy contains solvation terms)
H-L gap (eV)  :          1.6570

------------------------------------------------------------------------
 * finished run on 2019/03/15 at 00:15:21.672     
------------------------------------------------------------------------
 total:
 * wall-time:     0 d,  0 h,  0 min,  4.877 sec
 *  cpu-time:     0 d,  0 h,  0 min,  4.755 sec
 * ratio c/w:     0.975 speedup
 SCF:
 * wall-time:     0 d,  0 h,  0 min,  4.672 sec
 *  cpu-time:     0 d,  0 h,  0 min,  4.670 sec
 * ratio c/w:     1.000 speedup

