      -----------------------------------------------------------      
     |                   =====================                   |     
     |                           x T B                           |     
     |                   =====================                   |     
     |                         S. Grimme                         |     
     |          Mulliken Center for Theoretical Chemistry        |     
     |                    University of Bonn                     |     
     |                Version 6.1 RC1 (SAW190329)                |     
      -----------------------------------------------------------      

   This program is distributed in the hope that it will be useful,
   but WITHOUT ANY WARRANTY; without even the implied warranty of
   MERCHANTABILITY or FITNESS FOR A PARTICULAR PURPOSE.
   
   FOR NON-COMMERCIAL, ACADEMIA USE ONLY.
   
   Cite this work as:
   S. Grimme, C. Bannwarth, P. Shushkov, J. Comput. Theory Chem., 2017,
   13, 1989-2009. DOI: 10.1021/acs.jctc.7b00118
   C. Bannwarth, S. Ehlert and S. Grimme., J. Comput. Theory Chem., 2019,
   just accepted. DOI: 10.1021/acs.jctc.8b01176
   
   for sTDA-xTB:
   S. Grimme and C. Bannwarth, J. Chem. Phys., 2016, 145, 054103.
   DOI: 10.1063/1.4959605
   
   in the mass-spec context:
   V. Asgeirsson, C. Bauer and S. Grimme, Chem. Sci., 2017, 8, 4879.
   DOI: 10.1039/c7sc00601b
   
   for metadynamics refer to:
   S. Grimme, ChemRxiv, Preprint. DOI: 10.26434/chemrxiv.7660532.v1
   
   with help from (in alphabetical order)
   C. Bannwarth, F. Bohle, G. Brandenburg, E. Caldeweyher, M. Checinski,
   S. Dohm, S. Ehlert, S. Ehrlich, F. März, H. Neugebauer, J. Pisarek,
   P. Pracht, P. Shushkov, and S. Spicher.
   
 * started run on 2019/05/31 at 06:33:25.151     

           -------------------------------------------------
          |                Calculation Setup                |
           -------------------------------------------------

          program call               : /home/lum/qr/xtb-190329/bin/xtb xtb_tmp.xyz --chrg 0 --grad --gfn 2 --etemp 500 --acc 0.1 --gbsa h2o --parallel 2
          hostname                   : cu39
          coordinate file            : xtb_tmp.xyz
          omp threads                :                     2
          number of atoms            :                   498
          number of electrons        :                  1354
          charge                     :                     0
          spin                       :                   0.0
          first test random number   :      0.64030649998507


molecular fragmentation (1/2 indicates fragments):
111111111111111111111111111111111111111111111111111111111111111111111112
222222222222222222222222222222222222222222222222222222222222222222222222
222222222222222222222222222222222222222222222222222222222222222222222222
222222222222222222222222222222222222222222222222222222222222222222222222
222222222222222222222222222222222222222222222222222222222222222222222222
222222222222222222222222222222222222222222222222222222222222222222222222
222222222222222222222222222222222222222222222222112222222222222222
# atoms in fragment 1/2:    73   425
 fragment masses (1/2) :      503.60     2936.44
CMA distance (Bohr)    :  11.925
constraining FC (au)   :  0.0500

########################################################################
# WARNING! Please study the warnings concerning your input carefully
#  - XTBPATH is not set, using XTBHOME instead
#  - Process number higher than OMP_NUM_THREADS, I hope you know what you are doing.
########################################################################

           ------------------------------------------------- 
          |                 G F N 2 - x T B                 |
          | Geometry, Frequencies, Noncovalent interactions |
          |            JCTC 2018 parametrisation            |
           ------------------------------------------------- 
 
             k(s)              :                1.8500
             k(p)              :                2.2300
             k(d)              :                2.2300
             k(f)              :                2.0000
             kEN (H0ij)        :               -2.0000
             D4 a1             :                0.5200
             D4 a2             :                5.0000
             D4 s6             :                1.0000
             D4 s8             :                2.7000
             D4 s9             :                5.0000
             alphaj            :                2.0000

  Z AO/shell   Hii/eV     exponent
  1     Wed Apr 25 08:07:45 CEST 2018   EN: 2.200 GM2: 0.406  GM3: 0.0800  RAES: 1.40
     1s    -10.707211    1.230000
  6     Wed Apr 25 08:07:45 CEST 2018   EN: 2.550 GM2: 0.538  GM3: 0.1500  RAES: 3.00
     2s    -13.970922    2.096432
     2p    -10.063292    1.800000
  7     Wed Apr 25 08:07:45 CEST 2018   EN: 3.040 GM2: 0.461  GM3:-0.0640  RAES: 1.90
     2s    -16.686243    2.339881
     2p    -12.523956    2.014332
  8     Wed Apr 25 08:07:45 CEST 2018   EN: 3.440 GM2: 0.452  GM3:-0.0517  RAES: 1.80
     2s    -20.229985    2.439742
     2p    -15.503117    2.137023
 16     Tue Apr 24 11:44:34 CEST 2018   EN: 2.580 GM2: 0.340  GM3:-0.0502  RAES: 3.10
     3s    -20.029654    1.981333
     3p    -11.377694    2.025643
     3d     -0.420282    1.702555

 Solvent             : h2o
 Using internal parameter file: .param_gbsa2_h2o
 Gsolv ref. state (COSMO-RS): gsolv [1 M gas/solution]
 temperature (mdtemp)       :    298.150000000000     
 dielectric constant        :    80.2000000000000     
 rho                        :    1.00000000000000     
 mass                       :    18.0000000000000     
 surface tension            :    15.5689454083859     
 probe radius               :   0.975313790000000     
 vdW radii scaling          :    1.00000000000000     
 Gshift (Eh)                :   1.857443126794793E-003
 c1                         :    1.55243817000000     
 soset                      :   0.130326360000000     
 HB correction              :  T
 Number of grid points      :          230

            Z     q(EN)     CN     RAES       Cart. coordinates
     1  N   5.0   -0.71    3.00    1.93    63.19038    54.57264    50.55643
     2  C   4.0    0.06    3.98    3.59    64.63578    53.19552    48.65652
     3  C   4.0    0.29    3.03    3.02    64.57611    50.40717    49.48258
     4  O   6.0   -0.43    1.00    1.80    66.30906    49.44087    50.65976
     5  C   4.0   -0.13    3.99    3.60    67.40536    53.97463    48.55278
     6  C   4.0   -0.11    3.98    3.58    68.05280    56.46844    47.24314
     7  C   4.0   -0.23    3.98    3.59    67.48220    56.36680    44.41659
     8  C   4.0   -0.23    3.98    3.59    66.71943    58.71339    48.46600
     9  H   1.0    0.26    1.00    1.43    64.19668    55.37514    51.96242
    10  H   1.0    0.10    0.99    1.43    63.71229    53.42431    46.82409
    11  H   1.0    0.11    0.99    1.43    68.14001    53.99558    50.48591
    12  H   1.0    0.13    0.99    1.43    68.35045    52.44693    47.53405
    13  H   1.0    0.10    0.99    1.43    70.09660    56.72546    47.47440
    14  H   1.0    0.10    0.99    1.43    68.43828    57.92048    43.46692
    15  H   1.0    0.12    0.99    1.43    68.16012    54.61068    43.59185
    16  H   1.0    0.10    0.99    1.43    65.46415    56.54201    44.08049
    17  H   1.0    0.10    0.99    1.43    67.29750    60.45980    47.55004
    18  H   1.0    0.10    0.99    1.43    64.68333    58.54666    48.27748
    19  H   1.0    0.10    0.99    1.43    67.19278    58.86582    50.46382
    20  N   5.0   -0.49    3.01    1.93    62.43515    49.17336    48.92730
    21  C   4.0    0.08    4.00    3.63    62.06416    46.71260    50.07303
    22  C   4.0    0.26    3.01    3.02    64.13790    44.86558    49.24405
    23  O   6.0   -0.44    1.00    1.80    65.04178    43.37929    50.77721
    24  C   4.0   -0.14    3.99    3.60    59.36741    45.77658    49.65636
    25  C   4.0   -0.05    3.03    3.02    57.48406    47.45922    50.97132
    26  C   4.0   -0.11    3.03    3.02    55.47194    48.48663    49.63777
    27  C   4.0   -0.11    3.03    3.02    57.70548    48.00208    53.53486
    28  C   4.0   -0.09    3.03    3.02    53.65501    49.90948    50.85506
    29  C   4.0   -0.08    3.02    3.02    55.92028    49.44786    54.77013
    30  C   4.0    0.11    3.03    3.02    53.83849    50.35691    53.43756
    31  O   6.0   -0.45    1.99    1.83    52.04987    51.68305    54.67679
    32  H   1.0    0.23    1.00    1.43    60.89681    50.17058    48.34492
    33  H   1.0    0.13    0.99    1.43    62.40218    46.88976    52.11648
    34  H   1.0    0.09    0.99    1.43    58.93667    45.68596    47.64458
    35  H   1.0    0.10    0.99    1.43    59.26252    43.85667    50.40740
    36  H   1.0    0.10    1.00    1.43    55.31378    48.15182    47.63510
    37  H   1.0    0.11    0.99    1.43    59.29377    47.28221    54.59861
    38  H   1.0    0.12    1.00    1.43    52.07677    50.65546    49.80559
    39  H   1.0    0.14    1.00    1.43    56.13463    49.83827    56.75967
    40  H   1.0    0.26    0.99    1.43    50.62994    51.97344    53.55826
    41  N   5.0   -0.31    3.04    1.93    64.92888    45.00571    46.84870
    42  C   4.0    0.07    4.05    3.71    67.05409    43.55347    45.91524
    43  C   4.0    0.28    3.01    3.02    68.96517    45.40259    44.77203
    44  O   6.0   -0.38    1.00    1.80    68.57281    47.66290    44.59293
    45  C   4.0   -0.13    4.01    3.64    65.82567    42.03165    43.77886
    46  C   4.0   -0.14    4.01    3.63    64.11249    44.02729    42.55153
    47  C   4.0   -0.03    4.03    3.67    63.59128    45.98336    44.65755
    48  H   1.0    0.14    0.99    1.43    67.92003    42.41412    47.40465
    49  H   1.0    0.11    0.99    1.43    67.18243    41.20653    42.47617
    50  H   1.0    0.11    0.99    1.43    64.70944    40.50333    44.59637
    51  H   1.0    0.13    0.99    1.43    65.07138    44.91708    40.96334
    52  H   1.0    0.10    0.99    1.43    62.37247    43.18363    41.86362
    53  H   1.0    0.14    0.99    1.43    64.38198    47.82401    44.15200
    54  H   1.0    0.09    0.99    1.43    61.58870    46.17370    45.05314
    55  N   5.0   -0.50    3.00    1.93    71.08506    44.31892    43.88542
    56  C   4.0    0.02    3.99    3.61    72.74769    45.64834    42.15923
    57  C   4.0    0.31    3.00    3.02    72.88500    48.49074    42.67563
    58  O   6.0   -0.41    1.00    1.80    72.80783    50.05540    40.99312
    59  H   1.0    0.24    1.00    1.43    71.37966    42.46006    44.19034
    60  H   1.0    0.10    0.99    1.43    74.66362    44.89541    42.35089
    61  H   1.0    0.12    0.99    1.43    72.12424    45.38843    40.20010
    62  N   5.0   -0.43    3.01    1.93    73.31660    49.08958    45.11158
    63  C   4.0    0.05    3.99    3.60    74.17339    51.57836    45.84512
    64  C   4.0    0.05    3.00    3.02    77.02935    51.72150    45.34929
    65  O   6.0   -0.45    1.00    1.80    78.18680    49.85543    44.59189
    66  C   4.0   -0.23    3.98    3.59    73.61427    52.00110    48.63884
    67  H   1.0    0.24    1.00    1.43    73.74109    47.68064    46.32629
    68  H   1.0    0.13    0.99    1.43    73.19169    52.95079    44.65264
    69  H   1.0    0.09    0.99    1.43    73.55168    54.00389    49.07680
    70  H   1.0    0.12    0.99    1.43    71.78843    51.18996    49.11402
    71  H   1.0    0.10    0.99    1.43    75.06385    51.10690    49.78997
    72  N   5.0   -0.66    3.00    1.93    78.53784    54.36677    26.81686
    73  C   4.0    0.06    3.98    3.58    79.29713    51.76517    27.05713
    74  C   4.0    0.07    3.00    3.02    78.02082    50.26180    24.93594
    75  O   6.0   -0.36    1.00    1.80    76.47211    51.23524    23.52252
    76  C   4.0   -0.15    3.98    3.59    78.36461    50.72371    29.61070
    77  C   4.0   -0.15    3.98    3.59    78.92955    52.54545    31.77824
    78  C   4.0   -0.04    3.99    3.60    77.57978    51.81916    34.21958
    79  N   5.0   -0.47    3.02    1.93    78.79393    49.71750    35.46141
    80  C   4.0    0.37    3.00    3.02    79.39714    49.51031    37.87261
    81  N   5.0   -0.64    3.02    1.93    80.54443    47.39682    38.65579
    82  N   5.0   -0.63    3.01    1.93    79.12168    51.38256    39.54012
    83  H   1.0    0.27    1.00    1.43    76.67525    54.68214    27.17951
    84  H   1.0    0.11    0.99    1.43    81.35946    51.66950    26.91220
    85  H   1.0    0.12    0.99    1.43    76.31704    50.47781    29.45282
    86  H   1.0    0.10    0.99    1.43    79.18800    48.86060    29.93505
    87  H   1.0    0.12    0.99    1.43    80.96139    52.67810    32.09443
    88  H   1.0    0.10    0.99    1.43    78.26284    54.41989    31.24376
    89  H   1.0    0.11    0.99    1.43    77.55506    53.46381    35.45589
    90  H   1.0    0.11    0.99    1.43    75.61886    51.31795    33.78048
    91  H   1.0    0.23    1.00    1.43    79.16090    48.17722    34.35031
    92  H   1.0    0.25    1.00    1.43    80.60797    45.91865    37.44901
    93  H   1.0    0.27    1.00    1.43    80.71293    47.09282    40.52900
    94  H   1.0    0.26    1.00    1.43    78.02655    52.86630    39.06935
    95  H   1.0    0.31    1.00    1.43    79.18694    50.89232    41.40176
    96  N   5.0   -0.68    3.00    1.93    69.56035    40.50619    27.52112
    97  C   4.0    0.07    3.98    3.59    69.88760    38.53746    29.38899
    98  C   4.0    0.28    3.00    3.02    67.62545    36.72047    29.36912
    99  O   6.0   -0.42    1.00    1.80    65.66134    37.21503    28.25680
   100  C   4.0   -0.14    4.02    3.65    70.19759    39.72294    32.02663
   101  C   4.0   -0.14    3.98    3.58    72.88664    40.65814    32.48583
   102  S   6.0   -0.17    2.02    3.10    73.27264    41.72829    35.72394
   103  C   4.0   -0.20    3.98    3.58    75.09227    39.13834    37.08073
   104  H   1.0    0.33    1.00    1.43    68.08891    41.71848    27.76697
   105  H   1.0    0.12    0.99    1.43    71.59685    37.47922    28.87059
   106  H   1.0    0.13    0.99    1.43    68.88485    41.32043    32.15758
   107  H   1.0    0.12    0.99    1.43    69.68941    38.32834    33.46411
   108  H   1.0    0.11    0.99    1.43    74.27971    39.16938    32.15295
   109  H   1.0    0.11    0.99    1.43    73.34510    42.25282    31.25403
   110  H   1.0    0.10    0.99    1.43    75.60340    39.69253    38.98313
   111  H   1.0    0.11    0.99    1.43    73.96539    37.42675    37.11619
   112  H   1.0    0.11    0.99    1.43    76.77636    38.83534    35.94923
   113  N   5.0   -0.47    3.01    1.93    67.97635    34.61937    30.72009
   114  C   4.0    0.09    3.99    3.60    66.15374    32.62409    31.08621
   115  C   4.0    0.27    3.01    3.02    65.84571    32.25722    33.93325
   116  O   6.0   -0.46    1.00    1.80    67.68494    32.35558    35.33285
   117  C   4.0    0.05    3.97    3.58    67.17589    30.12864    29.86698
   118  O   6.0   -0.46    1.99    1.82    69.83727    30.26965    29.83525
   119  C   4.0   -0.20    3.98    3.59    66.11864    29.88095    27.19100
   120  H   1.0    0.26    1.00    1.43    69.70252    34.20008    31.41385
   121  H   1.0    0.12    0.99    1.43    64.36891    33.18346    30.21217
   122  H   1.0    0.12    0.99    1.43    66.52750    28.51766    31.00946
   123  H   1.0    0.31    0.99    1.43    70.64766    28.66164    30.28830
   124  H   1.0    0.12    0.99    1.43    66.82086    28.15877    26.32342
   125  H   1.0    0.10    0.99    1.43    64.06465    29.84343    27.24599
   126  H   1.0    0.14    0.99    1.43    66.75186    31.49973    26.09983
   127  N   5.0   -0.48    3.01    1.93    63.48137    31.89379    34.75755
   128  C   4.0    0.08    3.99    3.60    62.81262    31.45368    37.38300
   129  C   4.0    0.26    3.02    3.02    60.95151    29.23640    37.47344
   130  O   6.0   -0.42    1.00    1.80    60.04045    28.37211    35.52493
   131  C   4.0   -0.12    3.99    3.60    61.50102    33.78729    38.55367
   132  C   4.0   -0.02    3.02    3.02    62.84588    36.25704    38.10361
   133  C   4.0   -0.08    3.04    3.02    65.45663    36.46345    38.15067
   134  C   4.0   -0.12    3.04    3.02    61.45700    38.44885    37.69086
   135  C   4.0   -0.11    3.03    3.02    66.65182    38.73352    37.66453
   136  C   4.0   -0.10    3.03    3.02    62.62457    40.73803    37.24843
   137  C   4.0    0.09    3.03    3.02    65.24683    40.88789    37.16093
   138  O   6.0   -0.48    1.99    1.83    66.35219    43.14053    36.61990
   139  H   1.0    0.25    1.00    1.43    62.07554    31.50315    33.51764
   140  H   1.0    0.15    0.99    1.43    64.52509    30.98960    38.44288
   141  H   1.0    0.11    0.99    1.43    59.59055    33.91965    37.78502
   142  H   1.0    0.12    0.99    1.43    61.36163    33.44861    40.58545
   143  H   1.0    0.14    1.00    1.43    66.60220    34.82256    38.51044
   144  H   1.0    0.10    1.00    1.43    59.42151    38.35244    37.72999
   145  H   1.0    0.11    0.99    1.43    68.69248    38.83311    37.64126
   146  H   1.0    0.11    1.00    1.43    61.52718    42.42636    36.96032
   147  H   1.0    0.26    0.99    1.43    68.17280    42.95143    36.57325
   148  N   5.0   -0.49    3.01    1.93    60.30320    28.39922    39.77485
   149  C   4.0    0.08    4.00    3.61    58.22252    26.65922    40.07007
   150  C   4.0    0.28    3.01    3.02    56.72580    27.32511    42.44371
   151  O   6.0   -0.45    1.00    1.80    57.68466    28.52563    44.17431
   152  C   4.0    0.00    3.98    3.58    59.12167    23.89109    40.30152
   153  O   6.0   -0.45    1.99    1.82    59.96196    23.24645    42.73401
   154  H   1.0    0.30    1.00    1.43    61.05983    29.16492    41.35885
   155  H   1.0    0.13    0.99    1.43    57.04201    26.81114    38.37443
   156  H   1.0    0.13    0.99    1.43    57.53315    22.63725    39.88990
   157  H   1.0    0.14    0.99    1.43    60.61145    23.57413    38.89093
   158  H   1.0    0.31    0.99    1.43    61.21804    24.46423    43.30255
   159  N   5.0   -0.49    3.01    1.93    54.34360    26.50459    42.44662
   160  C   4.0    0.07    3.99    3.60    52.67225    26.62056    44.61361
   161  C   4.0    0.06    3.00    3.02    51.64645    23.95593    45.04745
   162  O   6.0   -0.40    1.00    1.80    50.57468    22.81563    43.33471
   163  C   4.0   -0.07    3.98    3.59    50.42626    28.40303    44.08114
   164  C   4.0   -0.15    3.98    3.59    51.33065    31.13761    43.76449
   165  C   4.0   -0.21    3.98    3.59    48.51881    28.18468    46.23350
   166  C   4.0   -0.23    3.98    3.58    49.62096    32.66996    42.02557
   167  H   1.0    0.25    1.00    1.43    53.66674    25.51010    40.96122
   168  H   1.0    0.15    0.99    1.43    53.73936    27.27686    46.25719
   169  H   1.0    0.13    0.99    1.43    49.55164    27.75719    42.31594
   170  H   1.0    0.11    0.99    1.43    51.40853    31.99672    45.63770
   171  H   1.0    0.13    0.99    1.43    53.24299    31.14165    42.99271
   172  H   1.0    0.12    0.99    1.43    47.02678    29.58088    46.03276
   173  H   1.0    0.12    0.99    1.43    47.66958    26.31094    46.25983
   174  H   1.0    0.13    0.99    1.43    49.46189    28.47835    48.03960
   175  H   1.0    0.10    0.99    1.43    50.21576    34.63665    41.97850
   176  H   1.0    0.11    0.99    1.43    49.71080    31.91597    40.11640
   177  H   1.0    0.13    0.99    1.43    47.67461    32.58295    42.66845
   178  N   5.0   -0.68    3.00    1.93    61.71969    40.87668    27.21388
   179  C   4.0    0.07    3.98    3.59    61.15106    43.25414    28.42976
   180  C   4.0    0.08    3.00    3.02    63.33282    45.09397    28.01129
   181  O   6.0   -0.42    1.00    1.80    65.54847    44.39746    28.00721
   182  C   4.0   -0.09    3.98    3.58    60.60940    42.85287    31.26573
   183  C   4.0   -0.23    3.98    3.59    59.78300    45.32965    32.47963
   184  C   4.0   -0.23    3.98    3.59    58.55809    40.84390    31.56696
   185  H   1.0    0.33    1.00    1.43    63.32776    39.96014    27.70507
   186  H   1.0    0.11    0.99    1.43    59.44406    43.98029    27.50755
   187  H   1.0    0.14    0.99    1.43    62.35947    42.20686    32.16488
   188  H   1.0    0.09    0.99    1.43    59.30571    45.00002    34.44738
   189  H   1.0    0.11    0.99    1.43    61.29546    46.71649    32.39865
   190  H   1.0    0.10    0.99    1.43    58.12464    46.07797    31.52284
   191  H   1.0    0.10    0.99    1.43    57.99907    40.70758    33.53484
   192  H   1.0    0.10    0.99    1.43    56.91519    41.36256    30.44415
   193  H   1.0    0.11    0.99    1.43    59.22636    39.01131    30.92554
   194  N   5.0   -0.72    3.00    1.93    57.06470    51.29112    35.64427
   195  C   4.0    0.07    3.98    3.58    56.94159    49.68066    37.87049
   196  C   4.0    0.07    3.00    3.02    54.22765    49.53523    38.88273
   197  O   6.0   -0.48    1.00    1.80    53.21119    47.51702    39.32431
   198  C   4.0   -0.09    3.97    3.58    58.81539    50.58537    39.94229
   199  C   4.0   -0.21    3.98    3.59    59.12705    53.45792    39.99894
   200  C   4.0   -0.23    3.98    3.59    58.00192    49.67574    42.56740
   201  H   1.0    0.25    1.00    1.43    58.70536    52.20574    35.32721
   202  H   1.0    0.10    0.99    1.43    57.43198    47.73902    37.32674
   203  H   1.0    0.10    0.99    1.43    60.65311    49.74870    39.48977
   204  H   1.0    0.09    0.99    1.43    60.07276    53.98681    41.74342
   205  H   1.0    0.10    0.99    1.43    60.31183    54.15185    38.46981
   206  H   1.0    0.12    0.99    1.43    57.29848    54.38818    39.91971
   207  H   1.0    0.09    0.99    1.43    59.56539    49.96238    43.86951
   208  H   1.0    0.11    0.99    1.43    56.39291    50.77069    43.22392
   209  H   1.0    0.10    0.99    1.43    57.49403    47.68575    42.51792
   210  N   5.0   -0.71    3.00    1.93    49.08443    43.54862    38.01913
   211  C   4.0    0.07    3.98    3.59    48.27941    42.16409    40.24838
   212  C   4.0    0.08    3.00    3.02    45.39121    42.19840    40.35625
   213  O   6.0   -0.40    1.00    1.80    44.14097    40.25507    40.53091
   214  C   4.0   -0.09    3.98    3.58    49.47662    43.26245    42.65213
   215  C   4.0   -0.22    3.98    3.59    48.02160    42.39472    44.99027
   216  C   4.0   -0.23    3.98    3.59    52.24765    42.47392    42.82268
   217  H   1.0    0.30    1.00    1.43    50.25642    45.04721    38.23867
   218  H   1.0    0.11    0.99    1.43    48.81462    40.17501    40.00790
   219  H   1.0    0.13    0.99    1.43    49.36817    45.31960    42.50294
   220  H   1.0    0.11    0.99    1.43    49.04139    42.94136    46.68273
   221  H   1.0    0.12    0.99    1.43    46.14770    43.23020    45.02967
   222  H   1.0    0.11    0.99    1.43    47.81695    40.35080    44.97011
   223  H   1.0    0.10    0.99    1.43    53.07419    43.21466    44.54956
   224  H   1.0    0.09    0.99    1.43    52.40421    40.42471    42.83857
   225  H   1.0    0.12    0.99    1.43    53.29940    43.21079    41.22129
   226  N   5.0   -0.69    3.00    1.93    46.32482    29.83896    59.48246
   227  C   4.0    0.07    3.98    3.59    47.01845    30.22530    56.84575
   228  C   4.0    0.29    3.01    3.02    49.85876    30.76098    56.73004
   229  O   6.0   -0.45    1.00    1.80    50.69151    32.64062    57.78817
   230  C   4.0   -0.12    3.99    3.60    45.52222    32.55141    55.92763
   231  C   4.0   -0.04    3.02    3.02    45.53752    33.04854    53.12874
   232  C   4.0   -0.09    3.03    3.02    47.32688    34.61032    52.01547
   233  C   4.0   -0.11    3.04    3.02    43.61211    32.08423    51.62479
   234  C   4.0   -0.11    3.03    3.02    47.16688    35.23146    49.48260
   235  C   4.0   -0.08    3.03    3.02    43.43551    32.67610    49.09434
   236  C   4.0    0.10    3.03    3.02    45.20460    34.29216    48.01291
   237  O   6.0   -0.47    1.99    1.83    44.91279    34.91900    45.53617
   238  H   1.0    0.29    1.00    1.43    45.97368    31.43367    60.47536
   239  H   1.0    0.11    0.99    1.43    46.50952    28.52983    55.78367
   240  H   1.0    0.10    0.99    1.43    43.56534    32.29140    56.52613
   241  H   1.0    0.12    0.99    1.43    46.30702    34.19704    56.89541
   242  H   1.0    0.13    1.00    1.43    48.83504    35.40712    53.13412
   243  H   1.0    0.11    1.00    1.43    42.19199    30.88277    52.45316
   244  H   1.0    0.10    1.00    1.43    48.53889    36.49508    48.65591
   245  H   1.0    0.13    1.00    1.43    41.90532    31.95906    47.95336
   246  H   1.0    0.25    0.99    1.43    46.24336    36.05476    45.01096
   247  N   5.0   -0.48    3.01    1.93    51.30275    29.02649    55.58157
   248  C   4.0    0.09    4.00    3.61    53.99355    29.37904    55.24938
   249  C   4.0    0.26    3.01    3.02    54.56295    29.94085    52.48267
   250  O   6.0   -0.44    1.00    1.80    53.31099    29.04070    50.75485
   251  C   4.0    0.04    3.98    3.58    55.51097    27.00423    56.05586
   252  O   6.0   -0.47    1.99    1.82    54.97910    26.39934    58.60505
   253  C   4.0   -0.19    3.98    3.59    58.34724    27.49029    55.84500
   254  H   1.0    0.24    1.00    1.43    50.50473    27.62817    54.55568
   255  H   1.0    0.16    0.99    1.43    54.55604    30.96776    56.44818
   256  H   1.0    0.12    0.99    1.43    54.98245    25.42759    54.80626
   257  H   1.0    0.27    0.99    1.43    53.36992    25.55585    58.69270
   258  H   1.0    0.12    0.99    1.43    59.35433    25.89318    56.64733
   259  H   1.0    0.13    0.99    1.43    58.89762    27.67602    53.87798
   260  H   1.0    0.14    0.99    1.43    58.85646    29.19716    56.87058
   261  N   5.0   -0.50    3.01    1.93    56.52651    31.48930    52.13539
   262  C   4.0    0.08    4.00    3.62    57.64010    31.94616    49.68296
   263  C   4.0    0.26    3.01    3.02    60.45975    31.36664    49.87572
   264  O   6.0   -0.46    1.00    1.80    61.68209    32.00631    51.73994
   265  C   4.0   -0.08    3.98    3.59    57.30944    34.71678    48.82764
   266  C   4.0   -0.23    3.98    3.59    58.10377    34.98043    46.06718
   267  C   4.0   -0.22    3.98    3.59    54.57664    35.56123    49.19306
   268  H   1.0    0.27    1.00    1.43    57.42303    32.25061    53.64823
   269  H   1.0    0.15    0.99    1.43    56.72229    30.68367    48.32756
   270  H   1.0    0.12    0.99    1.43    58.53233    35.89094    50.01658
   271  H   1.0    0.09    0.99    1.43    57.87600    36.92581    45.45638
   272  H   1.0    0.13    0.99    1.43    60.07184    34.44917    45.80306
   273  H   1.0    0.11    0.99    1.43    56.94401    33.76622    44.88166
   274  H   1.0    0.09    0.99    1.43    54.37927    37.52566    48.63346
   275  H   1.0    0.11    0.99    1.43    53.32131    34.40004    48.05563
   276  H   1.0    0.13    0.99    1.43    54.01477    35.37512    51.16068
   277  N   5.0   -0.49    3.01    1.93    61.44089    30.15992    47.88435
   278  C   4.0    0.10    3.99    3.61    64.10612    29.63813    47.66510
   279  C   4.0    0.30    3.01    3.02    65.14518    30.73254    45.18961
   280  O   6.0   -0.44    1.00    1.80    63.82330    30.99793    43.31067
   281  C   4.0   -0.01    3.98    3.58    64.67320    26.78134    47.66149
   282  O   6.0   -0.46    1.99    1.82    64.14589    25.76698    45.24184
   283  H   1.0    0.30    1.00    1.43    60.34018    29.70740    46.37577
   284  H   1.0    0.13    0.99    1.43    65.04039    30.52229    49.28759
   285  H   1.0    0.11    0.99    1.43    66.67060    26.51997    48.13175
   286  H   1.0    0.12    0.99    1.43    63.49563    25.85500    49.09754
   287  H   1.0    0.26    0.99    1.43    65.01273    24.17215    45.07609
   288  N   5.0   -0.48    3.01    1.93    67.58524    31.33366    45.30071
   289  C   4.0    0.08    3.99    3.60    69.01745    32.29244    43.17759
   290  C   4.0    0.28    3.01    3.02    70.46617    30.11426    41.91707
   291  O   6.0   -0.38    1.00    1.80    71.13699    28.25945    43.12512
   292  C   4.0   -0.08    3.98    3.58    70.81965    34.38425    44.13803
   293  C   4.0   -0.19    3.98    3.59    73.15515    33.28813    45.42807
   294  C   4.0   -0.23    3.98    3.59    71.62896    36.13695    42.00523
   295  H   1.0    0.26    1.00    1.43    68.52343    31.17987    46.95369
   296  H   1.0    0.12    0.99    1.43    67.64753    33.07974    41.84046
   297  H   1.0    0.14    0.99    1.43    69.74013    35.46683    45.53951
   298  H   1.0    0.11    0.99    1.43    74.28481    34.81249    46.21831
   299  H   1.0    0.13    0.99    1.43    72.63792    32.00735    46.94684
   300  H   1.0    0.15    0.99    1.43    74.31395    32.26279    44.07316
   301  H   1.0    0.10    0.99    1.43    72.71973    37.69106    42.78919
   302  H   1.0    0.13    0.99    1.43    72.81271    35.10853    40.67429
   303  H   1.0    0.09    0.99    1.43    69.98450    36.89345    41.04237
   304  N   5.0   -0.48    3.01    1.93    70.93164    30.37823    39.43449
   305  C   4.0    0.09    4.00    3.61    72.69836    28.70472    38.18088
   306  C   4.0    0.29    3.02    3.02    75.38043    29.40360    39.01077
   307  O   6.0   -0.42    1.00    1.80    75.93299    31.55375    39.68674
   308  C   4.0   -0.09    3.98    3.59    72.46702    28.86027    35.31443
   309  C   4.0    0.32    2.99    3.02    73.22558    26.37581    33.93790
   310  O   6.0   -0.39    1.00    1.80    74.48161    24.79216    35.13645
   311  O   6.0   -0.41    1.00    1.80    72.47869    26.16750    31.70395
   312  H   1.0    0.26    1.00    1.43    70.31639    31.88906    38.45244
   313  H   1.0    0.16    0.99    1.43    72.29452    26.76505    38.79931
   314  H   1.0    0.15    0.99    1.43    70.52252    29.29320    34.79414
   315  H   1.0    0.13    0.99    1.43    73.65638    30.37018    34.54394
   316  N   5.0   -0.46    3.01    1.93    77.00882    27.46707    39.05461
   317  C   4.0    0.07    3.99    3.61    79.62971    27.94998    39.68088
   318  C   4.0    0.08    3.00    3.02    80.95349    29.33318    37.50536
   319  O   6.0   -0.36    1.00    1.80    80.52980    28.88876    35.27792
   320  C   4.0   -0.20    3.98    3.59    81.04913    25.51413    40.27429
   321  H   1.0    0.29    1.00    1.43    76.54200    25.96057    37.94764
   322  H   1.0    0.14    0.99    1.43    79.59347    29.19731    41.33488
   323  H   1.0    0.11    0.99    1.43    82.96438    25.98371    40.84759
   324  H   1.0    0.12    0.99    1.43    80.09461    24.52286    41.79629
   325  H   1.0    0.14    0.99    1.43    81.06482    24.31978    38.60181
   326  N   5.0   -0.70    3.00    1.93    82.37321    45.47710    50.44220
   327  C   4.0    0.08    3.98    3.59    79.88254    45.46144    49.28932
   328  C   4.0    0.28    3.01    3.02    78.00958    44.02917    50.94446
   329  O   6.0   -0.39    1.00    1.80    78.64161    42.25280    52.27907
   330  C   4.0   -0.12    3.98    3.59    79.85541    44.39045    46.56828
   331  C   4.0   -0.02    3.02    3.02    80.26531    41.58976    46.28690
   332  C   4.0   -0.08    3.04    3.02    82.37045    40.38202    47.28389
   333  C   4.0   -0.09    3.04    3.02    78.62322    40.15733    44.81404
   334  C   4.0   -0.09    3.03    3.02    82.83861    37.85252    46.81717
   335  C   4.0   -0.08    3.03    3.02    79.10450    37.64887    44.27703
   336  C   4.0    0.11    3.03    3.02    81.24165    36.47410    45.25653
   337  O   6.0   -0.47    1.99    1.83    81.74524    34.03524    44.60428
   338  H   1.0    0.28    1.00    1.43    82.90875    43.87562    51.35730
   339  H   1.0    0.13    0.99    1.43    79.29902    47.44019    49.15694
   340  H   1.0    0.12    0.99    1.43    78.05164    44.88877    45.69968
   341  H   1.0    0.11    0.99    1.43    81.30232    45.42811    45.51782
   342  H   1.0    0.12    1.00    1.43    83.70660    41.41956    48.41199
   343  H   1.0    0.11    1.00    1.43    76.95589    41.02077    44.01617
   344  H   1.0    0.11    0.99    1.43    84.51383    36.97717    47.59476
   345  H   1.0    0.13    1.00    1.43    77.85521    36.59194    43.06623
   346  H   1.0    0.25    0.99    1.43    83.25634    33.48251    45.47204
   347  N   5.0   -0.49    3.01    1.93    75.62433    44.90671    50.91252
   348  C   4.0    0.08    4.01    3.63    73.70268    43.59687    52.37710
   349  C   4.0    0.29    3.01    3.02    73.07479    41.09770    51.05098
   350  O   6.0   -0.42    1.00    1.80    72.95624    40.90456    48.75705
   351  C   4.0   -0.08    3.98    3.58    71.36241    45.22093    52.95536
   352  C   4.0   -0.15    3.98    3.59    72.24203    47.70590    54.19094
   353  C   4.0   -0.20    3.98    3.59    69.56793    43.70697    54.63624
   354  C   4.0   -0.23    3.98    3.58    70.20840    49.05370    55.72216
   355  H   1.0    0.23    1.00    1.43    75.08201    46.21356    49.63396
   356  H   1.0    0.14    0.99    1.43    74.61931    43.11458    54.17215
   357  H   1.0    0.15    0.99    1.43    70.34196    45.65176    51.20466
   358  H   1.0    0.11    0.99    1.43    73.84684    47.32003    55.42143
   359  H   1.0    0.11    0.99    1.43    72.89406    48.97433    52.71006
   360  H   1.0    0.12    0.99    1.43    67.87433    44.79662    55.00951
   361  H   1.0    0.15    0.99    1.43    68.95714    41.99645    53.68136
   362  H   1.0    0.13    0.99    1.43    70.44234    43.17923    56.41959
   363  H   1.0    0.10    0.99    1.43    70.91553    50.87146    56.36708
   364  H   1.0    0.14    0.99    1.43    68.52941    49.35448    54.57772
   365  H   1.0    0.10    0.99    1.43    69.70698    47.95988    57.38483
   366  N   5.0   -0.50    3.01    1.93    72.78862    39.17795    52.67772
   367  C   4.0    0.09    3.99    3.60    72.57716    36.56408    51.94552
   368  C   4.0    0.29    3.01    3.02    69.86249    35.56723    52.05845
   369  O   6.0   -0.44    1.00    1.80    68.92650    34.40739    50.29889
   370  C   4.0   -0.01    3.98    3.59    74.30939    35.02694    53.73011
   371  O   6.0   -0.47    1.99    1.82    74.32655    32.43041    53.21514
   372  H   1.0    0.26    1.00    1.43    72.79423    39.53589    54.56012
   373  H   1.0    0.14    0.99    1.43    73.21147    36.39661    49.98344
   374  H   1.0    0.12    0.99    1.43    76.21361    35.82522    53.61597
   375  H   1.0    0.14    0.99    1.43    73.61306    35.27418    55.66439
   376  H   1.0    0.26    0.99    1.43    75.81014    32.03027    52.23464
   377  N   5.0   -0.47    3.01    1.93    68.63283    36.03819    54.21743
   378  C   4.0    0.10    4.00    3.61    66.14229    35.03153    54.69551
   379  C   4.0    0.29    3.01    3.02    64.81657    36.62200    56.72797
   380  O   6.0   -0.42    1.00    1.80    65.96754    38.09538    58.08447
   381  C   4.0    0.00    3.98    3.58    66.27700    32.25494    55.56099
   382  O   6.0   -0.46    1.99    1.82    66.96867    32.17396    58.12962
   383  H   1.0    0.28    1.00    1.43    69.40655    37.05142    55.64336
   384  H   1.0    0.14    0.99    1.43    65.06231    35.07709    52.92920
   385  H   1.0    0.12    0.99    1.43    64.42743    31.37623    55.24564
   386  H   1.0    0.13    0.99    1.43    67.68887    31.28641    54.38738
   387  H   1.0    0.25    0.99    1.43    67.01304    30.43450    58.67245
   388  N   5.0   -0.49    3.01    1.93    62.33596    36.18578    56.84244
   389  C   4.0    0.08    3.99    3.60    60.53736    37.60036    58.35540
   390  C   4.0    0.27    3.01    3.02    58.20778    35.93303    58.75140
   391  O   6.0   -0.45    1.00    1.80    57.65523    34.26002    57.24017
   392  C   4.0   -0.08    3.98    3.58    59.87776    40.11223    56.98552
   393  C   4.0   -0.21    3.98    3.59    58.61864    39.62401    54.43778
   394  C   4.0   -0.22    3.98    3.59    58.25920    41.85799    58.60675
   395  H   1.0    0.27    1.00    1.43    61.55534    34.90715    55.64870
   396  H   1.0    0.15    0.99    1.43    61.39525    38.07144    60.17707
   397  H   1.0    0.13    0.99    1.43    61.69884    41.04030    56.65104
   398  H   1.0    0.09    0.99    1.43    58.18381    41.41475    53.52934
   399  H   1.0    0.12    0.99    1.43    59.87468    38.55401    53.21229
   400  H   1.0    0.12    0.99    1.43    56.86979    38.57130    54.67595
   401  H   1.0    0.10    0.99    1.43    58.19443    43.72111    57.74277
   402  H   1.0    0.12    0.99    1.43    56.34333    41.13804    58.77986
   403  H   1.0    0.15    0.99    1.43    59.06053    42.05252    60.48335
   404  N   5.0   -0.49    3.01    1.93    56.85477    36.45551    60.81932
   405  C   4.0    0.08    3.99    3.61    54.53891    35.14291    61.46197
   406  C   4.0    0.26    3.01    3.02    52.67109    37.05019    62.55982
   407  O   6.0   -0.43    1.00    1.80    53.41568    38.75019    63.96504
   408  C   4.0   -0.18    3.98    3.59    55.01199    33.00511    63.35826
   409  H   1.0    0.27    1.00    1.43    57.47017    37.81769    62.01306
   410  H   1.0    0.17    0.99    1.43    53.77671    34.33870    59.72038
   411  H   1.0    0.13    0.99    1.43    53.22064    32.21489    63.97050
   412  H   1.0    0.13    0.99    1.43    56.10810    31.51624    62.46064
   413  H   1.0    0.12    0.99    1.43    56.03295    33.69706    65.00324
   414  N   5.0   -0.47    3.01    1.93    50.26851    36.73242    61.86005
   415  C   4.0    0.06    3.99    3.60    48.23145    38.38318    62.65202
   416  C   4.0    0.06    3.00    3.02    46.44598    36.94837    64.43948
   417  O   6.0   -0.40    1.00    1.80    46.11846    34.66194    64.24376
   418  C   4.0   -0.12    3.99    3.61    46.62865    39.30811    60.42097
   419  C   4.0   -0.03    3.02    3.02    47.88678    40.91692    58.42986
   420  C   4.0   -0.08    3.03    3.02    50.44167    41.47632    58.31939
   421  C   4.0   -0.11    3.04    3.02    46.32370    41.84329    56.52194
   422  C   4.0   -0.10    3.03    3.02    51.41627    42.92536    56.36517
   423  C   4.0   -0.08    3.03    3.02    47.27240    43.26090    54.55872
   424  C   4.0    0.11    3.03    3.02    49.84284    43.81791    54.46745
   425  O   6.0   -0.48    1.99    1.83    50.69623    45.24453    52.51792
   426  H   1.0    0.28    1.00    1.43    49.85698    35.28763    60.66752
   427  H   1.0    0.14    0.99    1.43    49.06777    39.98421    63.65581
   428  H   1.0    0.11    0.99    1.43    45.83782    37.64782    59.47541
   429  H   1.0    0.10    0.99    1.43    45.04253    40.38021    61.20452
   430  H   1.0    0.15    1.00    1.43    51.73398    40.78886    59.73569
   431  H   1.0    0.11    1.00    1.43    44.32693    41.43379    56.59219
   432  H   1.0    0.11    0.99    1.43    53.41500    43.34366    56.30703
   433  H   1.0    0.13    1.00    1.43    46.06367    43.92582    53.06354
   434  H   1.0    0.26    0.99    1.43    52.49921    45.50636    52.64356
   435  N   5.0   -0.69    3.00    1.93    57.65105    40.75168    68.01054
   436  C   4.0    0.09    3.98    3.59    60.30429    40.16049    68.24603
   437  C   4.0    0.27    3.01    3.02    61.75775    40.60827    65.78929
   438  O   6.0   -0.44    1.00    1.80    60.77548    40.29062    63.72989
   439  C   4.0   -0.02    3.98    3.59    60.70626    37.37664    69.01598
   440  O   6.0   -0.48    1.99    1.82    60.13420    37.07884    71.58770
   441  H   1.0    0.31    1.00    1.43    56.59395    39.73297    66.78820
   442  H   1.0    0.12    0.99    1.43    61.02032    41.39056    69.74903
   443  H   1.0    0.12    0.99    1.43    59.46798    36.18517    67.84584
   444  H   1.0    0.11    0.99    1.43    62.67313    36.87937    68.59903
   445  H   1.0    0.26    0.99    1.43    61.17110    35.74982    72.29548
   446  N   5.0   -0.49    3.01    1.93    64.18853    41.22322    66.14793
   447  C   4.0    0.07    3.98    3.59    65.98448    41.87631    64.19639
   448  C   4.0    0.26    3.02    3.02    68.51842    40.58286    64.75513
   449  O   6.0   -0.42    1.00    1.80    69.47399    40.72192    66.85239
   450  C   4.0   -0.12    4.00    3.61    66.59481    44.73593    64.34608
   451  C   4.0   -0.03    3.02    3.02    64.53494    46.50570    63.51697
   452  C   4.0   -0.11    3.04    3.02    64.73800    47.70172    61.19023
   453  C   4.0   -0.08    3.03    3.02    62.52736    47.15677    65.08355
   454  C   4.0   -0.10    3.03    3.02    63.06212    49.56401    60.47813
   455  C   4.0   -0.07    3.03    3.02    60.81569    49.00298    64.38579
   456  C   4.0    0.10    3.03    3.02    61.11203    50.26750    62.09516
   457  O   6.0   -0.46    1.99    1.83    59.47973    52.14419    61.48047
   458  H   1.0    0.24    1.00    1.43    64.86495    41.44045    67.92197
   459  H   1.0    0.14    0.99    1.43    65.19340    41.34696    62.36446
   460  H   1.0    0.13    0.99    1.43    67.07575    45.13430    66.31527
   461  H   1.0    0.11    0.99    1.43    68.27134    45.09555    63.19869
   462  H   1.0    0.11    1.00    1.43    66.26056    47.20929    59.92540
   463  H   1.0    0.13    0.99    1.43    62.31119    46.24372    66.89686
   464  H   1.0    0.11    1.00    1.43    63.30235    50.53892    58.70309
   465  H   1.0    0.14    1.00    1.43    59.28443    49.52542    65.63024
   466  H   1.0    0.25    0.99    1.43    60.05535    52.95562    59.92932
   467  N   5.0   -0.49    3.01    1.93    69.69713    39.48821    62.79510
   468  C   4.0    0.08    3.99    3.60    72.31714    38.73122    62.94870
   469  C   4.0    0.07    3.00    3.02    73.62207    39.28152    60.44244
   470  O   6.0   -0.46    1.00    1.80    72.49309    39.29845    58.41491
   471  C   4.0    0.05    3.97    3.57    72.71108    35.90554    63.72658
   472  O   6.0   -0.48    1.99    1.82    75.21249    35.14831    63.26398
   473  C   4.0   -0.16    3.98    3.59    70.96995    34.11671    62.30147
   474  H   1.0    0.28    1.00    1.43    68.81354    39.24524    61.11335
   475  H   1.0    0.12    0.99    1.43    73.21188    39.90615    64.40937
   476  H   1.0    0.12    0.99    1.43    72.27628    35.76324    65.76033
   477  H   1.0    0.25    0.99    1.43    76.38232    36.15391    64.26843
   478  H   1.0    0.12    0.99    1.43    71.33411    32.20256    62.95162
   479  H   1.0    0.13    0.99    1.43    69.00797    34.59642    62.65043
   480  H   1.0    0.15    0.99    1.43    71.34117    34.21736    60.28586
   481  H   1.0    0.28    1.00    1.43    62.33497    55.83954    49.81089
   482  H   1.0    0.11    1.00    1.43    77.95929    53.34023    45.64252
   483  H   1.0    0.28    1.00    1.43    79.42639    55.32070    27.90913
   484  H   1.0    0.12    1.00    1.43    78.44794    48.43873    24.68089
   485  H   1.0    0.30    1.00    1.43    70.95045    41.48516    27.47858
   486  H   1.0    0.13    1.00    1.43    51.84615    23.12977    46.73525
   487  H   1.0    0.29    1.00    1.43    60.47283    39.76432    27.53100
   488  H   1.0    0.12    1.00    1.43    62.98046    46.92897    27.72900
   489  H   1.0    0.29    1.00    1.43    56.78722    50.35598    34.25104
   490  H   1.0    0.13    1.00    1.43    53.24955    51.12162    39.19542
   491  H   1.0    0.30    1.00    1.43    49.91843    42.50097    36.97059
   492  H   1.0    0.14    1.00    1.43    44.46247    43.84258    40.28422
   493  H   1.0    0.29    1.00    1.43    44.91087    28.89746    59.56545
   494  H   1.0    0.13    1.00    1.43    82.23381    30.67242    37.87726
   495  H   1.0    0.29    1.00    1.43    83.55156    45.74075    49.24448
   496  H   1.0    0.12    1.00    1.43    45.52096    37.87969    65.79890
   497  H   1.0    0.32    1.00    1.43    56.88812    40.54785    69.51684
   498  H   1.0    0.13    1.00    1.43    75.47521    39.64944    60.40281

           ------------------------------------------------- 
          |        Self-Consistent Charge Iterations        |
           ------------------------------------------------- 

          ...................................................
          :                      SETUP                      :
          :.................................................:
          :  # basis functions                1230          :
          :  # atomic orbitals                1229          :
          :  # shells                          741          :
          :  # electrons                      1354          :
          :  max. iterations                   250          :
          :  Hamiltonian                  GFN2-xTB          :
          :  restarted?                      false          :
          :  GBSA solvation                   true          :
          :  PC potential                    false          :
          :  electronic temp.          500.0000000     K    :
          :  accuracy                    0.1000000          :
          :  -> integral cutoff          0.3500000E+02      :
          :  -> integral neglect         0.1000000E-08      :
          :  -> SCF convergence          0.1000000E-06 Eh   :
          :  -> wf. convergence          0.1000000E-04 e    :
          :  Broyden damping             0.4000000          :
          ...................................................

 iter      E             dE          RMSdq      gap      omega  full diag
   1   -775.0287086 -0.775029E+03  0.426E+00    1.78       0.0  T
   2   -776.6668154 -0.163811E+01  0.224E+00    1.46       1.0  T
   3   -776.7207121 -0.538967E-01  0.117E+00    1.64       1.0  T
   4   -776.7666224 -0.459103E-01  0.276E-01    1.00       1.0  T
   5   -776.7856274 -0.190049E-01  0.114E-01    1.16       1.0  T
   6   -776.7861599 -0.532548E-03  0.512E-02    1.19       1.0  T
   7   -776.7864030 -0.243050E-03  0.244E-02    1.20       1.0  T
   8   -776.7864657 -0.627240E-04  0.933E-03    1.20       1.0  T
   9   -776.7864728 -0.714313E-05  0.462E-03    1.19       1.0  T
  10   -776.7864746 -0.174011E-05  0.213E-03    1.19       2.1  T
  11   -776.7864749 -0.361038E-06  0.955E-04    1.19       4.7  T
  12   -776.7864751 -0.124680E-06  0.489E-04    1.19       9.2  T
  13   -776.7864751 -0.296365E-07  0.238E-04    1.19      18.8  T
  14   -776.7864751 -0.537796E-08  0.106E-04    1.19      42.1  T
  15   -776.7864751 -0.127272E-08  0.467E-05    1.19      96.0  T
  16   -776.7864751 -0.216801E-09  0.226E-05    1.19     198.0  T

   *** convergence criteria satisfied after 16 iterations ***

         #    Occupation            Energy/Eh            Energy/eV
      -------------------------------------------------------------
         1        2.0000           -0.7481575             -20.3584
       ...           ...                  ...                  ...
       671        2.0000           -0.3640508              -9.9063
       672        2.0000           -0.3639301              -9.9030
       673        2.0000           -0.3625588              -9.8657
       674        2.0000           -0.3601725              -9.8008
       675        2.0000           -0.3593888              -9.7795
       676        2.0000           -0.3580986              -9.7444
       677        2.0000           -0.3524109              -9.5896 (HOMO)
       678        0.0000           -0.3087330              -8.4011 (LUMO)
       679        0.0000           -0.3075577              -8.3691
       680                         -0.2986933              -8.1279
       681                         -0.2963806              -8.0649
       682                         -0.2941782              -8.0050
       ...                                ...                  ...
      1229                          0.6728538              18.3093
      -------------------------------------------------------------
                  HL-Gap            0.0436780 Eh            1.1885 eV
             Fermi-level           -0.3308425 Eh           -9.0027 eV

 SCC (total)                   0 d,  0 h,  0 min, 12.123 sec
 SCC setup                      ...        0 min,  0.213 sec (  1.756%)
 Dispersion                     ...        0 min,  0.156 sec (  1.289%)
 integral evaluation            ...        0 min,  0.928 sec (  7.653%)
 zeroth order Hamiltonian       ...        0 min,  0.024 sec (  0.196%)
 iterations                     ...        0 min,  9.253 sec ( 76.320%)
 molecular gradient             ...        0 min,  1.502 sec ( 12.387%)
 printout                       ...        0 min,  0.048 sec (  0.396%)

         :::::::::::::::::::::::::::::::::::::::::::::::::::::
         ::                     SUMMARY                     ::
         :::::::::::::::::::::::::::::::::::::::::::::::::::::
         :: total energy             -767.208476294846 Eh   ::
         :: total w/o Gsasa/hb       -767.113990474022 Eh   ::
         :: gradient norm               0.668953582107 Eh/α ::
         :: HOMO-LUMO gap               1.188538356631 eV   ::
         ::.................................................::
         :: SCC energy               -776.811618609270 Eh   ::
         :: -> isotropic ES             1.937144876160 Eh   ::
         :: -> anisotropic ES          -0.021133125412 Eh   ::
         :: -> anisotropic XC           0.241218656330 Eh   ::
         :: -> dispersion              -0.639118245266 Eh   ::
         :: -> Gsolv                   -0.353897320648 Eh   ::
         ::    -> Gborn                -0.259411499824 Eh   ::
         ::    -> Gsasa                -0.027000952341 Eh   ::
         ::    -> Ghb                  -0.069342311610 Eh   ::
         ::    -> Gshift                0.001857443127 Eh   ::
         :: repulsion energy            9.542134854372 Eh   ::
         :: add. restraining            0.000000000000 Eh   ::
         :::::::::::::::::::::::::::::::::::::::::::::::::::::

           -------------------------------------------------
          |                Property Printout                |
           -------------------------------------------------

    * Orbital Energies and Occupations

         #    Occupation            Energy/Eh            Energy/eV
      -------------------------------------------------------------
         1        2.0000           -0.7481575             -20.3584
       ...           ...                  ...                  ...
       665        2.0000           -0.3793027             -10.3214
       666        2.0000           -0.3759198             -10.2293
       667        2.0000           -0.3758270             -10.2268
       668        2.0000           -0.3727000             -10.1417
       669        2.0000           -0.3696955             -10.0599
       670        2.0000           -0.3654263              -9.9438
       671        2.0000           -0.3640508              -9.9063
       672        2.0000           -0.3639301              -9.9030
       673        2.0000           -0.3625588              -9.8657
       674        2.0000           -0.3601725              -9.8008
       675        2.0000           -0.3593888              -9.7795
       676        2.0000           -0.3580986              -9.7444
       677        2.0000           -0.3524109              -9.5896 (HOMO)
       678        0.0000           -0.3087330              -8.4011 (LUMO)
       679        0.0000           -0.3075577              -8.3691
       680                         -0.2986933              -8.1279
       681                         -0.2963806              -8.0649
       682                         -0.2941782              -8.0050
       683                         -0.2832590              -7.7079
       684                         -0.2813154              -7.6550
       685                         -0.2768756              -7.5342
       686                         -0.2747319              -7.4758
       687                         -0.2387056              -6.4955
       688                         -0.2380909              -6.4788
       ...                                ...                  ...
      1229                          0.6728538              18.3093
      -------------------------------------------------------------
                  HL-Gap            0.0436780 Eh            1.1885 eV
             Fermi-level           -0.3308425 Eh           -9.0027 eV

   #   Z        covCN         q      C6AA      α(0)
   1   7 N      2.638    -0.397    30.277     8.172
   2   6 C      3.785     0.031    20.063     6.380
   3   6 C      2.774     0.274    22.378     7.748
   4   8 O      0.859    -0.481    23.359     6.480
   5   6 C      3.811    -0.073    21.884     6.659
   6   6 C      3.849    -0.013    20.772     6.483
   7   6 C      3.755    -0.117    22.796     6.808
   8   6 C      3.755    -0.110    22.668     6.789
   9   1 H      0.860     0.162     1.321     1.801
  10   1 H      0.924     0.039     2.469     2.457
  11   1 H      0.924     0.043     2.404     2.425
  12   1 H      0.924     0.048     2.341     2.393
  13   1 H      0.924     0.035     2.511     2.478
  14   1 H      0.925     0.043     2.413     2.429
  15   1 H      0.925     0.043     2.414     2.429
  16   1 H      0.925     0.036     2.497     2.471
  17   1 H      0.925     0.038     2.474     2.460
  18   1 H      0.925     0.037     2.487     2.466
  19   1 H      0.925     0.032     2.553     2.499
  20   7 N      2.689    -0.189    25.109     7.442
  21   6 C      3.807     0.031    20.046     6.374
  22   6 C      2.756     0.271    22.429     7.755
  23   8 O      0.859    -0.509    23.975     6.565
  24   6 C      3.810    -0.076    21.939     6.667
  25   6 C      2.970    -0.009    28.245     8.717
  26   6 C      2.925    -0.047    29.158     8.855
  27   6 C      2.925    -0.042    29.054     8.839
  28   6 C      2.918    -0.075    29.884     8.964
  29   6 C      2.916    -0.061    29.511     8.908
  30   6 C      2.848     0.149    24.759     8.155
  31   8 O      1.660    -0.430    21.435     6.250
  32   1 H      0.860     0.205     1.079     1.627
  33   1 H      0.923     0.064     2.157     2.297
  34   1 H      0.925     0.061     2.188     2.313
  35   1 H      0.924     0.058     2.228     2.334
  36   1 H      0.926     0.053     2.285     2.364
  37   1 H      0.926     0.034     2.536     2.490
  38   1 H      0.926     0.055     2.264     2.353
  39   1 H      0.926     0.050     2.325     2.384
  40   1 H      0.805     0.352     0.583     1.199
  41   7 N      2.766    -0.073    22.663     7.070
  42   6 C      3.853     0.021    20.184     6.390
  43   6 C      2.760     0.273    22.377     7.747
  44   8 O      0.859    -0.447    22.644     6.380
  45   6 C      3.832    -0.069    21.800     6.643
  46   6 C      3.828    -0.075    21.903     6.659
  47   6 C      3.778    -0.018    20.928     6.518
  48   1 H      0.924     0.058     2.225     2.333
  49   1 H      0.925     0.050     2.321     2.382
  50   1 H      0.924     0.049     2.338     2.391
  51   1 H      0.925     0.069     2.102     2.267
  52   1 H      0.925     0.063     2.168     2.303
  53   1 H      0.924     0.083     1.951     2.184
  54   1 H      0.925     0.069     2.097     2.265
  55   7 N      2.686    -0.174    24.776     7.393
  56   6 C      3.745    -0.036    21.296     6.583
  57   6 C      2.751     0.291    22.059     7.691
  58   8 O      0.858    -0.459    22.897     6.416
  59   1 H      0.860     0.196     1.125     1.662
  60   1 H      0.924     0.085     1.927     2.171
  61   1 H      0.924     0.094     1.840     2.121
  62   7 N      2.694    -0.160    24.451     7.344
  63   6 C      3.791     0.023    20.193     6.400
  64   6 C      2.767     0.185    24.023     8.027
  65   8 O      0.856    -0.360    20.903     6.130
  66   6 C      3.757    -0.133    23.107     6.854
  67   1 H      0.860     0.177     1.233     1.739
  68   1 H      0.924     0.119     1.619     1.990
  69   1 H      0.925     0.086     1.919     2.166
  70   1 H      0.925     0.083     1.950     2.184
  71   1 H      0.925     0.057     2.230     2.335
  72   7 N      2.639    -0.384    29.919     8.124
  73   6 C      3.782     0.033    20.042     6.377
  74   6 C      2.770     0.197    23.798     7.989
  75   8 O      0.856    -0.374    21.176     6.170
  76   6 C      3.807    -0.080    22.013     6.679
  77   6 C      3.803    -0.083    22.080     6.690
  78   6 C      3.739    -0.026    21.113     6.557
  79   7 N      2.700    -0.126    23.728     7.235
  80   6 C      2.736     0.229    23.184     7.883
  81   7 N      2.658    -0.257    26.683     7.672
  82   7 N      2.650    -0.251    26.534     7.650
  83   1 H      0.860     0.161     1.327     1.805
  84   1 H      0.924     0.074     2.047     2.237
  85   1 H      0.924     0.047     2.356     2.400
  86   1 H      0.924     0.054     2.275     2.358
  87   1 H      0.924     0.076     2.025     2.225
  88   1 H      0.925     0.072     2.063     2.246
  89   1 H      0.925     0.090     1.875     2.141
  90   1 H      0.924     0.086     1.916     2.165
  91   1 H      0.859     0.229     0.968     1.542
  92   1 H      0.860     0.245     0.904     1.489
  93   1 H      0.860     0.239     0.926     1.507
  94   1 H      0.860     0.236     0.940     1.519
  95   1 H      0.860     0.240     0.925     1.506
  96   7 N      2.635    -0.400    30.365     8.184
  97   6 C      3.786     0.035    20.006     6.371
  98   6 C      2.751     0.270    22.430     7.755
  99   8 O      0.858    -0.470    23.122     6.447
 100   6 C      3.839    -0.066    21.734     6.632
 101   6 C      3.795    -0.011    20.782     6.492
 102  16 S      1.975    -0.198   149.454    20.576
 103   6 C      3.744    -0.060    21.722     6.649
 104   1 H      0.860     0.182     1.204     1.719
 105   1 H      0.923     0.032     2.556     2.500
 106   1 H      0.924     0.056     2.248     2.345
 107   1 H      0.924     0.027     2.623     2.533
 108   1 H      0.924     0.036     2.496     2.471
 109   1 H      0.924     0.061     2.187     2.313
 110   1 H      0.926     0.077     2.005     2.215
 111   1 H      0.925     0.035     2.513     2.479
 112   1 H      0.925     0.056     2.246     2.344
 113   7 N      2.695    -0.162    24.511     7.353
 114   6 C      3.790     0.013    20.365     6.427
 115   6 C      2.756     0.269    22.451     7.759
 116   8 O      0.858    -0.483    23.402     6.486
 117   6 C      3.723     0.131    18.548     6.150
 118   8 O      1.653    -0.482    22.509     6.405
 119   6 C      3.753    -0.132    23.088     6.852
 120   1 H      0.860     0.202     1.097     1.640
 121   1 H      0.924     0.072     2.062     2.246
 122   1 H      0.923    -0.002     3.100     2.753
 123   1 H      0.802     0.318     0.670     1.286
 124   1 H      0.925     0.058     2.217     2.329
 125   1 H      0.925     0.057     2.239     2.340
 126   1 H      0.925     0.065     2.145     2.291
 127   7 N      2.690    -0.171    24.707     7.382
 128   6 C      3.790     0.024    20.173     6.397
 129   6 C      2.763     0.266    22.511     7.770
 130   8 O      0.859    -0.493    23.626     6.517
 131   6 C      3.810    -0.080    22.020     6.680
 132   6 C      2.965     0.002    27.978     8.676
 133   6 C      2.928    -0.042    29.045     8.838
 134   6 C      2.929    -0.045    29.106     8.848
 135   6 C      2.919    -0.079    29.968     8.977
 136   6 C      2.920    -0.061    29.528     8.911
 137   6 C      2.847     0.142    24.903     8.179
 138   8 O      1.659    -0.406    20.958     6.180
 139   1 H      0.860     0.212     1.046     1.602
 140   1 H      0.924     0.071     2.073     2.251
 141   1 H      0.924     0.061     2.189     2.314
 142   1 H      0.924     0.084     1.943     2.180
 143   1 H      0.926     0.031     2.566     2.505
 144   1 H      0.926     0.052     2.290     2.366
 145   1 H      0.925     0.037     2.488     2.467
 146   1 H      0.926     0.066     2.133     2.284
 147   1 H      0.804     0.327     0.644     1.261
 148   7 N      2.689    -0.175    24.788     7.394
 149   6 C      3.799     0.004    20.514     6.449
 150   6 C      2.756     0.276    22.336     7.739
 151   8 O      0.858    -0.466    23.055     6.438
 152   6 C      3.678     0.072    19.585     6.340
 153   8 O      1.654    -0.470    22.255     6.368
 154   1 H      0.860     0.230     0.967     1.540
 155   1 H      0.924     0.082     1.961     2.190
 156   1 H      0.924     0.065     2.147     2.291
 157   1 H      0.923     0.039     2.462     2.454
 158   1 H      0.804     0.327     0.645     1.261
 159   7 N      2.694    -0.155    24.351     7.329
 160   6 C      3.793     0.019    20.264     6.410
 161   6 C      2.771     0.203    23.685     7.971
 162   8 O      0.856    -0.359    20.870     6.125
 163   6 C      3.855    -0.018    20.860     6.496
 164   6 C      3.803    -0.060    21.654     6.625
 165   6 C      3.756    -0.118    22.822     6.811
 166   6 C      3.752    -0.114    22.743     6.801
 167   1 H      0.860     0.210     1.056     1.610
 168   1 H      0.924     0.094     1.844     2.123
 169   1 H      0.924     0.057     2.232     2.337
 170   1 H      0.924     0.048     2.349     2.397
 171   1 H      0.924     0.034     2.537     2.491
 172   1 H      0.925     0.060     2.201     2.320
 173   1 H      0.925     0.035     2.520     2.482
 174   1 H      0.925     0.056     2.241     2.341
 175   1 H      0.925     0.042     2.423     2.434
 176   1 H      0.925     0.039     2.466     2.456
 177   1 H      0.925     0.054     2.265     2.353
 178   7 N      2.636    -0.399    30.339     8.180
 179   6 C      3.787     0.037    19.971     6.365
 180   6 C      2.766     0.200    23.737     7.979
 181   8 O      0.856    -0.376    21.212     6.175
 182   6 C      3.852    -0.012    20.757     6.480
 183   6 C      3.757    -0.117    22.787     6.806
 184   6 C      3.757    -0.115    22.744     6.800
 185   1 H      0.860     0.171     1.264     1.761
 186   1 H      0.924     0.055     2.262     2.352
 187   1 H      0.924     0.033     2.538     2.492
 188   1 H      0.925     0.051     2.312     2.378
 189   1 H      0.925     0.041     2.431     2.438
 190   1 H      0.925     0.047     2.358     2.401
 191   1 H      0.925     0.054     2.265     2.353
 192   1 H      0.925     0.047     2.361     2.403
 193   1 H      0.925     0.034     2.537     2.491
 194   7 N      2.634    -0.383    29.914     8.123
 195   6 C      3.780     0.036    19.993     6.370
 196   6 C      2.763     0.205    23.645     7.963
 197   8 O      0.856    -0.374    21.168     6.169
 198   6 C      3.848    -0.019    20.871     6.498
 199   6 C      3.755    -0.120    22.862     6.818
 200   6 C      3.755    -0.119    22.827     6.812
 201   1 H      0.860     0.172     1.262     1.760
 202   1 H      0.923     0.030     2.583     2.513
 203   1 H      0.924     0.048     2.341     2.393
 204   1 H      0.925     0.051     2.302     2.372
 205   1 H      0.925     0.046     2.367     2.406
 206   1 H      0.925     0.055     2.254     2.348
 207   1 H      0.925     0.049     2.330     2.387
 208   1 H      0.925     0.048     2.347     2.396
 209   1 H      0.925     0.038     2.471     2.458
 210   7 N      2.636    -0.396    30.262     8.170
 211   6 C      3.787     0.038    19.950     6.362
 212   6 C      2.766     0.203    23.675     7.969
 213   8 O      0.856    -0.388    21.443     6.208
 214   6 C      3.852    -0.018    20.860     6.496
 215   6 C      3.756    -0.114    22.729     6.798
 216   6 C      3.756    -0.116    22.768     6.803
 217   1 H      0.860     0.179     1.221     1.731
 218   1 H      0.924     0.041     2.435     2.440
 219   1 H      0.924     0.054     2.275     2.359
 220   1 H      0.925     0.060     2.204     2.322
 221   1 H      0.925     0.032     2.555     2.499
 222   1 H      0.925     0.031     2.565     2.505
 223   1 H      0.925     0.049     2.333     2.389
 224   1 H      0.925     0.039     2.467     2.456
 225   1 H      0.925     0.055     2.259     2.350
 226   7 N      2.640    -0.388    30.047     8.141
 227   6 C      3.784     0.033    20.038     6.376
 228   6 C      2.758     0.276    22.335     7.739
 229   8 O      0.858    -0.476    23.257     6.466
 230   6 C      3.814    -0.071    21.842     6.652
 231   6 C      2.966    -0.008    28.211     8.712
 232   6 C      2.925    -0.039    28.963     8.826
 233   6 C      2.928    -0.044    29.091     8.845
 234   6 C      2.918    -0.072    29.807     8.953
 235   6 C      2.917    -0.061    29.512     8.908
 236   6 C      2.848     0.145    24.841     8.168
 237   8 O      1.659    -0.415    21.148     6.208
 238   1 H      0.860     0.164     1.311     1.793
 239   1 H      0.924     0.036     2.503     2.474
 240   1 H      0.924     0.050     2.316     2.380
 241   1 H      0.924     0.047     2.352     2.398
 242   1 H      0.926     0.031     2.571     2.508
 243   1 H      0.926     0.043     2.413     2.429
 244   1 H      0.926     0.045     2.386     2.415
 245   1 H      0.926     0.048     2.346     2.395
 246   1 H      0.805     0.321     0.662     1.278
 247   7 N      2.688    -0.171    24.701     7.381
 248   6 C      3.798    -0.001    20.601     6.463
 249   6 C      2.758     0.264    22.543     7.775
 250   8 O      0.858    -0.483    23.406     6.486
 251   6 C      3.726     0.116    18.774     6.187
 252   8 O      1.656    -0.473    22.311     6.376
 253   6 C      3.753    -0.128    23.009     6.840
 254   1 H      0.860     0.203     1.089     1.635
 255   1 H      0.924     0.095     1.827     2.114
 256   1 H      0.923     0.024     2.669     2.555
 257   1 H      0.805     0.339     0.615     1.232
 258   1 H      0.925     0.074     2.040     2.233
 259   1 H      0.925     0.039     2.469     2.457
 260   1 H      0.925     0.064     2.158     2.297
 261   7 N      2.694    -0.166    24.588     7.365
 262   6 C      3.800     0.011    20.390     6.429
 263   6 C      2.761     0.267    22.488     7.766
 264   8 O      0.858    -0.496    23.694     6.526
 265   6 C      3.853    -0.014    20.783     6.484
 266   6 C      3.756    -0.124    22.930     6.828
 267   6 C      3.756    -0.115    22.763     6.803
 268   1 H      0.860     0.217     1.025     1.586
 269   1 H      0.924     0.084     1.941     2.179
 270   1 H      0.924     0.038     2.474     2.460
 271   1 H      0.925     0.067     2.123     2.278
 272   1 H      0.925     0.028     2.609     2.526
 273   1 H      0.925     0.054     2.265     2.353
 274   1 H      0.925     0.062     2.176     2.307
 275   1 H      0.925     0.052     2.298     2.370
 276   1 H      0.925     0.038     2.478     2.462
 277   7 N      2.689    -0.174    24.772     7.392
 278   6 C      3.797     0.014    20.341     6.422
 279   6 C      2.756     0.278    22.300     7.733
 280   8 O      0.858    -0.476    23.265     6.467
 281   6 C      3.678     0.070    19.616     6.345
 282   8 O      1.655    -0.481    22.487     6.401
 283   1 H      0.860     0.238     0.931     1.512
 284   1 H      0.924     0.077     2.007     2.216
 285   1 H      0.924     0.046     2.368     2.407
 286   1 H      0.923     0.058     2.225     2.333
 287   1 H      0.805     0.345     0.599     1.216
 288   7 N      2.693    -0.159    24.438     7.342
 289   6 C      3.794     0.018    20.275     6.412
 290   6 C      2.757     0.282    22.231     7.721
 291   8 O      0.858    -0.496    23.698     6.527
 292   6 C      3.852    -0.016    20.821     6.490
 293   6 C      3.756    -0.105    22.562     6.773
 294   6 C      3.757    -0.121    22.872     6.819
 295   1 H      0.860     0.210     1.054     1.608
 296   1 H      0.924     0.070     2.089     2.260
 297   1 H      0.924     0.058     2.223     2.332
 298   1 H      0.925     0.050     2.322     2.383
 299   1 H      0.925     0.038     2.481     2.463
 300   1 H      0.925     0.039     2.462     2.454
 301   1 H      0.925     0.061     2.189     2.314
 302   1 H      0.925     0.048     2.346     2.395
 303   1 H      0.925     0.050     2.323     2.383
 304   7 N      2.690    -0.183    24.967     7.421
 305   6 C      3.799     0.043    19.847     6.343
 306   6 C      2.764     0.274    22.375     7.747
 307   8 O      0.858    -0.491    23.578     6.510
 308   6 C      3.802    -0.097    22.340     6.729
 309   6 C      2.684     0.371    20.719     7.449
 310   8 O      0.856    -0.613    26.431     6.893
 311   8 O      0.856    -0.623    26.696     6.927
 312   1 H      0.860     0.213     1.040     1.598
 313   1 H      0.923     0.050     2.321     2.382
 314   1 H      0.925     0.059     2.214     2.327
 315   1 H      0.924     0.028     2.618     2.530
 316   7 N      2.689    -0.185    25.014     7.428
 317   6 C      3.797     0.036    19.970     6.363
 318   6 C      2.766     0.205    23.647     7.964
 319   8 O      0.856    -0.382    21.326     6.191
 320   6 C      3.756    -0.130    23.057     6.846
 321   1 H      0.860     0.214     1.036     1.595
 322   1 H      0.924     0.093     1.848     2.126
 323   1 H      0.925     0.088     1.903     2.157
 324   1 H      0.925     0.085     1.930     2.172
 325   1 H      0.925     0.063     2.160     2.299
 326   7 N      2.633    -0.386    29.978     8.132
 327   6 C      3.784     0.030    20.093     6.385
 328   6 C      2.760     0.276    22.341     7.740
 329   8 O      0.859    -0.493    23.624     6.517
 330   6 C      3.807    -0.081    22.047     6.684
 331   6 C      2.964    -0.001    28.048     8.687
 332   6 C      2.927    -0.041    29.009     8.833
 333   6 C      2.928    -0.044    29.098     8.846
 334   6 C      2.918    -0.078    29.939     8.973
 335   6 C      2.918    -0.062    29.531     8.911
 336   6 C      2.845     0.141    24.923     8.182
 337   8 O      1.659    -0.447    21.789     6.301
 338   1 H      0.860     0.155     1.365     1.830
 339   1 H      0.924     0.053     2.283     2.363
 340   1 H      0.924     0.049     2.328     2.386
 341   1 H      0.924     0.076     2.023     2.225
 342   1 H      0.926     0.049     2.330     2.387
 343   1 H      0.926     0.037     2.494     2.470
 344   1 H      0.925     0.037     2.482     2.464
 345   1 H      0.926     0.041     2.434     2.440
 346   1 H      0.805     0.347     0.596     1.213
 347   7 N      2.689    -0.177    24.835     7.401
 348   6 C      3.808     0.014    20.326     6.418
 349   6 C      2.752     0.277    22.310     7.734
 350   8 O      0.858    -0.481    23.367     6.481
 351   6 C      3.849    -0.015    20.801     6.487
 352   6 C      3.804    -0.067    21.779     6.644
 353   6 C      3.756    -0.112    22.690     6.792
 354   6 C      3.751    -0.112    22.709     6.796
 355   1 H      0.860     0.191     1.155     1.684
 356   1 H      0.924     0.068     2.113     2.273
 357   1 H      0.924     0.042     2.428     2.437
 358   1 H      0.925     0.039     2.462     2.454
 359   1 H      0.925     0.048     2.342     2.393
 360   1 H      0.925     0.064     2.152     2.294
 361   1 H      0.925     0.029     2.600     2.522
 362   1 H      0.925     0.039     2.456     2.451
 363   1 H      0.925     0.047     2.352     2.399
 364   1 H      0.925     0.054     2.268     2.355
 365   1 H      0.925     0.035     2.522     2.484
 366   7 N      2.694    -0.194    25.218     7.458
 367   6 C      3.791     0.008    20.452     6.440
 368   6 C      2.755     0.276    22.323     7.737
 369   8 O      0.859    -0.485    23.462     6.494
 370   6 C      3.680     0.072    19.586     6.339
 371   8 O      1.656    -0.475    22.357     6.383
 372   1 H      0.860     0.217     1.024     1.585
 373   1 H      0.924     0.082     1.957     2.188
 374   1 H      0.924     0.051     2.305     2.374
 375   1 H      0.924     0.054     2.270     2.356
 376   1 H      0.805     0.347     0.594     1.211
 377   7 N      2.690    -0.165    24.560     7.360
 378   6 C      3.798     0.020    20.250     6.407
 379   6 C      2.752     0.280    22.254     7.725
 380   8 O      0.858    -0.472    23.170     6.454
 381   6 C      3.676     0.074    19.558     6.336
 382   8 O      1.656    -0.478    22.419     6.392
 383   1 H      0.860     0.217     1.023     1.585
 384   1 H      0.924     0.072     2.063     2.246
 385   1 H      0.924     0.050     2.316     2.380
 386   1 H      0.923     0.037     2.483     2.464
 387   1 H      0.805     0.347     0.596     1.213
 388   7 N      2.694    -0.166    24.587     7.364
 389   6 C      3.792     0.011    20.396     6.431
 390   6 C      2.755     0.273    22.391     7.749
 391   8 O      0.858    -0.491    23.592     6.512
 392   6 C      3.850    -0.011    20.745     6.478
 393   6 C      3.755    -0.109    22.636     6.784
 394   6 C      3.755    -0.122    22.901     6.824
 395   1 H      0.860     0.208     1.065     1.617
 396   1 H      0.924     0.082     1.954     2.186
 397   1 H      0.924     0.045     2.380     2.413
 398   1 H      0.925     0.051     2.307     2.375
 399   1 H      0.925     0.032     2.559     2.502
 400   1 H      0.925     0.044     2.400     2.422
 401   1 H      0.925     0.051     2.304     2.373
 402   1 H      0.925     0.041     2.434     2.440
 403   1 H      0.925     0.064     2.153     2.295
 404   7 N      2.691    -0.163    24.529     7.356
 405   6 C      3.794     0.017    20.303     6.416
 406   6 C      2.756     0.269    22.461     7.761
 407   8 O      0.858    -0.492    23.612     6.515
 408   6 C      3.754    -0.118    22.822     6.812
 409   1 H      0.860     0.213     1.042     1.599
 410   1 H      0.924     0.094     1.841     2.122
 411   1 H      0.925     0.062     2.170     2.304
 412   1 H      0.925     0.065     2.136     2.286
 413   1 H      0.925     0.050     2.324     2.384
 414   7 N      2.689    -0.158    24.423     7.340
 415   6 C      3.789     0.026    20.151     6.393
 416   6 C      2.768     0.195    23.841     7.997
 417   8 O      0.856    -0.360    20.906     6.130
 418   6 C      3.814    -0.071    21.848     6.653
 419   6 C      2.965     0.002    27.973     8.675
 420   6 C      2.923    -0.039    28.977     8.828
 421   6 C      2.930    -0.044    29.103     8.847
 422   6 C      2.918    -0.075    29.877     8.963
 423   6 C      2.918    -0.060    29.481     8.904
 424   6 C      2.847     0.144    24.859     8.171
 425   8 O      1.660    -0.410    21.033     6.191
 426   1 H      0.860     0.220     1.008     1.573
 427   1 H      0.924     0.098     1.805     2.101
 428   1 H      0.924     0.064     2.153     2.295
 429   1 H      0.924     0.076     2.019     2.222
 430   1 H      0.926     0.032     2.563     2.504
 431   1 H      0.926     0.047     2.358     2.401
 432   1 H      0.926     0.042     2.426     2.436
 433   1 H      0.926     0.057     2.236     2.338
 434   1 H      0.805     0.319     0.666     1.282
 435   7 N      2.634    -0.382    29.877     8.118
 436   6 C      3.786     0.025    20.166     6.396
 437   6 C      2.753     0.268    22.477     7.763
 438   8 O      0.858    -0.473    23.189     6.456
 439   6 C      3.678     0.081    19.433     6.315
 440   8 O      1.656    -0.485    22.561     6.412
 441   1 H      0.860     0.163     1.315     1.796
 442   1 H      0.924     0.056     2.248     2.345
 443   1 H      0.923     0.023     2.686     2.563
 444   1 H      0.924     0.015     2.815     2.624
 445   1 H      0.805     0.349     0.590     1.206
 446   7 N      2.692    -0.173    24.752     7.389
 447   6 C      3.788     0.020    20.259     6.411
 448   6 C      2.765     0.267    22.492     7.767
 449   8 O      0.859    -0.476    23.258     6.466
 450   6 C      3.818    -0.073    21.874     6.656
 451   6 C      2.966    -0.000    28.030     8.684
 452   6 C      2.927    -0.040    29.000     8.831
 453   6 C      2.924    -0.038    28.948     8.823
 454   6 C      2.917    -0.075    29.874     8.963
 455   6 C      2.917    -0.059    29.474     8.903
 456   6 C      2.847     0.145    24.838     8.168
 457   8 O      1.658    -0.429    21.427     6.249
 458   1 H      0.860     0.206     1.074     1.624
 459   1 H      0.924     0.077     2.009     2.217
 460   1 H      0.924     0.067     2.120     2.277
 461   1 H      0.924     0.057     2.236     2.338
 462   1 H      0.926     0.041     2.437     2.441
 463   1 H      0.926     0.036     2.507     2.476
 464   1 H      0.926     0.046     2.368     2.406
 465   1 H      0.926     0.050     2.323     2.384
 466   1 H      0.804     0.347     0.595     1.212
 467   7 N      2.688    -0.166    24.597     7.366
 468   6 C      3.789     0.010    20.421     6.436
 469   6 C      2.767     0.202    23.707     7.974
 470   8 O      0.856    -0.367    21.024     6.147
 471   6 C      3.722     0.122    18.697     6.175
 472   8 O      1.655    -0.476    22.379     6.386
 473   6 C      3.753    -0.126    22.974     6.835
 474   1 H      0.860     0.222     0.998     1.565
 475   1 H      0.923     0.097     1.814     2.106
 476   1 H      0.923     0.044     2.400     2.423
 477   1 H      0.804     0.343     0.604     1.221
 478   1 H      0.925     0.073     2.049     2.239
 479   1 H      0.925     0.060     2.204     2.322
 480   1 H      0.925     0.060     2.205     2.322
 481   1 H      0.862     0.183     1.195     1.712
 482   1 H      0.930     0.104     1.751     2.069
 483   1 H      0.862     0.189     1.162     1.689
 484   1 H      0.930     0.061     2.188     2.313
 485   1 H      0.862     0.182     1.201     1.716
 486   1 H      0.930     0.082     1.960     2.189
 487   1 H      0.862     0.178     1.227     1.735
 488   1 H      0.930     0.072     2.068     2.249
 489   1 H      0.862     0.171     1.269     1.765
 490   1 H      0.930     0.070     2.080     2.255
 491   1 H      0.862     0.180     1.216     1.727
 492   1 H      0.930     0.067     2.120     2.277
 493   1 H      0.862     0.188     1.167     1.692
 494   1 H      0.930     0.089     1.885     2.147
 495   1 H      0.862     0.194     1.138     1.671
 496   1 H      0.930     0.085     1.923     2.168
 497   1 H      0.862     0.189     1.165     1.690
 498   1 H      0.930     0.095     1.830     2.115

 Mol. C6AA /au·bohr⁶  :    2337914.892112
 Mol. C8AA /au·bohr⁸  :   52622619.462003
 Mol. α(0) /au        :       2303.843122


Wiberg/Mayer (AO) data.
largest (>0.10) Wiberg bond orders for each atom
          total WBO             WBO to atom ...
     1  N   3.000        C    2 1.003    H    9 0.956    H  481 0.950
     2  C   3.982        N    1 1.003    C    5 0.991    H   10 0.961    C    3 0.929
     3  C   3.936        O    4 1.659    N   20 1.273    C    2 0.929
     4  O   1.972        C    3 1.659    N   20 0.186
     5  C   3.992        C    6 0.995    C    2 0.991    H   11 0.972    H   12 0.965
     6  C   3.995        C    8 1.010    C    7 1.009    C    5 0.995    H   13 0.966
     7  C   3.996        C    6 1.009    H   14 0.987    H   16 0.985    H   15 0.985
     8  C   3.996        C    6 1.010    H   19 0.986    H   17 0.986    H   18 0.980
     9  H   0.974        N    1 0.956
    10  H   0.998        C    2 0.961
    11  H   0.998        C    5 0.972
    12  H   0.998        C    5 0.965
    13  H   0.998        C    6 0.966
    14  H   0.998        C    7 0.987
    15  H   0.998        C    7 0.985
    16  H   0.999        C    7 0.985
    17  H   0.998        C    8 0.986
    18  H   0.999        C    8 0.980
    19  H   0.999        C    8 0.986
    20  N   3.432        C    3 1.273    C   21 0.980    H   32 0.920    O    4 0.186
    21  C   3.967        N   20 0.980    C   24 0.976    H   33 0.943    C   22 0.934
    22  C   3.948        O   23 1.617    N   41 1.295    C   21 0.934
    23  O   1.939        C   22 1.617    N   41 0.192
[...]
   163  C   3.983        C  165 1.008    C  164 0.993    H  169 0.963    C  160 0.940
   164  C   3.995        C  166 1.018    C  163 0.993    H  171 0.974    H  170 0.968
   165  C   3.992        C  163 1.008    H  174 0.982    H  173 0.981    H  172 0.980
   166  C   3.994        C  164 1.018    H  176 0.987    H  175 0.985    H  177 0.981
   167  H   0.956        N  159 0.922
   168  H   0.991        C  160 0.954
   169  H   0.996        C  163 0.963
   170  H   0.998        C  164 0.968
   171  H   0.999        C  164 0.974
   172  H   0.996        C  165 0.980
   173  H   0.999        C  165 0.981
   174  H   0.997        C  165 0.982
   175  H   0.997        C  166 0.985
   176  H   0.998        C  166 0.987
   177  H   0.997        C  166 0.981
   178  N   2.994        C  179 1.021    H  487 0.945    H  185 0.930
   179  C   3.985        N  178 1.021    C  180 0.994    H  186 0.952    C  182 0.929
   180  C   3.897        O  181 1.871    C  179 0.994    H  488 0.955
   181  O   2.046        C  180 1.871
   182  C   3.992        C  183 1.008    C  184 1.008    H  187 0.966    C  179 0.929
   183  C   3.995        C  182 1.008    H  189 0.985    H  190 0.985    H  188 0.977
   184  C   3.995        C  182 1.008    H  192 0.985    H  193 0.980    H  191 0.980
   185  H   0.971        N  178 0.930
   186  H   0.997        C  179 0.952
   187  H   0.999        C  182 0.966
   188  H   0.997        C  183 0.977
   189  H   0.998        C  183 0.985
   190  H   0.998        C  183 0.985
   191  H   0.995        C  184 0.980
   192  H   0.998        C  184 0.985
   193  H   0.999        C  184 0.980
   194  N   2.994        C  195 1.012    H  489 0.959    H  201 0.947
   195  C   3.983        N  194 1.012    C  196 0.974    H  202 0.958    C  198 0.949
   196  C   3.890        O  197 1.885    C  195 0.974    H  490 0.954
   197  O   2.042        C  196 1.885
   198  C   3.990        C  199 1.009    C  200 1.008    H  203 0.969    C  195 0.949
   199  C   3.993        C  198 1.009    H  206 0.986    H  205 0.983    H  204 0.981
   200  C   3.995        C  198 1.008    H  209 0.986    H  208 0.982    H  207 0.981
   201  H   0.970        N  194 0.947
   202  H   0.999        C  195 0.958
   203  H   0.998        C  198 0.969
   204  H   0.997        C  199 0.981
   205  H   0.998        C  199 0.983
   206  H   0.997        C  199 0.986
   207  H   0.997        C  200 0.981
   208  H   0.998        C  200 0.982
   209  H   0.999        C  200 0.986
   210  N   3.001        C  211 1.008    H  491 0.957    H  217 0.937
   211  C   3.983        N  210 1.008    C  212 0.972    H  218 0.962    C  214 0.955
   212  C   3.888        O  213 1.886    C  211 0.972    H  492 0.955
   213  O   2.023        C  212 1.886
   214  C   3.991        C  216 1.009    C  215 1.007    H  219 0.964    C  211 0.955
   215  C   3.995        C  214 1.007    H  222 0.985    H  220 0.983    H  221 0.982
   216  C   3.994        C  214 1.009    H  224 0.986    H  223 0.983    H  225 0.982
   217  H   0.968        N  210 0.937
   218  H   0.998        C  211 0.962
   219  H   0.997        C  214 0.964
   220  H   0.996        C  215 0.983
   221  H   0.999        C  215 0.982
   222  H   0.999        C  215 0.985
   223  H   0.996        C  216 0.983
   224  H   0.998        C  216 0.986
   225  H   0.997        C  216 0.982
   226  N   2.996        C  227 1.009    H  238 0.954    H  493 0.953
   227  C   3.984        N  226 1.009    H  239 0.967    C  230 0.960    C  228 0.943
   228  C   3.939        O  229 1.632    N  247 1.290    C  227 0.943
   229  O   1.974        C  228 1.632    N  247 0.189
   230  C   3.993        C  231 1.011    H  240 0.969    H  241 0.964    C  227 0.960
   231  C   3.988        C  232 1.412    C  233 1.401    C  230 1.011
   232  C   3.992        C  234 1.449    C  231 1.412    H  242 0.969    C  235 0.107
   233  C   3.991        C  235 1.463    C  231 1.401    H  243 0.968    C  234 0.104
   234  C   3.987        C  232 1.449    C  236 1.374    H  244 0.964    C  233 0.104
   235  C   3.988        C  233 1.463    C  236 1.360    H  245 0.968    C  232 0.107
   236  C   3.936        C  234 1.374    C  235 1.360    O  237 1.069
   237  O   2.107        C  236 1.069    H  246 0.871
   238  H   0.973        N  226 0.954
   239  H   0.998        C  227 0.967
   240  H   0.996        C  230 0.969
   241  H   0.997        C  230 0.964
   242  H   0.999        C  232 0.969
   243  H   0.998        C  233 0.968
   244  H   0.998        C  234 0.964
   245  H   0.997        C  235 0.968
   246  H   0.897        O  237 0.871
   247  N   3.466        C  228 1.290    C  248 0.988    H  254 0.925    O  229 0.189
   248  C   3.963        N  247 0.988    H  255 0.944    C  251 0.940    C  249 0.939
   249  C   3.952        O  250 1.625    N  261 1.307    C  248 0.939
   250  O   1.952        C  249 1.625    N  261 0.200
   251  C   3.959        C  253 1.005    O  252 0.997    H  256 0.963    C  248 0.940
   252  O   1.946        C  251 0.997    H  257 0.871
   253  C   3.990        C  251 1.005    H  259 0.984    H  260 0.982    H  258 0.981
   254  H   0.958        N  247 0.925
   255  H   0.991        C  248 0.944
   256  H   0.999        C  251 0.963
   257  H   0.885        O  252 0.871
   258  H   0.994        C  253 0.981
   259  H   0.999        C  253 0.984
   260  H   0.996        C  253 0.982
   261  N   3.486        C  249 1.307    C  262 0.984    H  268 0.908    O  250 0.200
   262  C   3.960        N  261 0.984    H  269 0.950    C  265 0.947    C  263 0.942
   263  C   3.946        O  264 1.616    N  277 1.308    C  262 0.942
   264  O   1.947        C  263 1.616    N  277 0.196
   265  C   3.987        C  266 1.009    C  267 1.007    H  270 0.964    C  262 0.947
   266  C   3.992        C  265 1.009    H  272 0.985    H  273 0.983    H  271 0.982
   267  C   3.992        C  265 1.007    H  276 0.984    H  274 0.982    H  275 0.976
   268  H   0.953        N  261 0.908
   269  H   0.993        C  262 0.950
   270  H   0.998        C  265 0.964
   271  H   0.995        C  266 0.982
   272  H   0.999        C  266 0.985
   273  H   0.997        C  266 0.983
   274  H   0.996        C  267 0.982
   275  H   0.997        C  267 0.976
   276  H   0.999        C  267 0.984
   277  N   3.479        C  263 1.308    C  278 0.999    H  283 0.886    O  264 0.196
   278  C   3.973        N  277 0.999    C  281 0.964    H  284 0.950    C  279 0.931
   279  C   3.951        O  280 1.616    N  288 1.324    C  278 0.931
   280  O   1.967        C  279 1.616    N  288 0.198
   281  C   3.954        O  282 0.992    H  285 0.972    H  286 0.965    C  278 0.964
   282  O   1.943        C  281 0.992    H  287 0.868
   283  H   0.943        N  277 0.886
   284  H   0.994        C  278 0.950
   285  H   0.997        C  281 0.972
   286  H   0.996        C  281 0.965
   287  H   0.881        O  282 0.868
   288  N   3.495        C  279 1.324    C  289 0.983    H  295 0.918    O  280 0.198
   289  C   3.959        N  288 0.983    C  292 0.954    H  296 0.943    C  290 0.936
   290  C   3.943        O  291 1.638    N  304 1.289    C  289 0.936
   291  O   1.948        C  290 1.638    N  304 0.194
   292  C   3.986        C  293 1.011    C  294 1.009    H  297 0.961    C  289 0.954
   293  C   3.995        C  292 1.011    H  299 0.982    H  300 0.982    H  298 0.979
   294  C   3.992        C  292 1.009    H  301 0.981    H  302 0.979    H  303 0.978
   295  H   0.955        N  288 0.918
   296  H   0.995        C  289 0.943
   297  H   0.996        C  292 0.961
   298  H   0.997        C  293 0.979
   299  H   0.999        C  293 0.982
   300  H   0.998        C  293 0.982
   301  H   0.996        C  294 0.981
   302  H   0.998        C  294 0.979
   303  H   0.998        C  294 0.978
   304  N   3.462        C  290 1.289    C  305 0.983    H  312 0.913    O  291 0.194
   305  C   3.970        C  308 0.984    N  304 0.983    H  313 0.951    C  306 0.936
   306  C   3.951        O  307 1.627    N  316 1.304    C  305 0.936
   307  O   1.937        C  306 1.627    N  316 0.189
   308  C   3.985        C  305 0.984    H  315 0.965    H  314 0.956    C  309 0.918
   309  C   3.935        O  310 1.508    O  311 1.482    C  308 0.918
   310  O   1.844        C  309 1.508    O  311 0.209
   311  O   1.840        C  309 1.482    O  310 0.209
   312  H   0.954        N  304 0.913
   313  H   0.997        C  305 0.951
   314  H   0.996        C  308 0.956
   315  H   0.999        C  308 0.965
   316  N   3.455        C  306 1.304    C  317 0.978    H  321 0.890    O  307 0.189
   317  C   3.963        N  316 0.978    C  320 0.976    C  318 0.970    H  322 0.948
   318  C   3.891        O  319 1.898    C  317 0.970    H  494 0.951
   319  O   2.036        C  318 1.898
   320  C   3.979        H  325 0.984    H  323 0.979    H  324 0.976    C  317 0.976
   321  H   0.954        N  316 0.890
   322  H   0.991        C  317 0.948
   323  H   0.992        C  320 0.979
   324  H   0.993        C  320 0.976
   325  H   0.996        C  320 0.984
   326  N   2.999        C  327 1.025    H  338 0.951    H  495 0.947
   327  C   3.986        N  326 1.025    H  339 0.953    C  328 0.952    C  330 0.952
   328  C   3.938        O  329 1.651    N  347 1.269    C  327 0.952
   329  O   1.960        C  328 1.651    N  347 0.189
   330  C   3.993        C  331 1.015    H  340 0.970    H  341 0.954    C  327 0.952
   331  C   3.988        C  332 1.411    C  333 1.399    C  330 1.015
   332  C   3.990        C  334 1.448    C  331 1.411    H  342 0.961    C  335 0.108
   333  C   3.990        C  335 1.461    C  331 1.399    H  343 0.965    C  334 0.105
   334  C   3.987        C  332 1.448    C  336 1.375    H  344 0.966    C  333 0.105
   335  C   3.989        C  333 1.461    C  336 1.363    H  345 0.968    C  332 0.108
   336  C   3.933        C  334 1.375    C  335 1.363    O  337 1.065
   337  O   2.082        C  336 1.065    H  346 0.859
   338  H   0.976        N  326 0.951
   339  H   0.997        C  327 0.953
   340  H   0.997        C  330 0.970
   341  H   0.993        C  330 0.954
   342  H   0.998        C  332 0.961
   343  H   0.999        C  333 0.965
   344  H   0.998        C  334 0.966
   345  H   0.998        C  335 0.968
   346  H   0.880        O  337 0.859
   347  N   3.446        C  328 1.269    C  348 0.982    H  355 0.922    O  329 0.189
   348  C   3.965        N  347 0.982    C  351 0.965    H  356 0.948    C  349 0.931
   349  C   3.943        O  350 1.646    N  366 1.285    C  348 0.931
   350  O   1.957        C  349 1.646    N  366 0.193
   351  C   3.986        C  353 1.008    C  352 0.989    H  357 0.967    C  348 0.965
   352  C   3.994        C  354 1.019    C  351 0.989    H  358 0.977    H  359 0.971
   353  C   3.992        C  351 1.008    H  362 0.982    H  361 0.982    H  360 0.979
   354  C   3.993        C  352 1.019    H  363 0.985    H  365 0.983    H  364 0.982
   355  H   0.964        N  347 0.922
   356  H   0.995        C  348 0.948
   357  H   0.998        C  351 0.967
   358  H   0.998        C  352 0.977
   359  H   0.998        C  352 0.971
   360  H   0.995        C  353 0.979
   361  H   0.999        C  353 0.982
   362  H   0.998        C  353 0.982
   363  H   0.997        C  354 0.985
   364  H   0.997        C  354 0.982
   365  H   0.999        C  354 0.983
   366  N   3.457        C  349 1.285    C  367 0.989    H  372 0.899    O  350 0.193
   367  C   3.966        N  366 0.989    C  370 0.955    H  373 0.952    C  368 0.933
   368  C   3.949        O  369 1.636    N  377 1.306    C  367 0.933
   369  O   1.958        C  368 1.636    N  377 0.200
   370  C   3.957        O  371 1.013    H  374 0.972    H  375 0.965    C  367 0.955
   371  O   1.944        C  370 1.013    H  376 0.869
   372  H   0.953        N  366 0.899
   373  H   0.993        C  367 0.952
   374  H   0.997        C  370 0.972
   375  H   0.997        C  370 0.965
   376  H   0.879        O  371 0.869
   377  N   3.481        C  368 1.306    C  378 0.992    H  383 0.910    O  369 0.200
   378  C   3.970        N  377 0.992    C  381 0.963    H  384 0.947    C  379 0.937
   379  C   3.955        O  380 1.631    N  388 1.317    C  378 0.937
   380  O   1.967        C  379 1.631    N  388 0.200
   381  C   3.960        O  382 1.004    H  386 0.967    H  385 0.964    C  378 0.963
   382  O   1.927        C  381 1.004    H  387 0.866
   383  H   0.953        N  377 0.910
   384  H   0.995        C  378 0.947
   385  H   0.997        C  381 0.964
   386  H   0.998        C  381 0.967
   387  H   0.880        O  382 0.866
   388  N   3.482        C  379 1.317    C  389 0.980    H  395 0.914    O  380 0.200
   389  C   3.957        N  388 0.980    C  390 0.950    H  396 0.944    C  392 0.942
   390  C   3.951        O  391 1.607    N  404 1.321    C  389 0.950
   391  O   1.955        C  390 1.607    N  404 0.197
   392  C   3.988        C  393 1.011    C  394 1.010    H  397 0.965    C  389 0.942
   393  C   3.995        C  392 1.011    H  400 0.985    H  399 0.982    H  398 0.978
   394  C   3.991        C  392 1.010    H  402 0.981    H  401 0.981    H  403 0.974
   395  H   0.956        N  388 0.914
   396  H   0.993        C  389 0.944
   397  H   0.997        C  392 0.965
   398  H   0.997        C  393 0.978
   399  H   0.999        C  393 0.982
   400  H   0.998        C  393 0.985
   401  H   0.997        C  394 0.981
   402  H   0.998        C  394 0.981
   403  H   0.996        C  394 0.974
   404  N   3.489        C  390 1.321    C  405 0.980    H  409 0.913    O  391 0.197
   405  C   3.960        N  404 0.980    C  408 0.979    C  406 0.943    H  410 0.941
   406  C   3.952        O  407 1.621    N  414 1.314    C  405 0.943
   407  O   1.950        C  406 1.621    N  414 0.200
   408  C   3.989        H  413 0.985    H  412 0.982    H  411 0.982    C  405 0.979
   409  H   0.954        N  404 0.913
   410  H   0.991        C  405 0.941
   411  H   0.996        C  408 0.982
   412  H   0.995        C  408 0.982
   413  H   0.997        C  408 0.985
   414  N   3.489        C  406 1.314    C  415 0.986    H  426 0.905    O  407 0.200
   415  C   3.965        N  414 0.986    C  416 0.972    C  418 0.956    H  427 0.944
   416  C   3.899        O  417 1.902    C  415 0.972    H  496 0.952
   417  O   2.044        C  416 1.902
   418  C   3.985        C  419 1.000    H  429 0.958    C  415 0.956    H  428 0.956
   419  C   3.986        C  420 1.428    C  421 1.386    C  418 1.000
   420  C   3.992        C  422 1.433    C  419 1.428    H  430 0.965    C  423 0.105
   421  C   3.989        C  423 1.476    C  419 1.386    H  431 0.968    C  422 0.107
   422  C   3.987        C  420 1.433    C  424 1.384    H  432 0.963    C  421 0.107
   423  C   3.987        C  421 1.476    C  424 1.351    H  433 0.967    C  420 0.105
   424  C   3.941        C  422 1.384    C  423 1.351    O  425 1.076
   425  O   2.109        C  424 1.076    H  434 0.869
   426  H   0.951        N  414 0.905
   427  H   0.990        C  415 0.944
   428  H   0.995        C  418 0.956
   429  H   0.993        C  418 0.958
   430  H   0.999        C  420 0.965
   431  H   0.998        C  421 0.968
   432  H   0.998        C  422 0.963
   433  H   0.996        C  423 0.967
   434  H   0.898        O  425 0.869
   435  N   2.998        C  436 1.032    H  497 0.950    H  441 0.948
   436  C   3.988        N  435 1.032    H  442 0.957    C  439 0.954    C  437 0.941
   437  C   3.947        O  438 1.637    N  446 1.288    C  436 0.941
   438  O   1.976        C  437 1.637    N  446 0.194
   439  C   3.961        O  440 1.004    H  444 0.973    H  443 0.966    C  436 0.954
   440  O   1.927        C  439 1.004    H  445 0.865
   441  H   0.973        N  435 0.948
   442  H   0.997        C  436 0.957
   443  H   0.999        C  439 0.966
   444  H   1.000        C  439 0.973
   445  H   0.878        O  440 0.865
   446  N   3.467        C  437 1.288    C  447 0.985    H  458 0.923    O  438 0.194
   447  C   3.963        N  446 0.985    H  459 0.958    C  450 0.946    C  448 0.937
   448  C   3.950        O  449 1.643    N  467 1.292    C  447 0.937
   449  O   1.962        C  448 1.643    N  467 0.197
   450  C   3.987        C  451 1.010    H  461 0.969    H  460 0.965    C  447 0.946
   451  C   3.987        C  452 1.406    C  453 1.403    C  450 1.010
   452  C   3.990        C  454 1.455    C  451 1.406    H  462 0.964    C  455 0.106
   453  C   3.991        C  455 1.460    C  451 1.403    H  463 0.969    C  454 0.104
   454  C   3.986        C  452 1.455    C  456 1.368    H  464 0.965    C  453 0.104
   455  C   3.988        C  453 1.460    C  456 1.364    H  465 0.968    C  452 0.106
   456  C   3.940        C  454 1.368    C  455 1.364    O  457 1.078
   457  O   2.096        C  456 1.078    H  466 0.858
   458  H   0.957        N  446 0.923
   459  H   0.994        C  447 0.958
   460  H   0.995        C  450 0.965
   461  H   0.996        C  450 0.969
   462  H   0.998        C  452 0.964
   463  H   0.999        C  453 0.969
   464  H   0.998        C  454 0.965
   465  H   0.997        C  455 0.968
   466  H   0.879        O  457 0.858
   467  N   3.470        C  448 1.292    C  468 0.994    H  474 0.910    O  449 0.197
   468  C   3.966        C  469 0.999    N  467 0.994    H  475 0.939    C  471 0.903
   469  C   3.897        O  470 1.872    C  468 0.999    H  498 0.952
   470  O   2.057        C  469 1.872
   471  C   3.952        C  473 1.009    O  472 1.003    H  476 0.958    C  468 0.903
   472  O   1.945        C  471 1.003    H  477 0.866
   473  C   3.989        C  471 1.009    H  480 0.983    H  479 0.981    H  478 0.978
   474  H   0.950        N  467 0.910
   475  H   0.990        C  468 0.939
   476  H   0.998        C  471 0.958
   477  H   0.882        O  472 0.866
   478  H   0.995        C  473 0.978
   479  H   0.996        C  473 0.981
   480  H   0.996        C  473 0.983
   481  H   0.966        N    1 0.950
   482  H   0.989        C   64 0.949
   483  H   0.964        N   72 0.946
   484  H   0.996        C   74 0.955
   485  H   0.966        N   96 0.953
   486  H   0.993        C  161 0.953
   487  H   0.968        N  178 0.945
   488  H   0.995        C  180 0.955
   489  H   0.971        N  194 0.959
   490  H   0.995        C  196 0.954
   491  H   0.968        N  210 0.957
   492  H   0.996        C  212 0.955
   493  H   0.964        N  226 0.953
   494  H   0.992        C  318 0.951
   495  H   0.962        N  326 0.947
   496  H   0.992        C  416 0.952
   497  H   0.964        N  435 0.950
   498  H   0.990        C  469 0.952
 
molecular dipole:
                 x           y           z       tot (Debye)
 q only:        6.781      26.442       7.928
   full:        8.085      23.508       8.443      66.733
molecular quadrupole (traceless):
                xx          xy          yy          xz          yz          zz
 q only:     -244.475    3277.419    1318.644    1261.786    1920.220   -1074.169
  q+dip:       25.809    3049.373     991.820    1410.598    1771.332   -1017.629
   full:       19.449    3047.020     995.279    1406.284    1770.072   -1014.728


           -------------------------------------------------
          | TOTAL ENERGY             -767.208476294846 Eh   |
          | GRADIENT NORM               0.668953582107 Eh/α |
          | HOMO-LUMO GAP               1.188538356631 eV   |
           -------------------------------------------------

------------------------------------------------------------------------
 * finished run on 2019/05/31 at 06:33:37.983     
------------------------------------------------------------------------
 total:
 * wall-time:     0 d,  0 h,  0 min, 12.830 sec
 *  cpu-time:     0 d,  0 h,  0 min, 24.991 sec
 * ratio c/w:     1.948 speedup
 SCF:
 * wall-time:     0 d,  0 h,  0 min, 12.127 sec
 *  cpu-time:     0 d,  0 h,  0 min, 23.789 sec
 * ratio c/w:     1.962 speedup

