      -----------------------------------------------------------      
     |                   =====================                   |     
     |                           x T B                           |     
     |                   =====================                   |     
     |                         S. Grimme                         |     
     |          Mulliken Center for Theoretical Chemistry        |     
     |                    University of Bonn                     |     
     |                 Version 6.0.1 (SAW181210)                 |     
      -----------------------------------------------------------      

   This program is distributed in the hope that it will be useful,
   but WITHOUT ANY WARRANTY; without even the implied warranty of
   MERCHANTABILITY or FITNESS FOR A PARTICULAR PURPOSE.
   
   FOR NON-COMMERCIAL, ACADEMIA USE ONLY.
   
   Cite this work as:
   S. Grimme, C. Bannwarth, P. Shushkov, J. Comput. Theory Chem., 2017,
   13, 1989-2009.
   C. Bannwarth, S. Ehlert and S. Grimme., ChemRxiv, 2018, preprint.
   http://doi.org/10.26434/chemrxiv.7246238.v1
   
   for sTDA-xTB:
   S. Grimme and C. Bannwarth, J. Chem. Phys., 2016, 145, 054103.
   
   in the mass-spec context:
   V. Asgeirsson, C. Bauer and S. Grimme, Chem. Sci., 2017, 8, 4879.
   
   if GBSA is used:
   P. Shushkov, F. März and S. Grimme, unpublished.
   
   for ANC optimizer:
   S. Grimme, unpublished.
   Rational Function algorithm used in ANCopt:
   F. Eckert, P. Pulay, H.-J. Werner, J. Comput. Chem., 1997, 18, 1473.
   
   with help from (in alphabetical order)
   C. Bannwarth, F. Bohle, G. Brandenburg, E. Caldeweyher, M. Checinski,
   S. Dohm, S. Ehlert, S. Ehrlich, F. März, H. Neugebauer, J. Pisarek,
   P. Pracht, P. Shushkov, and S. Spicher.
   
 * started run on 2019/03/15 at 00:15:17.443     
========================================================================
 # omp threads = 1
========================================================================
number of atoms            : 346
number of electrons        : 910
charge                     : -2
spin                       : .0
first test random number   : .9734
           ------------------------------------------------- 
          |                 G F N 2 - x T B                 |
          | Geometry, Frequencies, Noncovalent interactions |
          |            JCTC 2018 parametrisation            |
           ------------------------------------------------- 
 
      method parameters     
 k(s)        :  1.8500
 k(p)        :  2.2300
 k(d)        :  2.2300
 k(f)        :  2.0000
 kEN (H0ij)  : -2.0000
 D4 a1       :  0.5200
 D4 a2       :  5.0000
 D4 s6       :  1.0000
 D4 s8       :  2.7000
 D4 s9       :  5.0000
 alphaj      :  2.0000

 Solvent             : h2o
 Using internal parameter file: .param_gbsa2_h2o
 Gsolv ref. state (COSMO-RS): gsolv [1 M gas/solution]
 temperature (mdtemp)       :    298.150000000000     
 dielectric constant        :    80.2000000000000     
 rho                        :    1.00000000000000     
 mass                       :    18.0000000000000     
 surface tension            :    15.5689454083859     
 probe radius               :   0.975313790000000     
 vdW radii scaling          :    1.00000000000000     
 Gshift (Eh)                :   1.857443126794793E-003
 c1                         :    1.55243817000000     
 soset                      :   0.130326360000000     
 HB correction              :  T

            Z     q(EN)     CN     RAES       Cart. coordinates
     1  N   5.0   -0.21    3.26    1.97    36.71901    48.15577    36.88673
     2  C   4.0    0.03    4.35    4.29    36.76551    50.36318    38.44874
     3  C   4.0    0.15    3.43    3.09    34.25751    51.77675    38.40787
     4  O   6.0   -0.29    1.26    1.80    32.28228    50.70066    38.16732
     5  C   4.0   -0.08    4.32    4.23    38.90828    52.04344    37.80632
     6  H   1.0    0.10    1.07    1.44    36.25127    48.49152    35.22638
     7  H   1.0    0.05    1.11    1.45    37.01591    49.71756    40.26533
     8  H   1.0    0.04    1.05    1.44    38.97774    53.57827    38.95634
     9  H   1.0    0.04    1.08    1.44    40.58852    51.13352    37.96472
    10  H   1.0    0.04    1.05    1.44    38.74909    52.67131    36.00019
    11  N   5.0   -0.15    3.58    2.14    34.40327    54.26950    38.61651
    12  C   4.0    0.04    4.52    4.56    32.30114    55.96069    38.57298
    13  C   4.0    0.13    3.53    3.13    32.61935    57.89112    36.48300
    14  O   6.0   -0.32    1.29    1.80    34.52818    59.19953    36.41024
    15  C   4.0   -0.03    4.40    4.38    31.93481    57.24934    41.07394
    16  C   4.0    0.24    3.13    3.03    29.37758    56.82387    42.30630
    17  O   6.0   -0.29    1.18    1.80    28.71562    54.60692    42.67843
    18  O   6.0   -0.31    1.17    1.80    28.07528    58.71442    42.84033
    19  H   1.0    0.08    1.14    1.45    35.93722    55.10366    38.82950
    20  H   1.0    0.06    1.13    1.45    30.71098    54.90846    38.22994
    21  H   1.0    0.05    1.08    1.44    33.31683    56.67528    42.29591
    22  H   1.0    0.05    1.10    1.44    32.22491    59.14260    40.86113
    23  N   5.0   -0.11    3.72    2.30    30.78148    58.08561    34.75565
    24  C   4.0    0.03    4.74    4.80    31.04122    59.87236    32.67393
    25  C   4.0    0.16    3.47    3.10    31.29781    62.59524    33.54811
    26  O   6.0   -0.31    1.24    1.80    32.92046    63.98268    32.75446
    27  C   4.0   -0.06    4.52    4.57    28.72309    59.43554    31.15978
    28  C   4.0   -0.06    4.49    4.52    26.82139    58.99266    33.14005
    29  C   4.0   -0.02    4.49    4.52    28.15041    57.33301    34.97459
    30  H   1.0    0.05    1.10    1.44    32.68587    59.58709    31.67532
    31  H   1.0    0.03    1.07    1.44    28.30400    60.92266    29.99124
    32  H   1.0    0.03    1.07    1.44    28.88809    57.92228    29.95636
    33  H   1.0    0.03    1.09    1.44    26.24339    60.65717    33.95275
    34  H   1.0    0.03    1.06    1.44    25.18052    58.21949    32.45881
    35  H   1.0    0.04    1.06    1.44    27.49167    57.51042    36.79252
    36  H   1.0    0.04    1.06    1.44    27.90001    55.44967    34.57383
    37  N   5.0   -0.16    3.60    2.16    29.58866    63.31527    35.23930
    38  C   4.0    0.03    4.62    4.68    29.42211    65.78473    36.33470
    39  C   4.0    0.16    3.52    3.12    31.61456    66.36152    38.09901
    40  O   6.0   -0.31    1.25    1.80    32.88961    68.25984    37.89084
    41  C   4.0   -0.04    4.48    4.51    26.93252    66.23462    37.72626
    42  C   4.0   -0.05    4.36    4.31    26.90393    68.83069    38.88838
    43  C   4.0   -0.08    4.30    4.20    26.47710    64.19415    39.57630
    44  C   4.0   -0.09    4.15    3.90    27.08421    70.93395    37.10388
    45  H   1.0    0.08    1.15    1.45    28.36737    62.21248    35.85814
    46  H   1.0    0.05    1.11    1.45    29.56247    67.01840    34.84110
    47  H   1.0    0.03    1.11    1.45    25.47154    66.17500    36.45028
    48  H   1.0    0.03    1.08    1.44    25.30336    69.03273    39.96327
    49  H   1.0    0.05    1.09    1.44    28.35081    68.93885    40.16741
    50  H   1.0    0.04    1.04    1.43    24.81824    64.44135    40.51170
    51  H   1.0    0.04    1.05    1.44    26.41343    62.47088    38.73359
    52  H   1.0    0.05    1.06    1.44    27.87688    64.15108    40.88670
    53  H   1.0    0.04    1.04    1.43    27.08180    72.63964    37.99355
    54  H   1.0    0.05    1.05    1.44    28.70602    70.81996    36.08028
    55  H   1.0    0.03    1.04    1.43    25.60949    70.91602    35.87486
    56  N   5.0   -0.15    3.57    2.13    32.03069    64.63448    39.86161
    57  C   4.0    0.03    4.49    4.53    33.95555    64.69451    41.75890
    58  C   4.0    0.16    3.47    3.10    36.53723    65.15723    40.54579
    59  O   6.0   -0.29    1.27    1.80    37.95909    66.78629    41.36269
    60  C   4.0   -0.05    4.39    4.36    33.54094    62.67025    43.74015
    61  C   4.0   -0.04    4.30    4.19    35.49644    62.43460    45.70934
    62  C   4.0    0.25    3.18    3.03    36.27424    64.93865    46.83574
    63  O   6.0   -0.30    1.19    1.80    34.57551    66.26726    47.79446
    64  O   6.0   -0.29    1.18    1.80    38.53624    65.56111    46.71693
    65  H   1.0    0.08    1.14    1.45    31.03984    63.18511    39.95851
    66  H   1.0    0.07    1.15    1.45    33.89565    66.26059    42.89975
    67  H   1.0    0.05    1.08    1.44    31.83239    62.97735    44.60224
    68  H   1.0    0.04    1.11    1.45    33.32476    60.98130    42.84204
    69  H   1.0    0.04    1.07    1.44    34.90123    61.26233    47.12884
    70  H   1.0    0.05    1.08    1.44    37.05454    61.56099    44.97456
    71  N   5.0   -0.15    3.52    2.09    37.16690    63.79899    38.57330
    72  C   4.0    0.03    4.61    4.67    39.53367    64.14049    37.28832
    73  C   4.0    0.15    3.57    3.15    40.42268    66.52890    35.99737
    74  O   6.0   -0.32    1.33    1.80    42.46782    67.46532    36.51252
    75  C   4.0   -0.05    4.58    4.64    39.90291    62.10266    35.40245
    76  C   4.0   -0.03    4.35    4.30    42.35085    60.74744    35.82701
    77  C   4.0   -0.09    4.25    4.09    42.71372    58.65889    33.99985
    78  C   4.0   -0.08    4.32    4.23    44.49405    62.55083    35.77563
    79  H   1.0    0.11    1.13    1.45    36.17564    62.50448    37.90526
    80  H   1.0    0.06    1.16    1.46    40.63603    64.21613    38.88397
    81  H   1.0    0.06    1.09    1.44    38.40255    60.87718    35.44425
    82  H   1.0    0.04    1.09    1.44    39.85500    62.83839    33.61120
    83  H   1.0    0.04    1.12    1.45    42.28458    59.97980    37.61160
    84  H   1.0    0.04    1.04    1.43    44.36008    57.72472    34.31338
    85  H   1.0    0.04    1.05    1.44    41.29088    57.37535    34.10555
    86  H   1.0    0.03    1.04    1.44    42.75687    59.34237    32.20685
    87  H   1.0    0.04    1.04    1.43    46.16381    61.67221    36.12143
    88  H   1.0    0.05    1.04    1.44    44.61649    63.39172    34.05489
    89  H   1.0    0.06    1.07    1.44    44.28706    63.93855    37.08656
    90  N   5.0   -0.16    3.70    2.27    38.95834    67.50604    34.26436
    91  C   4.0    0.03    4.64    4.71    39.56105    69.77235    32.93091
    92  C   4.0    0.16    3.64    3.19    39.71679    71.82891    34.92775
    93  O   6.0   -0.30    1.24    1.80    41.20830    73.55698    34.84493
    94  C   4.0   -0.03    4.51    4.55    37.55480    70.42931    30.99291
    95  C   4.0   -0.05    4.49    4.53    35.55737    72.07330    32.13339
    96  C   4.0   -0.08    4.39    4.36    36.26465    68.13368    30.09203
    97  C   4.0   -0.09    4.16    3.93    33.66777    73.06271    30.39453
    98  H   1.0    0.09    1.16    1.45    37.39705    66.82096    33.83516
    99  H   1.0    0.05    1.10    1.44    41.24565    69.56801    31.97885
   100  H   1.0    0.04    1.10    1.44    38.44223    71.35501    29.52981
   101  H   1.0    0.05    1.09    1.44    34.67659    71.04919    33.52323
   102  H   1.0    0.05    1.11    1.45    36.39368    73.54080    33.07696
   103  H   1.0    0.04    1.05    1.44    34.90743    68.55124    28.80077
   104  H   1.0    0.04    1.04    1.43    37.48338    66.89303    29.28557
   105  H   1.0    0.06    1.07    1.44    35.40041    67.23905    31.55674
   106  H   1.0    0.04    1.04    1.43    32.35079    74.13299    31.29888
   107  H   1.0    0.04    1.04    1.44    34.48939    74.16181    29.05212
   108  H   1.0    0.04    1.05    1.44    32.74357    71.63535    29.50373
   109  N   5.0   -0.15    3.70    2.27    38.06184    71.57261    36.79840
   110  C   4.0    0.04    4.51    4.55    37.76449    73.21204    38.89937
   111  C   4.0    0.17    3.47    3.10    40.19680    73.44068    40.40829
   112  O   6.0   -0.31    1.34    1.80    40.57427    75.22448    41.81595
   113  C   4.0   -0.03    4.47    4.49    35.43121    72.54591    40.36854
   114  C   4.0    0.17    3.30    3.05    34.87969    74.24180    42.58013
   115  O   6.0   -0.30    1.24    1.80    33.82733    76.27813    42.20570
   116  N   5.0   -0.19    3.30    1.98    35.56580    73.46955    44.64917
   117  H   1.0    0.10    1.15    1.45    36.95378    70.20884    36.85012
   118  H   1.0    0.06    1.12    1.45    37.46975    75.03933    38.31839
   119  H   1.0    0.06    1.08    1.44    33.90866    72.51318    39.17247
   120  H   1.0    0.07    1.09    1.44    35.59302    70.72953    40.99614
   121  H   1.0    0.10    1.07    1.44    35.35677    74.38212    46.18389
   122  H   1.0    0.10    1.07    1.44    36.37831    71.89060    44.95056
   123  N   5.0   -0.14    3.62    2.18    41.87261    71.65342    40.10698
   124  C   4.0    0.04    4.51    4.55    44.24256    71.54954    41.39468
   125  C   4.0    0.15    3.43    3.09    46.25908    73.11877    40.08467
   126  O   6.0   -0.28    1.26    1.80    47.65606    74.51195    41.29272
   127  C   4.0   -0.04    4.50    4.54    44.49284    68.90135    42.42071
   128  C   4.0   -0.03    4.30    4.19    46.81967    67.78169    43.57601
   129  C   4.0   -0.08    4.25    4.11    46.10216    65.95884    45.58765
   130  C   4.0   -0.08    4.25    4.10    48.41432    66.56306    41.61476
   131  H   1.0    0.12    1.16    1.46    41.62516    70.29210    39.01440
   132  H   1.0    0.06    1.21    1.47    44.46448    72.56101    43.02486
   133  H   1.0    0.06    1.10    1.44    43.07599    68.69204    43.72586
   134  H   1.0    0.06    1.10    1.44    43.99821    67.73061    40.97585
   135  H   1.0    0.05    1.11    1.45    47.86293    69.21100    44.37344
   136  H   1.0    0.04    1.04    1.43    47.64734    65.19283    46.43016
   137  H   1.0    0.05    1.04    1.43    45.04489    66.79133    46.95949
   138  H   1.0    0.04    1.04    1.44    45.06549    64.52192    44.84874
   139  H   1.0    0.04    1.04    1.43    50.02543    65.83814    42.36681
   140  H   1.0    0.04    1.04    1.43    47.46063    65.12311    40.77684
   141  H   1.0    0.05    1.04    1.43    48.91753    67.80773    40.24165
   142  N   5.0   -0.14    3.62    2.18    46.36607    72.93339    37.61797
   143  C   4.0    0.04    4.58    4.64    48.02479    74.30287    35.96408
   144  C   4.0    0.16    3.45    3.09    47.75457    77.17971    35.88472
   145  O   6.0   -0.31    1.24    1.80    49.57477    78.57593    35.76852
   146  C   4.0   -0.04    4.22    4.05    47.76409    73.20866    33.37272
   147  S   6.0   -0.07    2.48    3.10    48.18928    69.85787    33.25031
   148  H   1.0    0.11    1.17    1.46    45.32435    71.81759    36.73839
   149  H   1.0    0.06    1.12    1.45    49.79856    74.09962    36.72882
   150  H   1.0    0.05    1.12    1.45    46.01527    73.65678    32.69220
   151  H   1.0    0.04    1.12    1.45    49.00573    74.05724    32.17024
   152  H   1.0    0.04    0.99    1.43    47.88849    69.16070    31.00916
   153  N   5.0   -0.15    3.60    2.15    45.41688    78.02505    35.94294
   154  C   4.0    0.04    4.60    4.67    44.73992    80.62629    35.92793
   155  C   4.0    0.16    3.52    3.12    45.63545    81.89423    38.31667
   156  O   6.0   -0.31    1.25    1.80    46.22603    84.09220    38.34312
   157  C   4.0    0.05    4.38    4.34    41.93865    81.11933    35.70207
   158  O   6.0   -0.26    2.18    1.85    40.88898    79.34813    34.02209
   159  C   4.0   -0.09    4.21    4.01    41.41929    83.76101    34.90791
   160  H   1.0    0.11    1.13    1.45    44.02465    76.95161    36.01914
   161  H   1.0    0.05    1.11    1.45    45.60249    81.38605    34.36444
   162  H   1.0    0.05    1.10    1.44    41.17034    80.85915    37.46951
   163  H   1.0    0.12    1.07    1.44    39.20576    79.61564    33.93969
   164  H   1.0    0.03    1.04    1.43    39.53181    84.10030    34.80484
   165  H   1.0    0.05    1.04    1.43    42.17624    85.03402    36.12970
   166  H   1.0    0.04    1.04    1.43    42.16994    84.09502    33.17345
   167  N   5.0   -0.15    3.55    2.11    45.64064    80.48102    40.38982
   168  C   4.0    0.04    4.41    4.39    46.44410    81.41131    42.79986
   169  C   4.0    0.11    3.27    3.05    49.27674    81.01960    43.20087
   170  O   6.0   -0.29    1.12    1.80    50.62376    82.68084    44.05041
   171  C   4.0   -0.04    4.43    4.44    44.96006    80.27573    44.94564
   172  C   4.0    0.17    3.32    3.06    45.61087    77.54178    45.48788
   173  O   6.0   -0.28    1.28    1.80    47.74905    77.01839    46.19266
   174  N   5.0   -0.19    3.38    2.01    43.92969    75.99603    45.17694
   175  H   1.0    0.11    1.12    1.45    45.14788    78.79306    40.41341
   176  H   1.0    0.06    1.12    1.45    46.11972    83.32850    42.77609
   177  H   1.0    0.04    1.07    1.44    45.21424    81.32945    46.54872
   178  H   1.0    0.04    1.08    1.44    43.06954    80.41041    44.57472
   179  H   1.0    0.10    1.09    1.44    44.13478    74.22989    45.43127
   180  H   1.0    0.12    1.12    1.45    42.26117    76.37398    44.62111
   181  N   5.0   -0.21    3.24    1.96    53.79650    80.76623    39.18551
   182  C   4.0    0.03    4.38    4.34    55.41979    82.22077    37.56856
   183  C   4.0    0.07    3.22    3.04    56.98456    84.38800    38.57661
   184  O   6.0   -0.32    1.13    1.80    59.27171    84.38216    38.29758
   185  C   4.0   -0.05    4.52    4.57    54.03924    82.99775    35.22071
   186  C   4.0   -0.03    4.36    4.30    54.94709    81.64029    32.90295
   187  C   4.0   -0.09    4.25    4.11    53.80032    82.62072    30.56845
   188  C   4.0   -0.09    4.33    4.25    57.71576    81.79149    32.79885
   189  H   1.0    0.12    1.08    1.44    52.11458    80.72615    38.66550
   190  H   1.0    0.05    1.16    1.46    56.85628    80.95043    37.27148
   191  H   1.0    0.06    1.08    1.44    52.13811    82.72292    35.46890
   192  H   1.0    0.04    1.08    1.44    54.20916    84.90657    34.95291
   193  H   1.0    0.04    1.12    1.45    54.42537    79.77645    33.04599
   194  H   1.0    0.03    1.04    1.43    54.42282    81.66460    29.02467
   195  H   1.0    0.04    1.04    1.43    51.88660    82.47733    30.61345
   196  H   1.0    0.03    1.05    1.44    54.24704    84.47063    30.33505
   197  H   1.0    0.03    1.04    1.43    58.40847    80.85089    31.27917
   198  H   1.0    0.04    1.05    1.44    58.26530    83.62314    32.67123
   199  H   1.0    0.04    1.06    1.44    58.51341    81.04276    34.37267
   200  N   5.0   -0.24    3.25    1.97    55.38653    60.38276    45.96434
   201  C   4.0    0.03    4.34    4.28    54.80939    60.14732    43.34956
   202  C   4.0    0.07    3.27    3.05    54.56135    57.43824    42.57222
   203  O   6.0   -0.31    1.14    1.80    53.58840    56.83704    40.59159
   204  C   4.0   -0.04    4.46    4.47    56.63890    61.45887    41.62667
   205  C   4.0   -0.02    3.66    3.21    55.47480    63.02667    39.62758
   206  C   4.0   -0.04    3.60    3.17    54.02810    61.95388    37.76346
   207  C   4.0   -0.05    3.60    3.17    55.65604    65.61388    39.63323
   208  C   4.0   -0.05    3.50    3.11    52.83458    63.39302    36.05038
   209  C   4.0   -0.05    3.49    3.11    54.46708    67.04200    37.91755
   210  C   4.0   -0.05    3.52    3.12    53.05225    65.92647    36.12742
   211  H   1.0    0.08    1.06    1.44    57.10272    60.32988    46.34609
   212  H   1.0    0.04    1.12    1.45    53.08942    61.01633    43.11915
   213  H   1.0    0.03    1.09    1.44    57.81456    62.55749    42.69034
   214  H   1.0    0.04    1.09    1.44    57.78992    60.13796    40.82084
   215  H   1.0    0.07    1.08    1.44    53.88478    60.05205    37.72541
   216  H   1.0    0.04    1.08    1.44    56.71874    66.43569    40.98223
   217  H   1.0    0.04    1.07    1.44    51.76936    62.54539    34.70096
   218  H   1.0    0.05    1.07    1.44    54.64591    68.94811    37.99158
   219  H   1.0    0.05    1.10    1.44    52.14837    67.01177    34.83108
   220  N   5.0   -0.23    3.28    1.98    47.22123    54.16483    46.66485
   221  C   4.0    0.03    4.48    4.51    44.67053    54.23366    45.71527
   222  C   4.0    0.14    3.45    3.09    43.80860    51.79524    44.44322
   223  O   6.0   -0.32    1.29    1.80    41.61462    51.48164    43.80604
   224  C   4.0   -0.02    4.41    4.39    44.22514    56.49087    43.94589
   225  C   4.0   -0.08    4.30    4.19    41.58928    56.64413    43.04295
   226  C   4.0   -0.09    4.28    4.16    44.94435    58.87677    45.17666
   227  H   1.0    0.09    1.07    1.44    48.29295    55.24627    45.78668
   228  H   1.0    0.04    1.11    1.45    43.55771    54.42962    47.29567
   229  H   1.0    0.04    1.11    1.45    45.36290    56.20616    42.39577
   230  H   1.0    0.04    1.04    1.43    41.34369    58.11782    41.83775
   231  H   1.0    0.06    1.06    1.44    41.06656    55.04173    42.12847
   232  H   1.0    0.04    1.05    1.44    40.39686    56.89420    44.52538
   233  H   1.0    0.04    1.04    1.43    44.70420    60.37742    44.00103
   234  H   1.0    0.04    1.05    1.44    43.85783    59.17687    46.73057
   235  H   1.0    0.04    1.05    1.44    46.77948    58.86454    45.73649
   236  N   5.0   -0.15    3.55    2.11    45.51033    50.03186    44.05803
   237  C   4.0    0.03    4.44    4.45    45.02671    47.66190    42.83720
   238  C   4.0    0.07    3.23    3.04    44.12916    45.53228    44.53032
   239  O   6.0   -0.32    1.16    1.80    45.66175    44.01503    45.33264
   240  C   4.0   -0.04    4.46    4.48    47.32301    46.81019    41.43762
   241  C   4.0   -0.03    3.80    3.34    48.37489    48.65690    39.64596
   242  C   4.0   -0.01    3.73    3.26    50.76027    49.44862    39.40459
   243  C   4.0    0.01    4.05    3.70    47.01481    49.90017    37.68979
   244  N   5.0   -0.13    3.59    2.15    51.01221    51.01835    37.52018
   245  C   4.0    0.03    4.03    3.68    48.76577    51.38967    36.36544
   246  C   4.0   -0.05    3.56    3.14    44.54496    49.94119    36.87290
   247  C   4.0   -0.06    3.52    3.12    48.01988    52.82040    34.32574
   248  C   4.0   -0.04    3.54    3.13    43.91123    51.33363    34.90242
   249  C   4.0   -0.05    3.52    3.12    45.61784    52.75658    33.63997
   250  H   1.0    0.09    1.13    1.45    47.18097    50.21480    44.57349
   251  H   1.0    0.05    1.13    1.45    43.55020    48.04989    41.64468
   252  H   1.0    0.05    1.09    1.44    48.68131    46.32430    42.72682
   253  H   1.0    0.04    1.08    1.44    46.93890    45.15974    40.50407
   254  H   1.0    0.04    1.06    1.44    52.17364    48.88048    40.55567
   255  H   1.0    0.08    1.09    1.44    52.51523    51.81231    37.00174
   256  H   1.0    0.05    1.08    1.44    43.26611    48.88667    37.81323
   257  H   1.0    0.05    1.07    1.44    49.30666    53.87798    33.40325
   258  H   1.0    0.05    1.09    1.44    42.09105    51.33267    34.31838
   259  H   1.0    0.05    1.08    1.44    45.06185    53.79932    32.13758
   260  N   5.0   -0.23    3.30    1.98    34.40470    51.70715    30.29861
   261  C   4.0    0.03    4.44    4.44    36.40980    51.75190    28.49659
   262  C   4.0    0.06    3.21    3.04    38.21441    49.49576    28.47999
   263  O   6.0   -0.31    1.16    1.80    40.33250    49.75510    29.34556
   264  C   4.0   -0.02    4.47    4.49    37.91256    54.17756    28.69991
   265  C   4.0   -0.09    4.28    4.15    36.69245    56.27242    27.35604
   266  C   4.0   -0.08    4.37    4.33    38.24226    54.84262    31.37133
   267  H   1.0    0.09    1.10    1.44    34.81975    52.44963    31.83570
   268  H   1.0    0.03    1.12    1.45    35.44797    51.64241    26.81725
   269  H   1.0    0.05    1.13    1.45    39.65555    53.86266    27.89983
   270  H   1.0    0.04    1.06    1.44    37.72073    57.88400    27.49505
   271  H   1.0    0.03    1.04    1.43    36.46937    55.87825    25.49186
   272  H   1.0    0.04    1.05    1.44    34.95980    56.61646    28.10193
   273  H   1.0    0.04    1.05    1.44    39.27620    56.44420    31.56634
   274  H   1.0    0.04    1.06    1.44    36.53544    55.14896    32.19117
   275  H   1.0    0.05    1.05    1.44    39.12846    53.44473    32.33812
   276  N   5.0   -0.24    3.31    1.99    53.79511    66.95647    21.40568
   277  C   4.0    0.02    4.38    4.35    51.97867    65.28952    22.48865
   278  C   4.0    0.14    3.49    3.11    49.59588    66.75151    23.13498
   279  O   6.0   -0.33    1.27    1.80    47.64285    65.67288    23.71052
   280  C   4.0   -0.06    4.47    4.49    52.98451    63.71587    24.68508
   281  C   4.0   -0.02    4.35    4.29    51.46570    63.52149    27.08194
   282  C   4.0   -0.09    4.24    4.07    52.14914    61.26129    28.59802
   283  C   4.0   -0.08    4.27    4.15    51.74738    65.87455    28.55551
   284  H   1.0    0.08    1.07    1.44    55.14204    67.31203    22.48053
   285  H   1.0    0.03    1.11    1.45    51.49059    63.97516    21.14338
   286  H   1.0    0.03    1.08    1.44    53.34822    61.92390    24.05526
   287  H   1.0    0.03    1.09    1.44    54.71850    64.41950    25.16360
   288  H   1.0    0.06    1.13    1.45    49.59948    63.31506    26.58845
   289  H   1.0    0.04    1.04    1.43    51.07974    61.13422    30.18829
   290  H   1.0    0.03    1.04    1.43    51.90108    59.64086    27.59936
   291  H   1.0    0.03    1.04    1.43    53.98891    61.34658    29.13173
   292  H   1.0    0.04    1.05    1.44    50.70040    65.82922    30.16342
   293  H   1.0    0.03    1.05    1.44    53.58263    66.12950    29.05639
   294  H   1.0    0.04    1.05    1.44    51.19915    67.41094    27.54139
   295  N   5.0   -0.16    3.55    2.11    49.74797    69.24980    23.08888
   296  C   4.0    0.03    4.52    4.56    47.67436    70.85367    23.76486
   297  C   4.0    0.07    3.31    3.06    46.09605    71.35658    21.44433
   298  O   6.0   -0.31    1.13    1.80    43.79427    71.34187    21.53956
   299  C   4.0   -0.03    4.48    4.50    48.37171    73.36898    25.00976
   300  C   4.0   -0.05    4.39    4.36    46.05816    74.92336    25.54693
   301  C   4.0   -0.09    4.34    4.27    50.12109    74.80457    23.43412
   302  C   4.0   -0.09    4.18    3.96    46.52152    77.42245    26.58465
   303  H   1.0    0.08    1.13    1.45    51.19311    70.12801    22.60073
   304  H   1.0    0.06    1.12    1.45    46.64714    69.86479    25.08823
   305  H   1.0    0.03    1.11    1.45    49.28005    72.98732    26.68454
   306  H   1.0    0.05    1.10    1.44    45.05272    75.09388    23.90195
   307  H   1.0    0.04    1.08    1.44    44.88087    73.94783    26.73214
   308  H   1.0    0.03    1.05    1.44    50.62269    76.46561    24.25419
   309  H   1.0    0.03    1.05    1.44    51.72932    73.81769    23.10236
   310  H   1.0    0.03    1.05    1.44    49.32295    75.20866    21.73678
   311  H   1.0    0.04    1.04    1.43    44.88771    78.39267    26.87800
   312  H   1.0    0.04    1.05    1.44    47.43871    77.30008    28.26644
   313  H   1.0    0.03    1.05    1.44    47.60870    78.46328    25.39373
   314  N   5.0   -0.22    3.28    1.98    41.84105    65.12156    20.31474
   315  C   4.0    0.03    4.32    4.23    39.62264    64.77432    21.79636
   316  C   4.0    0.08    3.22    3.04    37.59165    66.60929    20.90027
   317  O   6.0   -0.31    1.12    1.80    35.36822    66.02804    20.84805
   318  C   4.0   -0.05    4.50    4.53    40.21242    65.02987    24.56808
   319  C   4.0   -0.02    4.33    4.25    42.10482    63.16980    25.60884
   320  C   4.0   -0.08    4.22    4.03    43.11047    63.88934    28.14756
   321  C   4.0   -0.09    4.28    4.16    40.91428    60.64524    25.62202
   322  H   1.0    0.11    1.08    1.44    43.21324    65.70362    21.24752
   323  H   1.0    0.04    1.11    1.45    38.94354    62.97267    21.52561
   324  H   1.0    0.05    1.08    1.44    40.82216    66.83204    24.89564
   325  H   1.0    0.04    1.08    1.44    38.57947    64.87450    25.59304
   326  H   1.0    0.05    1.12    1.45    43.65587    63.15472    24.43990
   327  H   1.0    0.04    1.04    1.43    44.41035    62.61994    28.77378
   328  H   1.0    0.05    1.04    1.43    43.95810    65.61323    28.11181
   329  H   1.0    0.04    1.04    1.43    41.69275    63.95800    29.43597
   330  H   1.0    0.03    1.04    1.43    42.11982    59.29473    26.25756
   331  H   1.0    0.04    1.05    1.44    39.37463    60.64517    26.76761
   332  H   1.0    0.03    1.04    1.43    40.33280    60.12736    23.86548
   333  H   1.0    0.09    1.08    1.44    38.26725    47.45274    36.85116
   334  H   1.0    0.08    1.05    1.44    50.07295    79.36293    42.76206
   335  H   1.0    0.10    1.08    1.44    54.34261    79.15641    39.23851
   336  H   1.0    0.05    1.05    1.44    56.14367    85.82452    39.47125
   337  H   1.0    0.08    1.08    1.44    54.80043    61.87063    46.54337
   338  H   1.0    0.04    1.05    1.44    55.20869    56.06818    43.70136
   339  H   1.0    0.09    1.08    1.44    47.23090    54.63103    48.30043
   340  H   1.0    0.05    1.04    1.44    42.29834    45.38655    44.97524
   341  H   1.0    0.09    1.08    1.44    33.06354    52.54798    29.67663
   342  H   1.0    0.04    1.04    1.43    37.64996    47.83958    27.76620
   343  H   1.0    0.08    1.08    1.44    54.43754    66.25694    19.99483
   344  H   1.0    0.04    1.05    1.44    46.93590    71.71042    19.78889
   345  H   1.0    0.09    1.08    1.44    42.29086    63.64035    19.61029
   346  H   1.0    0.06    1.05    1.44    38.07175    68.34691    20.33347

  Z AO/shell   Hii/eV     exponent
  1     Wed Apr 25 08:07:45 CEST 2018   EN: 2.200 GM2: 0.406  GM3: 0.0800  RAES: 1.40
     1s    -10.707211    1.230000
  6     Wed Apr 25 08:07:45 CEST 2018   EN: 2.550 GM2: 0.538  GM3: 0.1500  RAES: 3.00
     2s    -13.970922    2.096432
     2p    -10.063292    1.800000
  7     Wed Apr 25 08:07:45 CEST 2018   EN: 3.040 GM2: 0.461  GM3:-0.0640  RAES: 1.90
     2s    -16.686243    2.339881
     2p    -12.523956    2.014332
  8     Wed Apr 25 08:07:45 CEST 2018   EN: 3.440 GM2: 0.452  GM3:-0.0517  RAES: 1.80
     2s    -20.229985    2.439742
     2p    -15.503117    2.137023
 16     Tue Apr 24 11:44:34 CEST 2018   EN: 2.580 GM2: 0.340  GM3:-0.0502  RAES: 3.10
     3s    -20.029654    1.981333
     3p    -11.377694    2.025643
     3d     -0.420282    1.702555
 no old-style atom pair restraining (fixing) potential

molecular fragmentation (1/2 indicates fragments):
111111111111111111111111111111111111111111111111111111111111111111111111
111111111111111111111111111111111111111111111111111111111111111111111111
111111111111111111111111111111111111222222222222222222222222222222222222
222222222222222222222222222222222222222222222222222222222222222222222222
2222222222222222222222222222222222222222222211222222222222
# atoms in fragment 1/2:   182   164
 fragment masses (1/2) :     1297.49      996.38
CMA distance (Bohr)    :  11.985
constraining FC (au)   :  0.0500
           ------------------------------------------------- 
          |        Self-Consistent Charge Iterations        |
           ------------------------------------------------- 

 Ncao       : 835
 Nao        : 834
 Nshell     : 508
 Nel        : 910
 T(el)      :   500.0
 intcut     :    35.0
 scfconv/Eh :  0.100E-06
   qconv/e  :  0.100E-04
 intneglect :  0.100E-08
 broydamp   :      0.400
 iter      E             dE          RMSdq      gap      omega  full diag
   1   -517.8838704 -0.517884E+03  0.444E+00    2.66       0.0  T
   2   -519.1116836 -0.122781E+01  0.210E+00    1.57       1.0  T
   3   -519.1797590 -0.680753E-01  0.118E+00    2.04       1.0  T
   4   -519.2468837 -0.671247E-01  0.237E-01    1.50       1.0  T
   5   -519.2516858 -0.480216E-02  0.118E-01    1.63       1.0  T
   6   -519.2523830 -0.697140E-03  0.532E-02    1.61       1.0  T
   7   -519.2526512 -0.268192E-03  0.232E-02    1.58       1.0  T
   8   -519.2526861 -0.349552E-04  0.110E-02    1.56       1.0  T
   9   -519.2526956 -0.944121E-05  0.461E-03    1.55       1.2  T
  10   -519.2526971 -0.155791E-05  0.193E-03    1.55       2.8  T
  11   -519.2526974 -0.223463E-06  0.737E-04    1.55       7.3  T
  12   -519.2526974 -0.297341E-07  0.332E-04    1.55      16.2  T
  13   -519.2526974 -0.819193E-08  0.159E-04    1.55      33.9  T
  14   -519.2526974 -0.140881E-08  0.699E-05    1.55      76.9  T
  15   -519.2526974 -0.320824E-09  0.270E-05    1.55     198.9  T
speedup  1.00
cpu  time for SCC    4.52 s
wall time for SCC    4.52 s

   *** convergence criteria satisfied after 15 iterations ***

          eigenvalues
 #    :         443        444        445        446        447        448        449        450
 occ. :        2.000      2.000      2.000      2.000      2.000      2.000      2.000      2.000
 eps  :       -10.325    -10.282    -10.232    -10.207    -10.173    -10.160    -10.126    -10.107
 #    :         451        452        453        454        455        456        457        458
 occ. :        2.000      2.000      2.000      2.000      2.000      0.000      0.000      0.000
 eps  :       -10.044     -9.934     -9.852     -9.753     -9.576     -8.027     -7.812     -7.716
 #    :         459        460        461        462        463        464        465        466
 occ. :        0.000      0.000      0.000      0.000      0.000      0.000      0.000      0.000
 eps  :        -7.602     -7.523     -7.483     -7.463     -7.005     -6.773     -6.645     -6.576


   #   Z            q   n(s)   n(p)   n(d)      C6AA      α(0)
   1   7 N     -0.397  1.300  4.096  0.000    30.276     8.172
   2   6 C      0.035  1.028  2.937  0.000    19.996     6.367
   3   6 C      0.279  1.038  2.682  0.000    22.274     7.728
   4   8 O     -0.478  1.737  4.742  0.000    23.309     6.473
   5   6 C     -0.143  1.000  3.143  0.000    23.284     6.875
   6   1 H      0.166  0.834  0.000  0.000     1.297     1.784
   7   1 H      0.059  0.941  0.000  0.000     2.214     2.327
   8   1 H      0.032  0.968  0.000  0.000     2.551     2.498
   9   1 H      0.078  0.922  0.000  0.000     1.998     2.210
  10   1 H      0.048  0.952  0.000  0.000     2.345     2.395
  11   7 N     -0.203  1.222  3.981  0.000    25.417     7.488
  12   6 C      0.042  1.027  2.931  0.000    19.863     6.345
  13   6 C      0.252  1.050  2.698  0.000    22.765     7.814
  14   8 O     -0.510  1.740  4.769  0.000    24.002     6.568
  15   6 C     -0.096  1.034  3.061  0.000    22.305     6.721
  16   6 C      0.367  1.017  2.616  0.000    20.778     7.460
  17   8 O     -0.636  1.772  4.864  0.000    27.020     6.969
  18   8 O     -0.647  1.768  4.879  0.000    27.293     7.004
  19   1 H      0.200  0.800  0.000  0.000     1.105     1.647
  20   1 H      0.063  0.937  0.000  0.000     2.160     2.298
  21   1 H      0.030  0.970  0.000  0.000     2.579     2.511
  22   1 H      0.025  0.975  0.000  0.000     2.658     2.549
  23   7 N     -0.105  1.248  3.858  0.000    23.307     7.170
  24   6 C      0.016  1.045  2.939  0.000    20.256     6.398
  25   6 C      0.277  1.036  2.687  0.000    22.309     7.735
  26   8 O     -0.470  1.732  4.738  0.000    23.131     6.448
  27   6 C     -0.086  1.018  3.068  0.000    22.087     6.682
  28   6 C     -0.087  1.016  3.070  0.000    22.098     6.683
  29   6 C     -0.008  1.017  2.991  0.000    20.714     6.478
  30   1 H      0.091  0.909  0.000  0.000     1.865     2.135
  31   1 H      0.090  0.910  0.000  0.000     1.882     2.145
  32   1 H      0.092  0.908  0.000  0.000     1.857     2.131
  33   1 H      0.062  0.938  0.000  0.000     2.177     2.307
  34   1 H      0.099  0.901  0.000  0.000     1.798     2.097
  35   1 H      0.041  0.959  0.000  0.000     2.439     2.442
  36   1 H      0.082  0.918  0.000  0.000     1.957     2.187
  37   7 N     -0.202  1.223  3.979  0.000    25.397     7.485
  38   6 C      0.010  1.045  2.945  0.000    20.397     6.428
  39   6 C      0.283  1.037  2.680  0.000    22.199     7.715
  40   8 O     -0.491  1.736  4.755  0.000    23.578     6.510
  41   6 C     -0.037  1.044  2.992  0.000    21.185     6.545
  42   6 C     -0.069  1.011  3.058  0.000    21.806     6.645
  43   6 C     -0.134  0.994  3.140  0.000    23.100     6.848
  44   6 C     -0.136  0.993  3.143  0.000    23.152     6.857
  45   1 H      0.205  0.795  0.000  0.000     1.082     1.629
  46   1 H      0.098  0.902  0.000  0.000     1.801     2.099
  47   1 H      0.081  0.919  0.000  0.000     1.967     2.193
  48   1 H      0.061  0.939  0.000  0.000     2.186     2.312
  49   1 H      0.022  0.978  0.000  0.000     2.700     2.569
  50   1 H      0.073  0.927  0.000  0.000     2.051     2.240
  51   1 H      0.041  0.959  0.000  0.000     2.432     2.439
  52   1 H      0.036  0.964  0.000  0.000     2.504     2.474
  53   1 H      0.058  0.942  0.000  0.000     2.224     2.332
  54   1 H      0.046  0.954  0.000  0.000     2.373     2.409
  55   1 H      0.067  0.933  0.000  0.000     2.116     2.275
  56   7 N     -0.201  1.228  3.972  0.000    25.360     7.479
  57   6 C      0.029  1.030  2.941  0.000    20.091     6.382
  58   6 C      0.279  1.035  2.686  0.000    22.280     7.730
  59   8 O     -0.508  1.749  4.759  0.000    23.967     6.564
  60   6 C     -0.058  1.015  3.043  0.000    21.599     6.614
  61   6 C     -0.090  1.021  3.069  0.000    22.199     6.706
  62   6 C      0.371  1.018  2.611  0.000    20.714     7.449
  63   8 O     -0.663  1.770  4.893  0.000    27.706     7.057
  64   8 O     -0.637  1.766  4.870  0.000    27.038     6.972
  65   1 H      0.200  0.800  0.000  0.000     1.108     1.649
  66   1 H      0.062  0.938  0.000  0.000     2.170     2.303
  67   1 H      0.043  0.957  0.000  0.000     2.407     2.426
  68   1 H      0.044  0.956  0.000  0.000     2.391     2.418
  69   1 H      0.029  0.971  0.000  0.000     2.600     2.521
  70   1 H      0.020  0.980  0.000  0.000     2.727     2.582
  71   7 N     -0.196  1.234  3.962  0.000    25.261     7.465
  72   6 C      0.025  1.027  2.948  0.000    20.135     6.386
  73   6 C      0.277  1.036  2.687  0.000    22.311     7.737
  74   8 O     -0.489  1.737  4.752  0.000    23.530     6.504
  75   6 C     -0.086  1.024  3.062  0.000    22.097     6.686
  76   6 C     -0.010  1.026  2.984  0.000    20.710     6.471
  77   6 C     -0.139  0.999  3.140  0.000    23.193     6.861
  78   6 C     -0.138  0.998  3.141  0.000    23.181     6.859
  79   1 H      0.213  0.787  0.000  0.000     1.043     1.600
  80   1 H      0.078  0.922  0.000  0.000     2.004     2.214
  81   1 H      0.070  0.930  0.000  0.000     2.088     2.260
  82   1 H      0.059  0.941  0.000  0.000     2.211     2.325
  83   1 H      0.027  0.973  0.000  0.000     2.635     2.538
  84   1 H      0.064  0.936  0.000  0.000     2.156     2.296
  85   1 H      0.047  0.953  0.000  0.000     2.355     2.400
  86   1 H      0.057  0.943  0.000  0.000     2.235     2.338
  87   1 H      0.056  0.944  0.000  0.000     2.251     2.346
  88   1 H      0.054  0.946  0.000  0.000     2.269     2.356
  89   1 H      0.044  0.956  0.000  0.000     2.390     2.417
  90   7 N     -0.188  1.219  3.970  0.000    25.077     7.437
  91   6 C      0.014  1.046  2.940  0.000    20.323     6.415
  92   6 C      0.282  1.037  2.681  0.000    22.226     7.721
  93   8 O     -0.475  1.727  4.748  0.000    23.246     6.464
  94   6 C     -0.033  1.039  2.993  0.000    21.114     6.534
  95   6 C     -0.074  1.012  3.062  0.000    21.882     6.654
  96   6 C     -0.147  0.997  3.150  0.000    23.342     6.880
  97   6 C     -0.136  0.992  3.144  0.000    23.155     6.857
  98   1 H      0.215  0.785  0.000  0.000     1.031     1.590
  99   1 H      0.091  0.909  0.000  0.000     1.871     2.139
 100   1 H      0.076  0.924  0.000  0.000     2.018     2.221
 101   1 H      0.035  0.965  0.000  0.000     2.516     2.480
 102   1 H      0.035  0.965  0.000  0.000     2.521     2.483
 103   1 H      0.081  0.919  0.000  0.000     1.970     2.195
 104   1 H      0.057  0.943  0.000  0.000     2.233     2.337
 105   1 H      0.062  0.938  0.000  0.000     2.179     2.308
 106   1 H      0.055  0.945  0.000  0.000     2.260     2.351
 107   1 H      0.060  0.940  0.000  0.000     2.194     2.316
 108   1 H      0.058  0.942  0.000  0.000     2.225     2.333
 109   7 N     -0.194  1.215  3.979  0.000    25.200     7.456
 110   6 C      0.032  1.030  2.938  0.000    20.031     6.371
 111   6 C      0.269  1.037  2.693  0.000    22.450     7.759
 112   8 O     -0.507  1.728  4.779  0.000    23.932     6.559
 113   6 C     -0.109  1.027  3.082  0.000    22.554     6.756
 114   6 C      0.304  1.008  2.688  0.000    21.843     7.653
 115   8 O     -0.524  1.737  4.787  0.000    24.328     6.613
 116   7 N     -0.242  1.214  4.028  0.000    26.323     7.620
 117   1 H      0.203  0.797  0.000  0.000     1.092     1.637
 118   1 H      0.092  0.908  0.000  0.000     1.859     2.132
 119   1 H      0.097  0.903  0.000  0.000     1.808     2.103
 120   1 H      0.053  0.947  0.000  0.000     2.279     2.361
 121   1 H      0.253  0.747  0.000  0.000     0.871     1.462
 122   1 H      0.208  0.792  0.000  0.000     1.065     1.617
 123   7 N     -0.168  1.220  3.948  0.000    24.632     7.371
 124   6 C     -0.002  1.030  2.972  0.000    20.604     6.461
 125   6 C      0.270  1.036  2.694  0.000    22.447     7.758
 126   8 O     -0.498  1.751  4.747  0.000    23.742     6.533
 127   6 C     -0.085  1.025  3.061  0.000    22.097     6.687
 128   6 C     -0.010  1.025  2.985  0.000    20.721     6.474
 129   6 C     -0.130  0.998  3.131  0.000    23.013     6.834
 130   6 C     -0.129  0.998  3.131  0.000    22.993     6.831
 131   1 H      0.211  0.789  0.000  0.000     1.050     1.605
 132   1 H      0.100  0.900  0.000  0.000     1.785     2.089
 133   1 H      0.054  0.946  0.000  0.000     2.272     2.357
 134   1 H      0.061  0.939  0.000  0.000     2.182     2.310
 135   1 H      0.043  0.957  0.000  0.000     2.413     2.429
 136   1 H      0.063  0.937  0.000  0.000     2.169     2.303
 137   1 H      0.037  0.963  0.000  0.000     2.488     2.466
 138   1 H      0.040  0.960  0.000  0.000     2.447     2.446
 139   1 H      0.056  0.944  0.000  0.000     2.251     2.346
 140   1 H      0.047  0.953  0.000  0.000     2.354     2.399
 141   1 H      0.046  0.954  0.000  0.000     2.376     2.410
 142   7 N     -0.178  1.219  3.959  0.000    24.848     7.403
 143   6 C      0.025  1.036  2.939  0.000    20.120     6.381
 144   6 C      0.268  1.037  2.695  0.000    22.466     7.762
 145   8 O     -0.466  1.734  4.733  0.000    23.051     6.437
 146   6 C     -0.014  1.025  2.988  0.000    20.803     6.491
 147  16 S     -0.315  1.917  4.355  0.043   154.726    20.936
 148   1 H      0.218  0.782  0.000  0.000     1.017     1.580
 149   1 H      0.090  0.910  0.000  0.000     1.883     2.146
 150   1 H      0.070  0.930  0.000  0.000     2.090     2.260
 151   1 H      0.084  0.916  0.000  0.000     1.942     2.179
 152   1 H      0.220  0.780  0.000  0.000     1.004     1.567
 153   7 N     -0.175  1.213  3.962  0.000    24.788     7.394
 154   6 C      0.012  1.040  2.948  0.000    20.370     6.424
 155   6 C      0.277  1.033  2.690  0.000    22.320     7.737
 156   8 O     -0.459  1.728  4.731  0.000    22.887     6.414
 157   6 C      0.118  1.020  2.861  0.000    18.710     6.170
 158   8 O     -0.481  1.700  4.782  0.000    22.493     6.402
 159   6 C     -0.160  1.001  3.158  0.000    23.627     6.927
 160   1 H      0.215  0.785  0.000  0.000     1.030     1.590
 161   1 H      0.102  0.898  0.000  0.000     1.762     2.076
 162   1 H      0.022  0.978  0.000  0.000     2.701     2.570
 163   1 H      0.340  0.660  0.000  0.000     0.613     1.229
 164   1 H      0.077  0.923  0.000  0.000     2.013     2.219
 165   1 H      0.070  0.930  0.000  0.000     2.080     2.255
 166   1 H      0.079  0.921  0.000  0.000     1.991     2.206
 167   7 N     -0.179  1.211  3.968  0.000    24.875     7.407
 168   6 C      0.029  1.036  2.934  0.000    20.079     6.379
 169   6 C      0.212  1.081  2.707  0.000    23.508     7.940
 170   8 O     -0.344  1.744  4.601  0.000    20.601     6.085
 171   6 C     -0.126  1.036  3.090  0.000    22.883     6.806
 172   6 C      0.303  1.006  2.691  0.000    21.851     7.654
 173   8 O     -0.533  1.747  4.786  0.000    24.525     6.640
 174   7 N     -0.251  1.219  4.033  0.000    26.541     7.651
 175   1 H      0.189  0.811  0.000  0.000     1.162     1.689
 176   1 H      0.114  0.886  0.000  0.000     1.665     2.018
 177   1 H      0.104  0.896  0.000  0.000     1.746     2.066
 178   1 H      0.083  0.917  0.000  0.000     1.947     2.182
 179   1 H      0.217  0.783  0.000  0.000     1.025     1.586
 180   1 H      0.247  0.753  0.000  0.000     0.896     1.482
 181   7 N     -0.399  1.291  4.109  0.000    30.357     8.183
 182   6 C      0.032  1.031  2.938  0.000    20.044     6.375
 183   6 C      0.203  1.086  2.711  0.000    23.692     7.972
 184   8 O     -0.373  1.750  4.623  0.000    21.149     6.166
 185   6 C     -0.076  1.026  3.050  0.000    21.923     6.661
 186   6 C     -0.011  1.024  2.987  0.000    20.728     6.474
 187   6 C     -0.135  0.997  3.138  0.000    23.110     6.848
 188   6 C     -0.139  0.997  3.142  0.000    23.175     6.856
 189   1 H      0.158  0.842  0.000  0.000     1.347     1.818
 190   1 H      0.067  0.933  0.000  0.000     2.113     2.273
 191   1 H      0.058  0.942  0.000  0.000     2.225     2.333
 192   1 H      0.044  0.956  0.000  0.000     2.399     2.422
 193   1 H      0.041  0.959  0.000  0.000     2.435     2.440
 194   1 H      0.058  0.942  0.000  0.000     2.217     2.328
 195   1 H      0.042  0.958  0.000  0.000     2.425     2.435
 196   1 H      0.048  0.952  0.000  0.000     2.346     2.395
 197   1 H      0.055  0.945  0.000  0.000     2.262     2.352
 198   1 H      0.046  0.954  0.000  0.000     2.376     2.410
 199   1 H      0.045  0.955  0.000  0.000     2.381     2.413
 200   7 N     -0.410  1.302  4.108  0.000    30.640     8.221
 201   6 C      0.040  1.028  2.932  0.000    19.906     6.353
 202   6 C      0.199  1.084  2.717  0.000    23.766     7.984
 203   8 O     -0.374  1.746  4.628  0.000    21.175     6.170
 204   6 C     -0.080  1.021  3.060  0.000    22.008     6.674
 205   6 C      0.001  1.072  2.927  0.000    28.006     8.681
 206   6 C     -0.051  1.062  2.990  0.000    29.275     8.875
 207   6 C     -0.051  1.058  2.993  0.000    29.269     8.874
 208   6 C     -0.036  1.056  2.979  0.000    28.887     8.816
 209   6 C     -0.038  1.055  2.983  0.000    28.938     8.823
 210   6 C     -0.041  1.058  2.984  0.000    29.021     8.837
 211   1 H      0.182  0.818  0.000  0.000     1.205     1.719
 212   1 H      0.070  0.930  0.000  0.000     2.084     2.258
 213   1 H      0.063  0.937  0.000  0.000     2.167     2.302
 214   1 H      0.058  0.942  0.000  0.000     2.226     2.333
 215   1 H      0.054  0.946  0.000  0.000     2.265     2.353
 216   1 H      0.037  0.963  0.000  0.000     2.492     2.468
 217   1 H      0.042  0.958  0.000  0.000     2.425     2.435
 218   1 H      0.033  0.967  0.000  0.000     2.538     2.491
 219   1 H      0.047  0.953  0.000  0.000     2.358     2.401
 220   7 N     -0.404  1.295  4.109  0.000    30.494     8.201
 221   6 C      0.020  1.044  2.936  0.000    20.234     6.405
 222   6 C      0.267  1.043  2.690  0.000    22.490     7.766
 223   8 O     -0.519  1.751  4.768  0.000    24.203     6.596
 224   6 C     -0.012  1.032  2.980  0.000    20.742     6.476
 225   6 C     -0.118  0.991  3.127  0.000    22.785     6.800
 226   6 C     -0.122  0.993  3.129  0.000    22.858     6.810
 227   1 H      0.176  0.824  0.000  0.000     1.237     1.742
 228   1 H      0.044  0.956  0.000  0.000     2.400     2.422
 229   1 H      0.046  0.954  0.000  0.000     2.373     2.409
 230   1 H      0.029  0.971  0.000  0.000     2.602     2.522
 231   1 H      0.057  0.943  0.000  0.000     2.236     2.338
 232   1 H      0.024  0.976  0.000  0.000     2.671     2.556
 233   1 H      0.040  0.960  0.000  0.000     2.441     2.443
 234   1 H      0.035  0.965  0.000  0.000     2.511     2.478
 235   1 H      0.057  0.943  0.000  0.000     2.234     2.337
 236   7 N     -0.161  1.216  3.946  0.000    24.493     7.350
 237   6 C      0.025  1.032  2.943  0.000    20.143     6.389
 238   6 C      0.200  1.084  2.716  0.000    23.736     7.979
 239   8 O     -0.342  1.746  4.597  0.000    20.560     6.079
 240   6 C     -0.083  1.015  3.069  0.000    22.066     6.683
 241   6 C     -0.050  1.051  2.998  0.000    29.089     8.837
 242   6 C     -0.007  1.038  2.969  0.000    27.960     8.654
 243   6 C     -0.033  1.070  2.963  0.000    28.072     8.615
 244   7 N     -0.088  1.194  3.894  0.000    22.944     7.114
 245   6 C      0.032  1.054  2.914  0.000    26.864     8.462
 246   6 C     -0.049  1.051  2.998  0.000    29.215     8.865
 247   6 C     -0.061  1.049  3.011  0.000    29.508     8.909
 248   6 C     -0.051  1.049  3.002  0.000    29.259     8.872
 249   6 C     -0.045  1.049  2.996  0.000    29.108     8.850
 250   1 H      0.227  0.773  0.000  0.000     0.978     1.549
 251   1 H      0.084  0.916  0.000  0.000     1.935     2.175
 252   1 H      0.078  0.922  0.000  0.000     2.003     2.213
 253   1 H      0.072  0.928  0.000  0.000     2.058     2.243
 254   1 H      0.058  0.942  0.000  0.000     2.224     2.332
 255   1 H      0.198  0.802  0.000  0.000     1.115     1.654
 256   1 H      0.017  0.983  0.000  0.000     2.781     2.608
 257   1 H      0.045  0.955  0.000  0.000     2.382     2.414
 258   1 H      0.029  0.971  0.000  0.000     2.605     2.524
 259   1 H      0.041  0.959  0.000  0.000     2.431     2.438
 260   7 N     -0.396  1.291  4.105  0.000    30.257     8.169
 261   6 C      0.026  1.038  2.937  0.000    20.138     6.388
 262   6 C      0.193  1.091  2.715  0.000    23.868     8.001
 263   8 O     -0.357  1.752  4.604  0.000    20.839     6.120
 264   6 C     -0.020  1.027  2.993  0.000    20.882     6.498
 265   6 C     -0.139  0.997  3.142  0.000    23.191     6.859
 266   6 C     -0.115  0.990  3.126  0.000    22.716     6.787
 267   1 H      0.156  0.844  0.000  0.000     1.360     1.826
 268   1 H      0.071  0.929  0.000  0.000     2.070     2.250
 269   1 H      0.052  0.948  0.000  0.000     2.293     2.368
 270   1 H      0.061  0.939  0.000  0.000     2.186     2.312
 271   1 H      0.052  0.948  0.000  0.000     2.295     2.369
 272   1 H      0.036  0.964  0.000  0.000     2.497     2.471
 273   1 H      0.056  0.944  0.000  0.000     2.249     2.345
 274   1 H      0.023  0.977  0.000  0.000     2.683     2.561
 275   1 H      0.038  0.962  0.000  0.000     2.480     2.462
 276   7 N     -0.412  1.301  4.111  0.000    30.714     8.231
 277   6 C      0.025  1.037  2.938  0.000    20.157     6.393
 278   6 C      0.270  1.045  2.685  0.000    22.442     7.758
 279   8 O     -0.505  1.746  4.759  0.000    23.896     6.554
 280   6 C     -0.086  1.031  3.055  0.000    22.116     6.692
 281   6 C     -0.016  1.025  2.991  0.000    20.820     6.489
 282   6 C     -0.131  0.998  3.134  0.000    23.047     6.839
 283   6 C     -0.132  0.997  3.135  0.000    23.048     6.838
 284   1 H      0.178  0.822  0.000  0.000     1.225     1.734
 285   1 H      0.054  0.946  0.000  0.000     2.265     2.353
 286   1 H      0.047  0.953  0.000  0.000     2.362     2.403
 287   1 H      0.053  0.947  0.000  0.000     2.284     2.363
 288   1 H      0.049  0.951  0.000  0.000     2.330     2.387
 289   1 H      0.043  0.957  0.000  0.000     2.406     2.425
 290   1 H      0.042  0.958  0.000  0.000     2.418     2.431
 291   1 H      0.046  0.954  0.000  0.000     2.371     2.408
 292   1 H      0.044  0.956  0.000  0.000     2.393     2.419
 293   1 H      0.049  0.951  0.000  0.000     2.329     2.386
 294   1 H      0.037  0.963  0.000  0.000     2.490     2.468
 295   7 N     -0.180  1.216  3.963  0.000    24.889     7.409
 296   6 C      0.018  1.040  2.942  0.000    20.267     6.408
 297   6 C      0.203  1.082  2.715  0.000    23.688     7.971
 298   8 O     -0.365  1.756  4.609  0.000    20.997     6.144
 299   6 C     -0.026  1.039  2.987  0.000    21.001     6.516
 300   6 C     -0.068  1.008  3.060  0.000    21.785     6.641
 301   6 C     -0.146  0.993  3.153  0.000    23.329     6.880
 302   6 C     -0.131  0.991  3.140  0.000    23.058     6.843
 303   1 H      0.220  0.780  0.000  0.000     1.008     1.573
 304   1 H      0.084  0.916  0.000  0.000     1.934     2.174
 305   1 H      0.058  0.942  0.000  0.000     2.225     2.332
 306   1 H      0.046  0.954  0.000  0.000     2.376     2.410
 307   1 H      0.036  0.964  0.000  0.000     2.496     2.470
 308   1 H      0.073  0.927  0.000  0.000     2.057     2.242
 309   1 H      0.059  0.941  0.000  0.000     2.211     2.325
 310   1 H      0.055  0.945  0.000  0.000     2.262     2.352
 311   1 H      0.051  0.949  0.000  0.000     2.310     2.377
 312   1 H      0.039  0.961  0.000  0.000     2.457     2.451
 313   1 H      0.061  0.939  0.000  0.000     2.185     2.312
 314   7 N     -0.399  1.293  4.106  0.000    30.341     8.181
 315   6 C      0.038  1.034  2.928  0.000    19.946     6.360
 316   6 C      0.200  1.092  2.708  0.000    23.733     7.979
 317   8 O     -0.385  1.753  4.632  0.000    21.389     6.201
 318   6 C     -0.079  1.025  3.054  0.000    21.974     6.669
 319   6 C     -0.014  1.027  2.987  0.000    20.790     6.484
 320   6 C     -0.122  0.996  3.126  0.000    22.857     6.812
 321   6 C     -0.133  0.998  3.135  0.000    23.061     6.840
 322   1 H      0.173  0.827  0.000  0.000     1.253     1.753
 323   1 H      0.061  0.939  0.000  0.000     2.187     2.313
 324   1 H      0.048  0.952  0.000  0.000     2.346     2.395
 325   1 H      0.043  0.957  0.000  0.000     2.409     2.427
 326   1 H      0.060  0.940  0.000  0.000     2.201     2.320
 327   1 H      0.051  0.949  0.000  0.000     2.308     2.375
 328   1 H      0.041  0.959  0.000  0.000     2.438     2.442
 329   1 H      0.028  0.972  0.000  0.000     2.614     2.528
 330   1 H      0.048  0.952  0.000  0.000     2.341     2.393
 331   1 H      0.042  0.958  0.000  0.000     2.418     2.432
 332   1 H      0.048  0.952  0.000  0.000     2.349     2.396
 333   1 H      0.192  0.808  0.000  0.000     1.146     1.677
 334   1 H      0.075  0.925  0.000  0.000     2.030     2.228
 335   1 H      0.178  0.822  0.000  0.000     1.228     1.736
 336   1 H      0.058  0.942  0.000  0.000     2.221     2.330
 337   1 H      0.184  0.816  0.000  0.000     1.192     1.710
 338   1 H      0.073  0.927  0.000  0.000     2.052     2.240
 339   1 H      0.187  0.813  0.000  0.000     1.174     1.697
 340   1 H      0.066  0.934  0.000  0.000     2.129     2.282
 341   1 H      0.185  0.815  0.000  0.000     1.184     1.704
 342   1 H      0.073  0.927  0.000  0.000     2.056     2.242
 343   1 H      0.186  0.814  0.000  0.000     1.179     1.701
 344   1 H      0.078  0.922  0.000  0.000     1.999     2.211
 345   1 H      0.184  0.816  0.000  0.000     1.192     1.710
 346   1 H      0.072  0.928  0.000  0.000     2.063     2.246

 Mol. C6AA /au·bohr⁶  :    1092893.832348
 Mol. C8AA /au·bohr⁸  :   24490860.298764
 Mol. α(0) /au        :       1568.949361

 
molecular dipole:
                 x           y           z       tot (Debye)
 q only:      -70.842    -129.757     -94.051
   full:      -72.281    -131.272     -93.055     448.368
molecular quadrupole (traceless):
                xx          xy          yy          xz          yz          zz
 q only:     3951.608   -7201.706   -5241.612   -5069.886   -9168.893    1290.004
  q+dip:     3918.080   -7456.876   -5476.799   -5115.790   -9159.993    1558.719
   full:     3915.641   -7458.458   -5479.467   -5118.185   -9158.447    1563.826
speedup  1.00
cpu  time for grad    5.84 s
wall time for grad    5.84 s

SCC energy    :    -519.2667266
rep           :       9.2428682
ES            :       1.5294771
AES           :      -0.0164343
AXC           :       0.1134186
disp          :      -0.4443601
XB            :       0.0000000
fix           :       0.0000000
Gborn         :       0.0000000
Gsasa         :       0.0000000
Ghb           :       0.0000000
Gshift        :       0.0000000
Gsolv         :      -0.4021415     -252.35
Etot ala COSMO:    -519.2667266
grad norm     :       1.0762147
total E       :    -509.9816842
atomizationE  :      95.6440257    60017.53
(atE without considering molecular charge,
 total energy contains solvation terms)
H-L gap (eV)  :          1.5491

------------------------------------------------------------------------
 * finished run on 2019/03/15 at 00:15:23.803     
------------------------------------------------------------------------
 total:
 * wall-time:     0 d,  0 h,  0 min,  6.358 sec
 *  cpu-time:     0 d,  0 h,  0 min,  6.266 sec
 * ratio c/w:     0.985 speedup
 SCF:
 * wall-time:     0 d,  0 h,  0 min,  6.158 sec
 *  cpu-time:     0 d,  0 h,  0 min,  6.156 sec
 * ratio c/w:     1.000 speedup

