      -----------------------------------------------------------      
     |                   =====================                   |     
     |                           x T B                           |     
     |                   =====================                   |     
     |                         S. Grimme                         |     
     |          Mulliken Center for Theoretical Chemistry        |     
     |                    University of Bonn                     |     
     |                Version 6.1 RC1 (SAW190329)                |     
      -----------------------------------------------------------      

   This program is distributed in the hope that it will be useful,
   but WITHOUT ANY WARRANTY; without even the implied warranty of
   MERCHANTABILITY or FITNESS FOR A PARTICULAR PURPOSE.
   
   FOR NON-COMMERCIAL, ACADEMIA USE ONLY.
   
   Cite this work as:
   S. Grimme, C. Bannwarth, P. Shushkov, J. Comput. Theory Chem., 2017,
   13, 1989-2009. DOI: 10.1021/acs.jctc.7b00118
   C. Bannwarth, S. Ehlert and S. Grimme., J. Comput. Theory Chem., 2019,
   just accepted. DOI: 10.1021/acs.jctc.8b01176
   
   for sTDA-xTB:
   S. Grimme and C. Bannwarth, J. Chem. Phys., 2016, 145, 054103.
   DOI: 10.1063/1.4959605
   
   in the mass-spec context:
   V. Asgeirsson, C. Bauer and S. Grimme, Chem. Sci., 2017, 8, 4879.
   DOI: 10.1039/c7sc00601b
   
   for metadynamics refer to:
   S. Grimme, ChemRxiv, Preprint. DOI: 10.26434/chemrxiv.7660532.v1
   
   with help from (in alphabetical order)
   C. Bannwarth, F. Bohle, G. Brandenburg, E. Caldeweyher, M. Checinski,
   S. Dohm, S. Ehlert, S. Ehrlich, F. März, H. Neugebauer, J. Pisarek,
   P. Pracht, P. Shushkov, and S. Spicher.
   
 * started run on 2019/05/31 at 07:36:33.125     

           -------------------------------------------------
          |                Calculation Setup                |
           -------------------------------------------------

          program call               : /home/lum/install/xtb/xtb-190329/bin/xtb xtb_tmp.xyz --chrg 0 --grad --gfn 2 --etemp 500 --acc 0.1 --gbsa h2o --parallel 1
          hostname                   : cu05
          coordinate file            : xtb_tmp.xyz
          omp threads                :                     1
          number of atoms            :                   420
          number of electrons        :                  1090
          charge                     :                     0
          spin                       :                   0.0
          first test random number   :      0.63723472094394


molecular fragmentation (1/2 indicates fragments):
111111111111111111111111111111111111111222222222222222222222222222222222
222222222222222222222222222222222222222222222222222222222222222222222222
222222222222222222222222222222222222222222222222222222222222222222222222
222222222222222222222222222222222222222222222222222222222222222222222222
222222222222222222222222222222222222222222222222222222222222222222222222
222222222222222222222222222222222222222222222211222222222222
# atoms in fragment 1/2:    41   379
 fragment masses (1/2) :      262.35     2487.16
CMA distance (Bohr)    :  20.659
constraining FC (au)   :  0.0500

########################################################################
# WARNING! Please study the warnings concerning your input carefully
#  - XTBPATH is not set, using XTBHOME instead
########################################################################

           ------------------------------------------------- 
          |                 G F N 2 - x T B                 |
          | Geometry, Frequencies, Noncovalent interactions |
          |            JCTC 2018 parametrisation            |
           ------------------------------------------------- 
 
             k(s)              :                1.8500
             k(p)              :                2.2300
             k(d)              :                2.2300
             k(f)              :                2.0000
             kEN (H0ij)        :               -2.0000
             D4 a1             :                0.5200
             D4 a2             :                5.0000
             D4 s6             :                1.0000
             D4 s8             :                2.7000
             D4 s9             :                5.0000
             alphaj            :                2.0000

  Z AO/shell   Hii/eV     exponent
  1     Wed Apr 25 08:07:45 CEST 2018   EN: 2.200 GM2: 0.406  GM3: 0.0800  RAES: 1.40
     1s    -10.707211    1.230000
  6     Wed Apr 25 08:07:45 CEST 2018   EN: 2.550 GM2: 0.538  GM3: 0.1500  RAES: 3.00
     2s    -13.970922    2.096432
     2p    -10.063292    1.800000
  7     Wed Apr 25 08:07:45 CEST 2018   EN: 3.040 GM2: 0.461  GM3:-0.0640  RAES: 1.90
     2s    -16.686243    2.339881
     2p    -12.523956    2.014332
  8     Wed Apr 25 08:07:45 CEST 2018   EN: 3.440 GM2: 0.452  GM3:-0.0517  RAES: 1.80
     2s    -20.229985    2.439742
     2p    -15.503117    2.137023
 16     Tue Apr 24 11:44:34 CEST 2018   EN: 2.580 GM2: 0.340  GM3:-0.0502  RAES: 3.10
     3s    -20.029654    1.981333
     3p    -11.377694    2.025643
     3d     -0.420282    1.702555

 Solvent             : h2o
 Using internal parameter file: .param_gbsa2_h2o
 Gsolv ref. state (COSMO-RS): gsolv [1 M gas/solution]
 temperature (mdtemp)       :    298.150000000000     
 dielectric constant        :    80.2000000000000     
 rho                        :    1.00000000000000     
 mass                       :    18.0000000000000     
 surface tension            :    15.5689454083859     
 probe radius               :   0.975313790000000     
 vdW radii scaling          :    1.00000000000000     
 Gshift (Eh)                :   1.857443126794793E-003
 c1                         :    1.55243817000000     
 soset                      :   0.130326360000000     
 HB correction              :  T
 Number of grid points      :          230

            Z     q(EN)     CN     RAES       Cart. coordinates
     1  N   5.0   -0.71    3.00    1.93    67.49189    74.93779    85.77370
     2  C   4.0    0.07    3.98    3.59    66.93461    72.30992    86.30569
     3  C   4.0    0.27    3.02    3.02    64.30657    71.64502    85.29652
     4  O   6.0   -0.46    1.00    1.80    63.94723    69.75358    84.00236
     5  C   4.0   -0.14    3.99    3.60    66.99197    71.72144    89.13709
     6  C   4.0   -0.04    3.03    3.02    69.59749    71.40060    90.23765
     7  C   4.0   -0.10    3.03    3.02    71.34161    69.76436    89.14903
     8  C   4.0   -0.11    3.03    3.02    70.24327    72.63542    92.46006
     9  C   4.0   -0.11    3.03    3.02    73.69680    69.41542    90.23169
    10  C   4.0   -0.11    3.03    3.02    72.58147    72.25773    93.57000
    11  C   4.0   -0.10    3.03    3.02    74.32137    70.66125    92.44657
    12  H   1.0    0.25    1.00    1.43    67.88145    76.12086    87.23391
    13  H   1.0    0.10    0.99    1.43    68.27931    71.12071    85.26497
    14  H   1.0    0.10    0.99    1.43    65.96835    73.20823    90.13564
    15  H   1.0    0.10    0.99    1.43    65.94675    69.95541    89.40236
    16  H   1.0    0.10    0.99    1.43    70.85839    68.75849    87.43764
    17  H   1.0    0.10    1.00    1.43    68.88845    73.89003    93.32966
    18  H   1.0    0.11    1.00    1.43    75.04113    68.15710    89.35086
    19  H   1.0    0.10    1.00    1.43    73.03671    73.20325    95.31852
    20  H   1.0    0.11    1.00    1.43    76.15090    70.37104    93.29896
    21  N   5.0   -0.49    3.01    1.93    62.46421    73.22633    85.96631
    22  C   4.0    0.05    3.99    3.61    59.87195    72.74082    85.22203
    23  C   4.0    0.09    3.00    3.02    59.77683    72.14348    82.38805
    24  O   6.0   -0.48    1.00    1.80    58.49721    70.42025    81.53525
    25  C   4.0   -0.15    3.99    3.60    58.24151    75.03950    85.86716
    26  C   4.0   -0.11    3.98    3.58    55.40539    74.45404    85.95800
    27  C   4.0   -0.24    3.98    3.59    54.72167    73.18142    88.45685
    28  C   4.0   -0.23    3.98    3.59    53.89466    76.89328    85.63630
    29  H   1.0    0.22    1.00    1.43    62.77170    74.65518    87.21364
    30  H   1.0    0.12    0.99    1.43    59.17452    71.05102    86.20608
    31  H   1.0    0.09    0.99    1.43    58.83789    75.73416    87.71849
    32  H   1.0    0.10    0.99    1.43    58.61219    76.51490    84.47615
    33  H   1.0    0.12    0.99    1.43    54.94563    73.17237    84.40175
    34  H   1.0    0.09    0.99    1.43    52.70567    72.80904    88.55404
    35  H   1.0    0.09    0.99    1.43    55.71088    71.39465    88.67694
    36  H   1.0    0.09    0.99    1.43    55.22359    74.40019    90.03359
    37  H   1.0    0.10    0.99    1.43    51.88249    76.50978    85.77331
    38  H   1.0    0.10    0.99    1.43    54.40921    78.24272    87.09895
    39  H   1.0    0.10    0.99    1.43    54.27366    77.73985    83.80444
    40  N   5.0   -0.69    3.00    1.93    64.60911    70.52218    78.37844
    41  C   4.0    0.07    3.99    3.60    65.86888    68.16494    77.76778
    42  C   4.0    0.29    3.01    3.02    64.03555    65.95335    78.06052
    43  O   6.0   -0.47    1.00    1.80    63.93273    64.19478    76.55745
    44  C   4.0   -0.21    3.99    3.60    68.08522    67.72055    79.54805
    45  H   1.0    0.27    1.00    1.43    65.45754    71.69416    79.63370
    46  H   1.0    0.10    0.99    1.43    66.52779    68.22363    75.80480
    47  H   1.0    0.10    0.99    1.43    68.82189    65.82448    79.27177
    48  H   1.0    0.09    0.99    1.43    69.60033    69.05429    79.17165
    49  H   1.0    0.13    0.99    1.43    67.45008    67.91813    81.49122
    50  N   5.0   -0.47    3.01    1.93    62.69418    66.05804    80.19180
    51  C   4.0    0.07    3.99    3.61    61.06642    64.01389    80.99067
    52  C   4.0    0.29    3.01    3.02    58.95587    63.62596    79.05953
    53  O   6.0   -0.48    1.00    1.80    58.29690    61.52283    78.37553
    54  C   4.0   -0.21    3.98    3.59    59.96380    64.54504    83.59254
    55  H   1.0    0.31    1.00    1.43    62.94795    67.55555    81.36134
    56  H   1.0    0.12    0.99    1.43    62.15296    62.24371    81.02490
    57  H   1.0    0.11    0.99    1.43    58.86587    62.91696    84.19397
    58  H   1.0    0.12    0.99    1.43    61.49084    64.86345    84.92769
    59  H   1.0    0.13    0.99    1.43    58.76483    66.21042    83.51942
    60  N   5.0   -0.49    3.01    1.93    57.88078    65.76192    78.25042
    61  C   4.0    0.07    3.99    3.60    55.90928    65.78315    76.35021
    62  C   4.0    0.09    3.00    3.02    56.86794    64.46786    73.96816
    63  O   6.0   -0.41    1.00    1.80    55.56094    62.98478    72.74683
    64  C   4.0   -0.09    3.98    3.58    55.10296    68.51736    75.74759
    65  C   4.0   -0.16    3.98    3.58    53.58963    69.69663    77.92587
    66  C   4.0   -0.22    3.98    3.59    53.65020    68.66586    73.25764
    67  C   4.0   -0.23    3.98    3.58    50.98698    68.54605    78.38433
    68  H   1.0    0.28    1.00    1.43    58.44622    67.42535    79.01123
    69  H   1.0    0.12    0.99    1.43    54.28148    64.68254    77.01864
    70  H   1.0    0.12    0.99    1.43    56.84727    69.60858    75.53873
    71  H   1.0    0.14    0.99    1.43    54.70137    69.56048    79.65485
    72  H   1.0    0.10    0.99    1.43    53.34708    71.70120    77.50025
    73  H   1.0    0.10    0.99    1.43    53.00255    70.58992    72.93934
    74  H   1.0    0.12    0.99    1.43    54.85066    68.12729    71.67963
    75  H   1.0    0.11    0.99    1.43    52.02543    67.41206    73.29912
    76  H   1.0    0.10    0.99    1.43    50.12309    69.42685    80.02790
    77  H   1.0    0.10    0.99    1.43    49.74469    68.84944    76.77851
    78  H   1.0    0.11    0.99    1.43    51.09944    66.52747    78.75032
    79  N   5.0   -0.68    3.00    1.93    61.33962    60.35133    73.30376
    80  C   4.0    0.08    3.98    3.59    61.60835    57.66850    73.79102
    81  C   4.0    0.29    3.01    3.02    59.01018    56.39399    73.79122
    82  O   6.0   -0.44    1.00    1.80    58.59652    54.49871    72.51394
    83  C   4.0   -0.14    3.99    3.60    62.95813    57.25004    76.30401
    84  C   4.0   -0.10    3.98    3.58    65.78221    57.90435    76.22300
    85  C   4.0   -0.23    3.98    3.59    66.81509    57.99862    78.91668
    86  C   4.0   -0.23    3.98    3.59    67.26352    55.97401    74.67304
    87  H   1.0    0.31    1.00    1.43    62.07363    61.56813    74.59634
    88  H   1.0    0.11    0.99    1.43    62.67256    56.79483    72.23977
    89  H   1.0    0.13    0.99    1.43    62.01759    58.41142    77.72577
    90  H   1.0    0.10    0.99    1.43    62.74597    55.26862    76.82835
    91  H   1.0    0.13    0.99    1.43    66.01336    59.77338    75.36848
    92  H   1.0    0.10    0.99    1.43    68.82918    58.39574    78.89557
    93  H   1.0    0.11    0.99    1.43    65.87840    59.47383    79.99654
    94  H   1.0    0.09    0.99    1.43    66.52520    56.19407    79.85437
    95  H   1.0    0.10    0.99    1.43    69.26877    56.41247    74.71428
    96  H   1.0    0.10    0.99    1.43    66.99780    54.08522    75.43883
    97  H   1.0    0.10    0.99    1.43    66.66871    55.95716    72.70687
    98  N   5.0   -0.48    3.01    1.93    57.25520    57.48790    75.22305
    99  C   4.0    0.07    3.99    3.61    54.71001    56.47243    75.30765
   100  C   4.0    0.10    3.00    3.02    53.86478    55.82500    72.63289
   101  O   6.0   -0.42    1.00    1.80    52.94849    53.77565    72.09553
   102  C   4.0   -0.13    3.99    3.60    52.78069    58.34582    76.40233
   103  C   4.0   -0.11    3.97    3.58    51.88130    57.82124    79.11115
   104  C   4.0   -0.23    3.98    3.59    51.10188    55.06436    79.48577
   105  C   4.0   -0.20    3.98    3.59    53.82908    58.61443    81.07658
   106  H   1.0    0.31    1.00    1.43    57.65699    59.00952    76.32521
   107  H   1.0    0.12    0.99    1.43    54.71759    54.69632    76.36956
   108  H   1.0    0.14    0.99    1.43    53.59433    60.23494    76.30636
   109  H   1.0    0.11    0.99    1.43    51.10738    58.32235    75.19347
   110  H   1.0    0.10    0.99    1.43    50.18790    58.98384    79.36609
   111  H   1.0    0.09    0.99    1.43    49.84211    54.91238    81.10127
   112  H   1.0    0.11    0.99    1.43    50.11435    54.36589    77.82604
   113  H   1.0    0.10    0.99    1.43    52.73093    53.86112    79.84461
   114  H   1.0    0.11    0.99    1.43    53.18683    58.10742    82.96010
   115  H   1.0    0.13    0.99    1.43    55.63577    57.70922    80.72711
   116  H   1.0    0.12    0.99    1.43    54.13222    60.64307    81.02664
   117  N   5.0   -0.68    3.00    1.93    56.77935    50.34621    69.12090
   118  C   4.0    0.08    3.98    3.59    55.86711    47.91146    69.97938
   119  C   4.0    0.08    3.00    3.02    53.10617    47.46944    69.22637
   120  O   6.0   -0.40    1.00    1.80    52.42145    45.41579    68.37550
   121  C   4.0   -0.12    3.99    3.60    56.20443    47.73495    72.84350
   122  C   4.0   -0.02    3.03    3.02    58.90948    48.13201    73.64024
   123  C   4.0   -0.09    3.03    3.02    60.88744    46.90045    72.42191
   124  C   4.0   -0.07    3.03    3.02    59.46513    49.69155    75.67637
   125  C   4.0   -0.10    3.03    3.02    63.36004    47.25282    73.19749
   126  C   4.0   -0.10    3.03    3.02    61.93084    50.00755    76.48478
   127  C   4.0   -0.11    3.03    3.02    63.88904    48.80615    75.23593
   128  H   1.0    0.33    1.00    1.43    57.26208    51.65096    70.43899
   129  H   1.0    0.12    0.99    1.43    56.94091    46.41528    69.01988
   130  H   1.0    0.12    0.99    1.43    55.00347    49.15438    73.73636
   131  H   1.0    0.13    0.99    1.43    55.57627    45.86919    73.47094
   132  H   1.0    0.12    1.00    1.43    60.50300    45.63587    70.86700
   133  H   1.0    0.12    1.00    1.43    57.95331    50.65174    76.65180
   134  H   1.0    0.12    1.00    1.43    64.86763    46.29164    72.21607
   135  H   1.0    0.11    1.00    1.43    62.31315    51.17686    78.11143
   136  H   1.0    0.10    1.00    1.43    65.81779    49.04588    75.85247
   137  N   5.0   -0.72    3.00    1.93    35.89455    52.66008    80.82020
   138  C   4.0    0.07    3.98    3.58    38.36543    53.37816    81.73360
   139  C   4.0    0.06    3.00    3.02    39.06940    56.02659    80.83757
   140  O   6.0   -0.49    1.00    1.80    40.07206    57.54279    82.28186
   141  C   4.0   -0.02    3.98    3.59    40.40323    51.52874    80.80481
   142  O   6.0   -0.50    1.99    1.82    40.18429    49.11258    81.84660
   143  H   1.0    0.25    1.00    1.43    35.73470    51.01801    79.83715
   144  H   1.0    0.11    0.99    1.43    38.34571    53.39580    83.81064
   145  H   1.0    0.11    0.99    1.43    40.31645    51.48440    78.73152
   146  H   1.0    0.11    0.99    1.43    42.24364    52.25665    81.40448
   147  H   1.0    0.25    0.99    1.43    38.61627    48.36008    81.24310
   148  N   5.0   -0.70    3.00    1.93    35.53841    60.86816    84.28770
   149  C   4.0    0.07    3.98    3.59    36.47120    60.83797    86.86388
   150  C   4.0    0.28    3.02    3.02    38.83905    62.45684    87.13305
   151  O   6.0   -0.42    1.00    1.80    39.07153    63.95811    88.88349
   152  C   4.0   -0.14    3.99    3.60    37.03339    58.11219    87.64929
   153  C   4.0   -0.10    3.98    3.58    38.31475    57.85292    90.23587
   154  C   4.0   -0.22    3.98    3.59    36.67688    58.90890    92.36311
   155  C   4.0   -0.24    3.98    3.59    38.92018    55.07000    90.70927
   156  H   1.0    0.27    1.00    1.43    35.16903    59.17807    83.45902
   157  H   1.0    0.11    0.99    1.43    35.03997    61.67845    88.10939
   158  H   1.0    0.09    0.99    1.43    35.25821    57.06096    87.63969
   159  H   1.0    0.14    0.99    1.43    38.26594    57.30391    86.20744
   160  H   1.0    0.12    0.99    1.43    40.08719    58.92024    90.19270
   161  H   1.0    0.10    0.99    1.43    37.53827    58.50914    94.18453
   162  H   1.0    0.12    0.99    1.43    36.48298    60.94580    92.18530
   163  H   1.0    0.10    0.99    1.43    34.80850    58.05657    92.32342
   164  H   1.0    0.09    0.99    1.43    39.90672    54.84814    92.49524
   165  H   1.0    0.10    0.99    1.43    37.18691    53.96877    90.77974
   166  H   1.0    0.10    0.99    1.43    40.11126    54.32689    89.20890
   167  N   5.0   -0.49    3.01    1.93    40.66004    62.04771    85.43943
   168  C   4.0    0.08    4.00    3.61    43.02022    63.40511    85.66345
   169  C   4.0    0.10    3.00    3.02    42.56865    66.25595    85.60247
   170  O   6.0   -0.42    1.00    1.80    43.64022    67.66682    87.09981
   171  C   4.0    0.03    3.98    3.58    44.97928    62.59571    83.66128
   172  O   6.0   -0.48    1.99    1.82    44.30046    63.28572    81.19451
   173  C   4.0   -0.22    3.98    3.59    45.56139    59.77123    83.91058
   174  H   1.0    0.29    1.00    1.43    40.38980    60.81414    84.00111
   175  H   1.0    0.12    0.99    1.43    43.82227    63.01332    87.54078
   176  H   1.0    0.11    0.99    1.43    46.70818    63.67794    84.04986
   177  H   1.0    0.27    0.99    1.43    42.57985    62.75606    80.80105
   178  H   1.0    0.10    0.99    1.43    47.03657    59.26660    82.57384
   179  H   1.0    0.09    0.99    1.43    46.19584    59.34625    85.81555
   180  H   1.0    0.14    0.99    1.43    43.89049    58.65643    83.48994
   181  N   5.0   -0.73    3.00    1.93    53.62664    69.95128    98.21778
   182  C   4.0    0.06    3.98    3.59    55.72320    68.98298    96.74236
   183  C   4.0    0.27    3.01    3.02    56.33532    66.23188    97.35984
   184  O   6.0   -0.47    1.00    1.80    56.61444    64.65566    95.68238
   185  C   4.0   -0.15    3.99    3.60    58.06344    70.64760    97.12653
   186  C   4.0   -0.10    3.97    3.58    60.46006    69.63585    95.83522
   187  C   4.0   -0.23    3.98    3.59    60.14435    69.43488    92.97288
   188  C   4.0   -0.24    3.98    3.59    62.69026    71.36331    96.45270
   189  H   1.0    0.24    1.00    1.43    54.02005    70.89915    99.83686
   190  H   1.0    0.10    0.99    1.43    55.12676    69.01210    94.75836
   191  H   1.0    0.09    0.99    1.43    57.64342    72.52604    96.38812
   192  H   1.0    0.09    0.99    1.43    58.40663    70.81230    99.15662
   193  H   1.0    0.12    0.99    1.43    60.85495    67.74543    96.58425
   194  H   1.0    0.10    0.99    1.43    61.89847    68.80057    92.11028
   195  H   1.0    0.11    0.99    1.43    58.68337    68.07723    92.48581
   196  H   1.0    0.09    0.99    1.43    59.65643    71.26238    92.17096
   197  H   1.0    0.09    0.99    1.43    64.43125    70.56579    95.71127
   198  H   1.0    0.09    0.99    1.43    62.40011    73.20798    95.59468
   199  H   1.0    0.09    0.99    1.43    62.89556    71.59660    98.48319
   200  N   5.0   -0.49    3.01    1.93    56.64450    65.66128    99.79816
   201  C   4.0    0.07    4.00    3.61    57.51463    63.15258   100.49419
   202  C   4.0    0.27    3.02    3.02    55.82187    61.11199    99.33449
   203  O   6.0   -0.46    1.00    1.80    56.78409    59.32874    98.18731
   204  C   4.0   -0.15    3.98    3.59    57.83813    62.84279   103.34959
   205  C   4.0   -0.11    3.98    3.58    60.42174    63.72846   104.32788
   206  C   4.0   -0.23    3.98    3.59    60.88260    66.52490   103.78365
   207  C   4.0   -0.24    3.98    3.59    60.56458    63.22590   107.16732
   208  H   1.0    0.22    1.00    1.43    56.26984    66.92668   101.17711
   209  H   1.0    0.12    0.99    1.43    59.35553    62.84159    99.57632
   210  H   1.0    0.10    0.99    1.43    56.36446    63.88056   104.34654
   211  H   1.0    0.10    0.99    1.43    57.61634    60.84415   103.81090
   212  H   1.0    0.10    0.99    1.43    61.89887    62.61987   103.39257
   213  H   1.0    0.09    0.99    1.43    62.64916    67.12141   104.64514
   214  H   1.0    0.10    0.99    1.43    61.00897    66.87299   101.76429
   215  H   1.0    0.09    0.99    1.43    59.35938    67.66851   104.56279
   216  H   1.0    0.09    0.99    1.43    62.37190    63.83911   107.92656
   217  H   1.0    0.09    0.99    1.43    59.06248    64.23521   108.14525
   218  H   1.0    0.09    0.99    1.43    60.34123    61.22267   107.56333
   219  N   5.0   -0.33    3.03    1.93    53.32030    61.29665    99.57205
   220  C   4.0    0.06    4.04    3.69    51.75978    59.32222    98.45273
   221  C   4.0    0.29    3.02    3.02    52.03920    59.20563    95.59916
   222  O   6.0   -0.48    1.00    1.80    52.09225    57.15408    94.52424
   223  C   4.0   -0.15    4.01    3.64    49.05866    59.92001    99.29769
   224  C   4.0   -0.16    4.01    3.65    49.46908    61.45627   101.69987
   225  C   4.0   -0.05    4.02    3.66    51.77888    63.04382   101.01849
   226  H   1.0    0.12    0.99    1.43    52.38381    57.48238    99.17600
   227  H   1.0    0.11    0.99    1.43    48.11627    61.08864    97.88935
   228  H   1.0    0.09    0.99    1.43    47.96121    58.21199    99.59937
   229  H   1.0    0.09    0.99    1.43    47.84953    62.63451   102.14718
   230  H   1.0    0.10    0.99    1.43    49.90282    60.22961   103.29559
   231  H   1.0    0.12    0.99    1.43    51.20719    64.63330    99.82001
   232  H   1.0    0.10    0.99    1.43    52.75334    63.76306   102.67529
   233  N   5.0   -0.48    3.01    1.93    52.12774    61.38292    94.32365
   234  C   4.0    0.08    4.01    3.63    52.55352    61.31224    91.61430
   235  C   4.0    0.30    3.01    3.02    54.90712    59.76117    91.02174
   236  O   6.0   -0.50    1.00    1.80    54.90036    58.21185    89.28363
   237  C   4.0   -0.09    3.98    3.59    52.75592    63.97959    90.47732
   238  C   4.0   -0.16    3.98    3.59    50.10224    65.12250    90.31934
   239  C   4.0   -0.22    3.98    3.59    54.01451    63.87184    87.88007
   240  C   4.0   -0.23    3.98    3.58    50.07931    67.92810    89.69461
   241  H   1.0    0.25    1.00    1.43    52.17916    63.07774    95.20070
   242  H   1.0    0.12    0.99    1.43    50.96968    60.30216    90.73060
   243  H   1.0    0.13    0.99    1.43    53.92030    65.11626    91.75296
   244  H   1.0    0.10    0.99    1.43    49.03428    64.09354    88.88522
   245  H   1.0    0.11    0.99    1.43    49.17413    64.87845    92.13967
   246  H   1.0    0.09    0.99    1.43    54.01665    65.72290    86.99845
   247  H   1.0    0.12    0.99    1.43    55.96758    63.25164    88.01956
   248  H   1.0    0.11    0.99    1.43    53.02295    62.55973    86.64820
   249  H   1.0    0.13    0.99    1.43    48.13795    68.54800    89.46149
   250  H   1.0    0.09    0.99    1.43    50.91821    68.99561    91.23549
   251  H   1.0    0.10    0.99    1.43    51.10538    68.31709    87.96119
   252  N   5.0   -0.48    3.01    1.93    56.93549    60.23359    92.42102
   253  C   4.0    0.07    4.00    3.62    59.28399    58.89782    91.95678
   254  C   4.0    0.29    3.01    3.02    58.84414    56.05288    92.28911
   255  O   6.0   -0.47    1.00    1.80    59.63659    54.49819    90.75837
   256  C   4.0   -0.13    3.99    3.60    61.40674    59.88843    93.67904
   257  C   4.0   -0.05    3.03    3.02    63.76597    60.50699    92.21208
   258  C   4.0   -0.11    3.03    3.02    64.85990    58.71309    90.63052
   259  C   4.0   -0.11    3.03    3.02    64.88394    62.87131    92.38985
   260  C   4.0   -0.08    3.03    3.02    67.00912    59.26421    89.26140
   261  C   4.0   -0.10    3.02    3.02    67.05200    63.44144    91.04264
   262  C   4.0    0.10    3.03    3.02    68.12602    61.63825    89.46603
   263  O   6.0   -0.48    1.99    1.83    70.24958    62.10346    88.09238
   264  H   1.0    0.30    1.00    1.43    56.88615    61.59059    93.77883
   265  H   1.0    0.13    0.99    1.43    59.81614    59.17669    89.96695
   266  H   1.0    0.12    0.99    1.43    60.72687    61.58411    94.63355
   267  H   1.0    0.12    0.99    1.43    61.83130    58.48432    95.13147
   268  H   1.0    0.12    1.00    1.43    64.01930    56.86108    90.46218
   269  H   1.0    0.10    1.00    1.43    64.06048    64.29039    93.60281
   270  H   1.0    0.12    1.00    1.43    67.85706    57.88088    88.02749
   271  H   1.0    0.11    0.99    1.43    67.92046    65.28377    91.21614
   272  H   1.0    0.25    0.99    1.43    70.87372    63.78301    88.45050
   273  N   5.0   -0.47    3.01    1.93    57.52739    55.38518    94.32852
   274  C   4.0    0.07    4.00    3.61    56.94035    52.74369    94.79355
   275  C   4.0    0.30    3.01    3.02    55.57037    51.59421    92.51015
   276  O   6.0   -0.47    1.00    1.80    56.20693    49.54706    91.61504
   277  C   4.0   -0.22    3.98    3.59    55.31825    52.49176    97.15572
   278  H   1.0    0.30    1.00    1.43    57.01721    56.69132    95.64243
   279  H   1.0    0.12    0.99    1.43    58.70800    51.67576    95.00762
   280  H   1.0    0.10    0.99    1.43    54.90811    50.51270    97.51518
   281  H   1.0    0.11    0.99    1.43    56.31895    53.27820    98.76813
   282  H   1.0    0.13    0.99    1.43    53.55333    53.50453    96.88425
   283  N   5.0   -0.48    3.01    1.93    53.61834    52.92997    91.65275
   284  C   4.0    0.08    4.00    3.62    52.11165    52.07280    89.53377
   285  C   4.0    0.29    3.01    3.02    53.80637    51.70651    87.22548
   286  O   6.0   -0.47    1.00    1.80    53.60038    49.85086    85.84806
   287  C   4.0   -0.09    3.98    3.58    49.96035    53.93562    88.93973
   288  C   4.0   -0.23    3.98    3.59    48.56307    53.10864    86.55337
   289  C   4.0   -0.22    3.98    3.59    48.10656    54.09596    91.14546
   290  H   1.0    0.31    1.00    1.43    53.15928    54.60213    92.47287
   291  H   1.0    0.11    0.99    1.43    51.31810    50.20708    89.98136
   292  H   1.0    0.13    0.99    1.43    50.82517    55.78748    88.61802
   293  H   1.0    0.09    0.99    1.43    47.08525    54.45834    86.10009
   294  H   1.0    0.11    0.99    1.43    49.84471    52.97596    84.95434
   295  H   1.0    0.10    0.99    1.43    47.69825    51.26561    86.83236
   296  H   1.0    0.09    0.99    1.43    46.56288    55.35760    90.65493
   297  H   1.0    0.10    0.99    1.43    47.32147    52.24201    91.54969
   298  H   1.0    0.13    0.99    1.43    49.02181    54.81245    92.83425
   299  N   5.0   -0.48    3.01    1.93    55.46463    53.55384    86.81998
   300  C   4.0    0.08    4.00    3.61    57.23387    53.47420    84.73303
   301  C   4.0    0.29    3.01    3.02    58.52217    50.88703    84.68905
   302  O   6.0   -0.45    1.00    1.80    58.61682    49.57464    82.78250
   303  C   4.0    0.04    3.98    3.58    59.23933    55.58621    84.98996
   304  O   6.0   -0.51    1.99    1.82    58.15582    58.00823    85.07041
   305  C   4.0   -0.21    3.98    3.59    61.04748    55.50965    82.75132
   306  H   1.0    0.30    1.00    1.43    55.45930    55.08873    87.97156
   307  H   1.0    0.11    0.99    1.43    56.22209    53.70255    82.93484
   308  H   1.0    0.14    0.99    1.43    60.29953    55.23522    86.74179
   309  H   1.0    0.30    0.99    1.43    56.97019    58.11852    86.47382
   310  H   1.0    0.10    0.99    1.43    62.49807    56.93843    82.99528
   311  H   1.0    0.10    0.99    1.43    61.92821    53.66219    82.59520
   312  H   1.0    0.11    0.99    1.43    60.02341    55.91521    81.01811
   313  N   5.0   -0.48    3.01    1.93    59.58803    50.23684    86.88413
   314  C   4.0    0.08    4.00    3.62    60.95887    47.88398    87.18054
   315  C   4.0    0.30    3.01    3.02    59.21491    45.65482    86.59125
   316  O   6.0   -0.45    1.00    1.80    59.82410    43.97204    85.11983
   317  C   4.0   -0.09    3.98    3.59    62.06275    47.66627    89.85797
   318  C   4.0   -0.23    3.98    3.59    63.30900    45.08701    90.20662
   319  C   4.0   -0.22    3.98    3.59    63.97414    49.77597    90.33681
   320  H   1.0    0.29    1.00    1.43    59.39830    51.36851    88.41641
   321  H   1.0    0.12    0.99    1.43    62.48323    47.81194    85.77002
   322  H   1.0    0.14    0.99    1.43    60.49528    47.85062    91.19557
   323  H   1.0    0.10    0.99    1.43    64.07729    44.92196    92.10299
   324  H   1.0    0.12    0.99    1.43    61.95768    43.56861    89.90719
   325  H   1.0    0.10    0.99    1.43    64.83787    44.84943    88.85477
   326  H   1.0    0.10    0.99    1.43    64.82727    49.52709    92.18731
   327  H   1.0    0.10    0.99    1.43    65.46307    49.72554    88.92203
   328  H   1.0    0.13    0.99    1.43    63.07036    51.61823    90.28026
   329  N   5.0   -0.49    3.01    1.93    57.02246    45.66854    87.83788
   330  C   4.0    0.10    4.00    3.61    55.18758    43.67306    87.49377
   331  C   4.0    0.32    3.01    3.02    54.69133    43.17061    84.68129
   332  O   6.0   -0.45    1.00    1.80    54.71989    41.03036    83.80401
   333  C   4.0   -0.02    3.98    3.59    52.70952    44.38223    88.80908
   334  O   6.0   -0.48    1.99    1.83    51.02558    42.34615    88.55919
   335  H   1.0    0.30    1.00    1.43    56.60774    47.09664    89.05386
   336  H   1.0    0.13    0.99    1.43    55.89380    41.88899    88.28546
   337  H   1.0    0.11    0.99    1.43    53.11970    44.77817    90.80727
   338  H   1.0    0.13    0.99    1.43    51.96311    46.09678    87.91155
   339  H   1.0    0.25    0.99    1.43    49.43393    42.77183    89.34588
   340  N   5.0   -0.48    3.01    1.93    54.14167    45.23072    83.34266
   341  C   4.0    0.08    4.00    3.61    53.45767    45.10681    80.69369
   342  C   4.0    0.29    3.01    3.02    55.64745    43.98725    79.17469
   343  O   6.0   -0.40    1.00    1.80    55.32992    42.32780    77.59208
   344  C   4.0   -0.14    4.00    3.62    52.73696    47.73654    79.72566
   345  C   4.0   -0.14    3.98    3.58    50.78618    47.63028    77.61677
   346  S   6.0   -0.13    2.01    3.10    47.78137    46.20001    78.56426
   347  C   4.0   -0.20    3.98    3.58    46.99310    48.10331    81.32336
   348  H   1.0    0.31    1.00    1.43    54.14233    46.95850    84.17856
   349  H   1.0    0.14    0.99    1.43    51.85139    43.80748    80.47623
   350  H   1.0    0.12    0.99    1.43    51.99504    48.83349    81.30772
   351  H   1.0    0.11    0.99    1.43    54.42897    48.69056    79.03164
   352  H   1.0    0.11    0.99    1.43    50.39107    49.52057    76.90117
   353  H   1.0    0.12    0.99    1.43    51.43872    46.44585    76.06373
   354  H   1.0    0.13    0.99    1.43    44.98285    47.85762    81.65966
   355  H   1.0    0.11    0.99    1.43    48.04363    47.43037    82.95243
   356  H   1.0    0.10    0.99    1.43    47.42443    50.07374    80.95126
   357  N   5.0   -0.47    3.00    1.93    57.90715    44.97076    79.71611
   358  C   4.0    0.03    4.00    3.62    60.17633    43.99622    78.55121
   359  C   4.0    0.30    3.01    3.02    60.33889    41.12695    78.79258
   360  O   6.0   -0.38    1.00    1.80    60.84366    39.77570    76.97667
   361  H   1.0    0.30    1.00    1.43    58.07740    46.41687    80.96381
   362  H   1.0    0.14    0.99    1.43    60.23067    44.45402    76.53633
   363  H   1.0    0.11    0.99    1.43    61.80468    44.83918    79.48629
   364  N   5.0   -0.47    3.01    1.93    59.97200    40.26575    81.12678
   365  C   4.0    0.08    3.99    3.61    60.20457    37.61300    81.75599
   366  C   4.0    0.29    3.01    3.02    58.21937    36.05536    80.33959
   367  O   6.0   -0.38    1.00    1.80    58.76308    34.05436    79.29846
   368  C   4.0   -0.14    3.99    3.60    59.97653    37.24659    84.61918
   369  C   4.0   -0.11    3.98    3.58    61.48188    34.96229    85.58272
   370  C   4.0   -0.23    3.98    3.59    64.30056    35.57864    85.70517
   371  C   4.0   -0.23    3.98    3.59    60.53486    34.17669    88.19397
   372  H   1.0    0.30    1.00    1.43    59.63790    41.50065    82.55634
   373  H   1.0    0.13    0.99    1.43    62.05005    36.94165    81.08569
   374  H   1.0    0.12    0.99    1.43    60.68102    38.95276    85.54177
   375  H   1.0    0.13    0.99    1.43    57.98260    37.04827    85.10636
   376  H   1.0    0.13    0.99    1.43    61.18987    33.38839    84.27036
   377  H   1.0    0.10    0.99    1.43    65.36234    33.94210    86.34657
   378  H   1.0    0.11    0.99    1.43    65.02623    36.12085    83.86159
   379  H   1.0    0.10    0.99    1.43    64.62782    37.12565    87.01857
   380  H   1.0    0.10    0.99    1.43    61.62780    32.58619    88.89599
   381  H   1.0    0.10    0.99    1.43    60.72556    35.73452    89.51997
   382  H   1.0    0.10    0.99    1.43    58.55983    33.61752    88.11298
   383  N   5.0   -0.47    3.01    1.93    55.89456    37.01962    80.35971
   384  C   4.0    0.08    3.99    3.60    53.79843    35.72196    79.15659
   385  C   4.0    0.11    3.00    3.02    54.38211    35.39207    76.34083
   386  O   6.0   -0.37    1.00    1.80    54.17413    33.34600    75.26450
   387  C   4.0   -0.13    3.98    3.59    51.31288    37.15724    79.61998
   388  C   4.0   -0.03    3.12    3.03    49.09046    35.44015    79.96517
   389  C   4.0    0.02    3.22    3.04    48.96817    33.38576    81.52665
   390  C   4.0    0.02    3.18    3.03    46.64944    35.67190    78.82634
   391  N   5.0   -0.48    3.10    1.94    46.61842    32.32288    81.43265
   392  C   4.0    0.12    3.22    3.04    45.15757    33.66831    79.79338
   393  C   4.0   -0.10    3.02    3.02    45.55828    37.36230    77.12105
   394  C   4.0   -0.10    3.02    3.02    42.65159    33.32715    79.08662
   395  C   4.0   -0.10    3.03    3.02    43.07316    37.01647    76.43319
   396  C   4.0   -0.11    3.03    3.02    41.63291    35.02132    77.39475
   397  H   1.0    0.30    1.00    1.43    55.52753    38.62374    81.35019
   398  H   1.0    0.14    0.99    1.43    53.67439    33.80422    79.93558
   399  H   1.0    0.14    0.99    1.43    51.56336    38.27958    81.34027
   400  H   1.0    0.12    0.99    1.43    50.95719    38.45383    78.05855
   401  H   1.0    0.11    1.00    1.43    50.39508    32.60421    82.73810
   402  H   1.0    0.23    1.00    1.43    46.08367    30.75315    82.35879
   403  H   1.0    0.12    1.00    1.43    46.64756    38.90906    76.35965
   404  H   1.0    0.11    1.00    1.43    41.54876    31.78588    79.84171
   405  H   1.0    0.12    1.00    1.43    42.20011    38.29932    75.10952
   406  H   1.0    0.11    1.00    1.43    39.69669    34.80092    76.78717
   407  H   1.0    0.29    1.00    1.43    68.86108    75.03578    84.76957
   408  H   1.0    0.14    1.00    1.43    60.78367    73.17939    81.16976
   409  H   1.0    0.29    1.00    1.43    64.42233    71.44891    76.96463
   410  H   1.0    0.15    1.00    1.43    58.62110    64.80002    73.34596
   411  H   1.0    0.30    1.00    1.43    62.10585    60.74137    71.83633
   412  H   1.0    0.16    1.00    1.43    54.05260    57.09755    71.24855
   413  H   1.0    0.30    1.00    1.43    58.18353    50.12899    68.18621
   414  H   1.0    0.15    1.00    1.43    51.83902    48.85734    69.42421
   415  H   1.0    0.29    1.00    1.43    34.83031    52.48982    82.13586
   416  H   1.0    0.13    1.00    1.43    38.71548    56.54636    79.05554
   417  H   1.0    0.29    1.00    1.43    34.07271    61.72858    84.22465
   418  H   1.0    0.14    1.00    1.43    41.38542    66.99816    84.32962
   419  H   1.0    0.28    1.00    1.43    52.72767    71.04594    97.27644
   420  H   1.0    0.17    1.00    1.43    54.95416    36.87224    75.31472

           ------------------------------------------------- 
          |        Self-Consistent Charge Iterations        |
           ------------------------------------------------- 

          ...................................................
          :                      SETUP                      :
          :.................................................:
          :  # basis functions                1008          :
          :  # atomic orbitals                1007          :
          :  # shells                          615          :
          :  # electrons                      1090          :
          :  max. iterations                   250          :
          :  Hamiltonian                  GFN2-xTB          :
          :  restarted?                      false          :
          :  GBSA solvation                   true          :
          :  PC potential                    false          :
          :  electronic temp.          500.0000000     K    :
          :  accuracy                    0.1000000          :
          :  -> integral cutoff          0.3500000E+02      :
          :  -> integral neglect         0.1000000E-08      :
          :  -> SCF convergence          0.1000000E-06 Eh   :
          :  -> wf. convergence          0.1000000E-04 e    :
          :  Broyden damping             0.4000000          :
          ...................................................

 iter      E             dE          RMSdq      gap      omega  full diag
   1   -616.6643945 -0.616664E+03  0.396E+00    1.21       0.0  T
   2   -618.0761114 -0.141172E+01  0.211E+00    1.56       1.0  T
   3   -618.1256139 -0.495026E-01  0.111E+00    1.93       1.0  T
   4   -618.1477260 -0.221121E-01  0.262E-01    1.31       1.0  T
   5   -618.1655666 -0.178406E-01  0.103E-01    1.46       1.0  T
   6   -618.1662914 -0.724863E-03  0.544E-02    1.48       1.0  T
   7   -618.1665768 -0.285386E-03  0.255E-02    1.49       1.0  T
   8   -618.1666439 -0.670204E-04  0.980E-03    1.51       1.0  T
   9   -618.1666493 -0.543900E-05  0.512E-03    1.51       1.0  T
  10   -618.1666510 -0.170952E-05  0.257E-03    1.51       1.9  T
  11   -618.1666514 -0.428588E-06  0.122E-03    1.51       4.0  T
  12   -618.1666516 -0.129807E-06  0.527E-04    1.51       9.3  T
  13   -618.1666516 -0.148854E-07  0.234E-04    1.51      20.8  T
  14   -618.1666516 -0.451826E-08  0.115E-04    1.51      42.4  T
  15   -618.1666516 -0.847990E-09  0.435E-05    1.51     112.3  T
  16   -618.1666516 -0.209980E-09  0.171E-05    1.51     286.2  T

   *** convergence criteria satisfied after 16 iterations ***

         #    Occupation            Energy/Eh            Energy/eV
      -------------------------------------------------------------
         1        2.0000           -0.7334267             -19.9576
       ...           ...                  ...                  ...
       539        2.0000           -0.3724440             -10.1347
       540        2.0000           -0.3684426             -10.0258
       541        2.0000           -0.3662051              -9.9649
       542        2.0000           -0.3553421              -9.6694
       543        2.0000           -0.3530306              -9.6065
       544        2.0000           -0.3517344              -9.5712
       545        2.0000           -0.3515968              -9.5674 (HOMO)
       546                         -0.2961593              -8.0589 (LUMO)
       547                         -0.2863587              -7.7922
       548                         -0.2828101              -7.6957
       549                         -0.2803329              -7.6282
       550                         -0.2777064              -7.5568
       ...                                ...                  ...
      1007                          0.7265061              19.7692
      -------------------------------------------------------------
                  HL-Gap            0.0554375 Eh            1.5085 eV
             Fermi-level           -0.3231818 Eh           -8.7942 eV

 SCC (total)                   0 d,  0 h,  0 min, 16.547 sec
 SCC setup                      ...        0 min,  0.173 sec (  1.047%)
 Dispersion                     ...        0 min,  0.291 sec (  1.758%)
 integral evaluation            ...        0 min,  0.643 sec (  3.884%)
 zeroth order Hamiltonian       ...        0 min,  0.008 sec (  0.046%)
 iterations                     ...        0 min, 12.602 sec ( 76.159%)
 molecular gradient             ...        0 min,  2.717 sec ( 16.421%)
 printout                       ...        0 min,  0.113 sec (  0.684%)

         :::::::::::::::::::::::::::::::::::::::::::::::::::::
         ::                     SUMMARY                     ::
         :::::::::::::::::::::::::::::::::::::::::::::::::::::
         :: total energy             -610.199161082908 Eh   ::
         :: total w/o Gsasa/hb       -610.140934139630 Eh   ::
         :: gradient norm               0.586369282264 Eh/α ::
         :: HOMO-LUMO gap               1.508531477747 eV   ::
         ::.................................................::
         :: SCC energy               -618.190781972243 Eh   ::
         :: -> isotropic ES             1.319525274770 Eh   ::
         :: -> anisotropic ES          -0.011726543243 Eh   ::
         :: -> anisotropic XC           0.230378631808 Eh   ::
         :: -> dispersion              -0.549930108381 Eh   ::
         :: -> Gsolv                   -0.238192850017 Eh   ::
         ::    -> Gborn                -0.179965906740 Eh   ::
         ::    -> Gsasa                -0.025987836406 Eh   ::
         ::    -> Ghb                  -0.034096549998 Eh   ::
         ::    -> Gshift                0.001857443127 Eh   ::
         :: repulsion energy            7.941363816678 Eh   ::
         :: add. restraining            0.000000000000 Eh   ::
         :::::::::::::::::::::::::::::::::::::::::::::::::::::

           -------------------------------------------------
          |                Property Printout                |
           -------------------------------------------------

    * Orbital Energies and Occupations

         #    Occupation            Energy/Eh            Energy/eV
      -------------------------------------------------------------
         1        2.0000           -0.7334267             -19.9576
       ...           ...                  ...                  ...
       533        2.0000           -0.3885330             -10.5725
       534        2.0000           -0.3856454             -10.4939
       535        2.0000           -0.3855352             -10.4909
       536        2.0000           -0.3773022             -10.2669
       537        2.0000           -0.3771471             -10.2627
       538        2.0000           -0.3745367             -10.1917
       539        2.0000           -0.3724440             -10.1347
       540        2.0000           -0.3684426             -10.0258
       541        2.0000           -0.3662051              -9.9649
       542        2.0000           -0.3553421              -9.6694
       543        2.0000           -0.3530306              -9.6065
       544        2.0000           -0.3517344              -9.5712
       545        2.0000           -0.3515968              -9.5674 (HOMO)
       546                         -0.2961593              -8.0589 (LUMO)
       547                         -0.2863587              -7.7922
       548                         -0.2828101              -7.6957
       549                         -0.2803329              -7.6282
       550                         -0.2777064              -7.5568
       551                         -0.2774779              -7.5506
       552                         -0.2664595              -7.2507
       553                         -0.2481153              -6.7516
       554                         -0.2415340              -6.5725
       555                         -0.2389474              -6.5021
       556                         -0.2364026              -6.4328
       ...                                ...                  ...
      1007                          0.7265061              19.7692
      -------------------------------------------------------------
                  HL-Gap            0.0554375 Eh            1.5085 eV
             Fermi-level           -0.3231818 Eh           -8.7942 eV

   #   Z        covCN         q      C6AA      α(0)
   1   7 N      2.635    -0.393    30.180     8.159
   2   6 C      3.786     0.034    20.024     6.373
   3   6 C      2.762     0.264    22.549     7.777
   4   8 O      0.859    -0.484    23.442     6.491
   5   6 C      3.813    -0.074    21.901     6.661
   6   6 C      2.968     0.012    27.753     8.641
   7   6 C      2.924    -0.044    29.091     8.845
   8   6 C      2.926    -0.042    29.046     8.838
   9   6 C      2.919    -0.035    28.862     8.810
  10   6 C      2.919    -0.032    28.800     8.800
  11   6 C      2.920    -0.034    28.853     8.809
  12   1 H      0.860     0.170     1.275     1.769
  13   1 H      0.923     0.038     2.474     2.460
  14   1 H      0.924     0.061     2.186     2.312
  15   1 H      0.924     0.052     2.293     2.368
  16   1 H      0.926     0.029     2.603     2.523
  17   1 H      0.926     0.044     2.400     2.423
  18   1 H      0.926     0.030     2.584     2.514
  19   1 H      0.926     0.037     2.483     2.464
  20   1 H      0.926     0.031     2.576     2.510
  21   7 N      2.692    -0.161    24.486     7.349
  22   6 C      3.795     0.023    20.188     6.398
  23   6 C      2.765     0.208    23.580     7.953
  24   8 O      0.856    -0.365    20.993     6.143
  25   6 C      3.811    -0.081    22.037     6.682
  26   6 C      3.849    -0.013    20.773     6.483
  27   6 C      3.756    -0.121    22.874     6.819
  28   6 C      3.757    -0.119    22.839     6.814
  29   1 H      0.860     0.221     1.003     1.569
  30   1 H      0.923     0.086     1.916     2.165
  31   1 H      0.924     0.073     2.049     2.239
  32   1 H      0.924     0.063     2.169     2.303
  33   1 H      0.924     0.038     2.473     2.459
  34   1 H      0.925     0.048     2.341     2.393
  35   1 H      0.925     0.043     2.405     2.425
  36   1 H      0.925     0.046     2.370     2.407
  37   1 H      0.925     0.046     2.374     2.410
  38   1 H      0.925     0.046     2.367     2.406
  39   1 H      0.925     0.037     2.487     2.466
  40   7 N      2.636    -0.390    30.092     8.147
  41   6 C      3.789     0.037    19.967     6.364
  42   6 C      2.760     0.268    22.482     7.765
  43   8 O      0.858    -0.519    24.210     6.597
  44   6 C      3.760    -0.119    22.831     6.812
  45   1 H      0.860     0.161     1.330     1.806
  46   1 H      0.924     0.023     2.689     2.565
  47   1 H      0.925     0.038     2.474     2.460
  48   1 H      0.925     0.053     2.279     2.361
  49   1 H      0.925     0.065     2.136     2.285
  50   7 N      2.694    -0.184    24.989     7.424
  51   6 C      3.797     0.030    20.069     6.379
  52   6 C      2.757     0.277    22.312     7.735
  53   8 O      0.858    -0.477    23.290     6.470
  54   6 C      3.757    -0.135    23.160     6.861
  55   1 H      0.860     0.244     0.908     1.493
  56   1 H      0.923     0.053     2.284     2.364
  57   1 H      0.925     0.074     2.041     2.234
  58   1 H      0.925     0.072     2.067     2.248
  59   1 H      0.925     0.077     2.007     2.215
  60   7 N      2.692    -0.176    24.802     7.397
  61   6 C      3.793     0.027    20.130     6.389
  62   6 C      2.767     0.209    23.564     7.950
  63   8 O      0.856    -0.371    21.113     6.160
  64   6 C      3.853    -0.022    20.923     6.506
  65   6 C      3.802    -0.071    21.858     6.656
  66   6 C      3.754    -0.117    22.794     6.808
  67   6 C      3.751    -0.116    22.784     6.807
  68   1 H      0.860     0.228     0.974     1.546
  69   1 H      0.923     0.084     1.939     2.177
  70   1 H      0.924     0.052     2.297     2.370
  71   1 H      0.925     0.061     2.184     2.311
  72   1 H      0.924     0.054     2.265     2.353
  73   1 H      0.925     0.062     2.172     2.305
  74   1 H      0.925     0.030     2.591     2.517
  75   1 H      0.925     0.055     2.253     2.347
  76   1 H      0.925     0.050     2.323     2.384
  77   1 H      0.925     0.044     2.390     2.418
  78   1 H      0.925     0.039     2.463     2.454
  79   7 N      2.636    -0.401    30.404     8.189
  80   6 C      3.786     0.042    19.875     6.350
  81   6 C      2.760     0.269    22.462     7.761
  82   8 O      0.859    -0.519    24.220     6.598
  83   6 C      3.811    -0.067    21.778     6.643
  84   6 C      3.849    -0.006    20.657     6.465
  85   6 C      3.758    -0.109    22.637     6.783
  86   6 C      3.756    -0.110    22.658     6.787
  87   1 H      0.860     0.177     1.230     1.738
  88   1 H      0.924     0.019     2.742     2.589
  89   1 H      0.924     0.051     2.308     2.376
  90   1 H      0.924     0.025     2.652     2.547
  91   1 H      0.924     0.037     2.487     2.466
  92   1 H      0.925     0.044     2.402     2.424
  93   1 H      0.925     0.033     2.548     2.496
  94   1 H      0.925     0.038     2.479     2.462
  95   1 H      0.925     0.043     2.405     2.425
  96   1 H      0.925     0.035     2.521     2.483
  97   1 H      0.925     0.027     2.628     2.535
  98   7 N      2.690    -0.185    25.008     7.427
  99   6 C      3.796     0.039    19.931     6.357
 100   6 C      2.771     0.214    23.476     7.935
 101   8 O      0.856    -0.382    21.328     6.192
 102   6 C      3.809    -0.075    21.920     6.665
 103   6 C      3.849    -0.014    20.791     6.486
 104   6 C      3.754    -0.109    22.645     6.785
 105   6 C      3.755    -0.115    22.752     6.801
 106   1 H      0.860     0.249     0.888     1.477
 107   1 H      0.924     0.061     2.185     2.312
 108   1 H      0.925     0.076     2.024     2.225
 109   1 H      0.924     0.053     2.287     2.365
 110   1 H      0.924     0.054     2.276     2.359
 111   1 H      0.925     0.050     2.320     2.382
 112   1 H      0.925     0.036     2.503     2.474
 113   1 H      0.925     0.021     2.719     2.579
 114   1 H      0.925     0.048     2.340     2.392
 115   1 H      0.925     0.041     2.438     2.442
 116   1 H      0.925     0.048     2.343     2.394
 117   7 N      2.636    -0.391    30.124     8.151
 118   6 C      3.783     0.051    19.744     6.329
 119   6 C      2.764     0.201    23.726     7.977
 120   8 O      0.856    -0.384    21.369     6.198
 121   6 C      3.812    -0.056    21.564     6.610
 122   6 C      2.969     0.021    27.543     8.608
 123   6 C      2.924    -0.039    28.979     8.828
 124   6 C      2.925    -0.028    28.700     8.786
 125   6 C      2.919    -0.035    28.882     8.813
 126   6 C      2.919    -0.030    28.738     8.791
 127   6 C      2.920    -0.038    28.950     8.823
 128   1 H      0.860     0.177     1.229     1.737
 129   1 H      0.923     0.042     2.419     2.432
 130   1 H      0.924     0.050     2.319     2.382
 131   1 H      0.924     0.032     2.556     2.500
 132   1 H      0.926     0.030     2.581     2.513
 133   1 H      0.926     0.021     2.723     2.581
 134   1 H      0.926     0.043     2.414     2.430
 135   1 H      0.926     0.032     2.552     2.498
 136   1 H      0.926     0.043     2.414     2.430
 137   7 N      2.635    -0.388    30.029     8.139
 138   6 C      3.781     0.026    20.149     6.395
 139   6 C      2.768     0.188    23.972     8.019
 140   8 O      0.856    -0.360    20.895     6.129
 141   6 C      3.680     0.075    19.525     6.329
 142   8 O      1.655    -0.463    22.105     6.347
 143   1 H      0.860     0.166     1.296     1.783
 144   1 H      0.923     0.063     2.164     2.301
 145   1 H      0.923     0.040     2.446     2.446
 146   1 H      0.924     0.057     2.236     2.339
 147   1 H      0.804     0.335     0.625     1.242
 148   7 N      2.636    -0.396    30.262     8.170
 149   6 C      3.786     0.034    20.015     6.372
 150   6 C      2.764     0.273    22.381     7.748
 151   8 O      0.859    -0.511    24.037     6.573
 152   6 C      3.812    -0.077    21.963     6.671
 153   6 C      3.849    -0.009    20.710     6.473
 154   6 C      3.755    -0.113    22.713     6.795
 155   6 C      3.757    -0.118    22.810     6.809
 156   1 H      0.860     0.157     1.351     1.821
 157   1 H      0.923     0.029     2.601     2.522
 158   1 H      0.924     0.042     2.424     2.435
 159   1 H      0.924     0.058     2.224     2.332
 160   1 H      0.924     0.025     2.664     2.552
 161   1 H      0.925     0.042     2.421     2.433
 162   1 H      0.925     0.034     2.527     2.486
 163   1 H      0.925     0.038     2.480     2.463
 164   1 H      0.925     0.045     2.385     2.415
 165   1 H      0.925     0.041     2.434     2.440
 166   1 H      0.925     0.042     2.419     2.432
 167   7 N      2.689    -0.174    24.759     7.390
 168   6 C      3.799     0.014    20.336     6.421
 169   6 C      2.765     0.209    23.560     7.949
 170   8 O      0.856    -0.364    20.983     6.141
 171   6 C      3.725     0.115    18.801     6.191
 172   8 O      1.655    -0.470    22.262     6.369
 173   6 C      3.752    -0.142    23.298     6.883
 174   1 H      0.860     0.234     0.948     1.525
 175   1 H      0.923     0.085     1.933     2.174
 176   1 H      0.923     0.063     2.165     2.301
 177   1 H      0.804     0.333     0.629     1.246
 178   1 H      0.925     0.067     2.124     2.279
 179   1 H      0.925     0.056     2.249     2.345
 180   1 H      0.925     0.073     2.057     2.243
 181   7 N      2.634    -0.395    30.230     8.166
 182   6 C      3.785     0.026    20.147     6.393
 183   6 C      2.761     0.267    22.489     7.766
 184   8 O      0.859    -0.501    23.810     6.542
 185   6 C      3.809    -0.078    21.978     6.673
 186   6 C      3.849    -0.009    20.700     6.472
 187   6 C      3.755    -0.115    22.747     6.800
 188   6 C      3.757    -0.115    22.760     6.802
 189   1 H      0.860     0.161     1.328     1.805
 190   1 H      0.924     0.056     2.248     2.344
 191   1 H      0.924     0.054     2.269     2.356
 192   1 H      0.924     0.041     2.434     2.440
 193   1 H      0.924     0.015     2.805     2.619
 194   1 H      0.925     0.035     2.516     2.481
 195   1 H      0.925     0.041     2.438     2.442
 196   1 H      0.925     0.047     2.354     2.399
 197   1 H      0.925     0.039     2.468     2.457
 198   1 H      0.925     0.045     2.383     2.414
 199   1 H      0.925     0.038     2.482     2.464
 200   7 N      2.688    -0.169    24.667     7.376
 201   6 C      3.798     0.024    20.178     6.396
 202   6 C      2.764     0.263    22.559     7.778
 203   8 O      0.860    -0.510    23.998     6.568
 204   6 C      3.808    -0.077    21.963     6.671
 205   6 C      3.849    -0.013    20.770     6.482
 206   6 C      3.755    -0.118    22.825     6.812
 207   6 C      3.757    -0.118    22.804     6.808
 208   1 H      0.860     0.216     1.026     1.587
 209   1 H      0.923     0.072     2.061     2.245
 210   1 H      0.925     0.062     2.178     2.308
 211   1 H      0.924     0.055     2.257     2.349
 212   1 H      0.924     0.035     2.511     2.478
 213   1 H      0.925     0.046     2.371     2.408
 214   1 H      0.925     0.041     2.436     2.441
 215   1 H      0.925     0.044     2.394     2.419
 216   1 H      0.925     0.043     2.406     2.426
 217   1 H      0.925     0.046     2.373     2.409
 218   1 H      0.925     0.037     2.487     2.466
 219   7 N      2.758    -0.091    23.023     7.126
 220   6 C      3.840     0.016    20.273     6.405
 221   6 C      2.762     0.274    22.366     7.745
 222   8 O      0.860    -0.488    23.521     6.502
 223   6 C      3.834    -0.075    21.914     6.660
 224   6 C      3.836    -0.077    21.944     6.664
 225   6 C      3.775    -0.017    20.914     6.516
 226   1 H      0.924     0.077     2.013     2.219
 227   1 H      0.925     0.064     2.151     2.294
 228   1 H      0.925     0.074     2.041     2.234
 229   1 H      0.925     0.080     1.980     2.200
 230   1 H      0.925     0.069     2.092     2.262
 231   1 H      0.924     0.073     2.051     2.240
 232   1 H      0.925     0.080     1.978     2.199
 233   7 N      2.689    -0.168    24.646     7.373
 234   6 C      3.808     0.016    20.293     6.412
 235   6 C      2.761     0.281    22.241     7.723
 236   8 O      0.859    -0.511    24.039     6.574
 237   6 C      3.853    -0.027    21.025     6.522
 238   6 C      3.806    -0.065    21.749     6.639
 239   6 C      3.755    -0.120    22.859     6.817
 240   6 C      3.752    -0.117    22.794     6.808
 241   1 H      0.860     0.210     1.055     1.609
 242   1 H      0.923     0.080     1.982     2.202
 243   1 H      0.924     0.061     2.186     2.312
 244   1 H      0.924     0.040     2.450     2.448
 245   1 H      0.925     0.043     2.412     2.429
 246   1 H      0.925     0.068     2.112     2.273
 247   1 H      0.925     0.036     2.500     2.473
 248   1 H      0.925     0.048     2.341     2.392
 249   1 H      0.925     0.051     2.312     2.378
 250   1 H      0.925     0.043     2.407     2.426
 251   1 H      0.925     0.050     2.324     2.384
 252   7 N      2.690    -0.177    24.835     7.401
 253   6 C      3.800     0.025    20.162     6.393
 254   6 C      2.759     0.275    22.346     7.741
 255   8 O      0.859    -0.508    23.953     6.562
 256   6 C      3.809    -0.076    21.942     6.668
 257   6 C      2.968    -0.001    28.043     8.686
 258   6 C      2.925    -0.041    29.012     8.833
 259   6 C      2.925    -0.042    29.032     8.836
 260   6 C      2.918    -0.058    29.450     8.899
 261   6 C      2.917    -0.074    29.841     8.958
 262   6 C      2.847     0.145    24.844     8.169
 263   8 O      1.659    -0.429    21.411     6.247
 264   1 H      0.860     0.240     0.925     1.507
 265   1 H      0.923     0.075     2.037     2.232
 266   1 H      0.924     0.077     2.007     2.216
 267   1 H      0.924     0.063     2.168     2.303
 268   1 H      0.926     0.036     2.496     2.471
 269   1 H      0.926     0.053     2.285     2.364
 270   1 H      0.926     0.045     2.385     2.415
 271   1 H      0.925     0.045     2.380     2.412
 272   1 H      0.805     0.334     0.628     1.245
 273   7 N      2.690    -0.182    24.934     7.416
 274   6 C      3.798     0.027    20.125     6.388
 275   6 C      2.757     0.276    22.333     7.739
 276   8 O      0.858    -0.510    24.011     6.570
 277   6 C      3.757    -0.136    23.171     6.863
 278   1 H      0.860     0.236     0.941     1.520
 279   1 H      0.923     0.068     2.108     2.270
 280   1 H      0.925     0.069     2.094     2.263
 281   1 H      0.925     0.077     2.012     2.218
 282   1 H      0.925     0.075     2.027     2.226
 283   7 N      2.690    -0.185    25.017     7.428
 284   6 C      3.802     0.019    20.250     6.407
 285   6 C      2.758     0.280    22.262     7.727
 286   8 O      0.858    -0.507    23.931     6.559
 287   6 C      3.852    -0.021    20.913     6.504
 288   6 C      3.757    -0.120    22.847     6.815
 289   6 C      3.757    -0.130    23.052     6.846
 290   1 H      0.860     0.242     0.915     1.499
 291   1 H      0.923     0.066     2.125     2.280
 292   1 H      0.924     0.054     2.272     2.357
 293   1 H      0.925     0.065     2.143     2.289
 294   1 H      0.925     0.031     2.575     2.510
 295   1 H      0.925     0.051     2.307     2.375
 296   1 H      0.925     0.062     2.180     2.309
 297   1 H      0.925     0.052     2.297     2.370
 298   1 H      0.925     0.063     2.162     2.299
 299   7 N      2.691    -0.191    25.137     7.446
 300   6 C      3.799     0.016    20.310     6.417
 301   6 C      2.758     0.279    22.283     7.730
 302   8 O      0.858    -0.500    23.775     6.537
 303   6 C      3.727     0.113    18.820     6.194
 304   8 O      1.655    -0.461    22.069     6.342
 305   6 C      3.754    -0.115    22.752     6.802
 306   1 H      0.860     0.236     0.940     1.519
 307   1 H      0.923     0.064     2.150     2.293
 308   1 H      0.923     0.038     2.477     2.461
 309   1 H      0.804     0.323     0.655     1.271
 310   1 H      0.925     0.068     2.106     2.269
 311   1 H      0.925     0.032     2.557     2.501
 312   1 H      0.925     0.055     2.261     2.351
 313   7 N      2.692    -0.185    25.011     7.428
 314   6 C      3.801     0.023    20.192     6.398
 315   6 C      2.758     0.281    22.236     7.722
 316   8 O      0.858    -0.498    23.747     6.534
 317   6 C      3.853    -0.022    20.938     6.508
 318   6 C      3.756    -0.119    22.833     6.813
 319   6 C      3.756    -0.124    22.927     6.827
 320   1 H      0.860     0.225     0.988     1.557
 321   1 H      0.923     0.064     2.157     2.297
 322   1 H      0.924     0.057     2.234     2.337
 323   1 H      0.925     0.066     2.126     2.280
 324   1 H      0.925     0.032     2.552     2.498
 325   1 H      0.925     0.049     2.328     2.386
 326   1 H      0.925     0.063     2.163     2.300
 327   1 H      0.925     0.048     2.350     2.397
 328   1 H      0.925     0.053     2.283     2.363
 329   7 N      2.691    -0.191    25.150     7.448
 330   6 C      3.798     0.023    20.182     6.397
 331   6 C      2.756     0.288    22.127     7.703
 332   8 O      0.858    -0.492    23.601     6.513
 333   6 C      3.679     0.075    19.530     6.330
 334   8 O      1.656    -0.486    22.596     6.417
 335   1 H      0.860     0.232     0.957     1.532
 336   1 H      0.923     0.077     2.015     2.220
 337   1 H      0.923     0.051     2.311     2.377
 338   1 H      0.924     0.045     2.387     2.416
 339   1 H      0.805     0.363     0.558     1.174
 340   7 N      2.692    -0.195    25.228     7.460
 341   6 C      3.798     0.031    20.055     6.376
 342   6 C      2.759     0.279    22.275     7.729
 343   8 O      0.858    -0.501    23.796     6.540
 344   6 C      3.824    -0.063    21.690     6.627
 345   6 C      3.795    -0.007    20.701     6.479
 346  16 S      1.958    -0.227   150.737    20.664
 347   6 C      3.744    -0.068    21.874     6.672
 348   1 H      0.860     0.236     0.938     1.518
 349   1 H      0.923     0.074     2.039     2.233
 350   1 H      0.924     0.079     1.988     2.205
 351   1 H      0.924     0.042     2.422     2.434
 352   1 H      0.925     0.058     2.225     2.332
 353   1 H      0.925     0.034     2.531     2.488
 354   1 H      0.925     0.094     1.837     2.120
 355   1 H      0.925     0.057     2.239     2.340
 356   1 H      0.925     0.067     2.122     2.278
 357   7 N      2.688    -0.180    24.890     7.410
 358   6 C      3.751    -0.020    20.987     6.533
 359   6 C      2.754     0.287    22.144     7.706
 360   8 O      0.858    -0.512    24.063     6.577
 361   1 H      0.860     0.224     0.991     1.560
 362   1 H      0.924     0.070     2.089     2.260
 363   1 H      0.925     0.077     2.014     2.219
 364   7 N      2.692    -0.191    25.137     7.446
 365   6 C      3.797     0.029    20.094     6.383
 366   6 C      2.757     0.281    22.236     7.722
 367   8 O      0.858    -0.512    24.044     6.574
 368   6 C      3.809    -0.076    21.940     6.668
 369   6 C      3.849    -0.010    20.713     6.473
 370   6 C      3.756    -0.117    22.802     6.809
 371   6 C      3.757    -0.119    22.835     6.813
 372   1 H      0.860     0.229     0.970     1.543
 373   1 H      0.923     0.062     2.174     2.306
 374   1 H      0.924     0.063     2.169     2.303
 375   1 H      0.924     0.051     2.304     2.374
 376   1 H      0.924     0.029     2.599     2.521
 377   1 H      0.925     0.052     2.299     2.371
 378   1 H      0.925     0.030     2.588     2.516
 379   1 H      0.925     0.050     2.325     2.384
 380   1 H      0.925     0.054     2.277     2.360
 381   1 H      0.925     0.049     2.332     2.388
 382   1 H      0.925     0.040     2.448     2.447
 383   7 N      2.691    -0.184    24.982     7.423
 384   6 C      3.793     0.037    19.958     6.362
 385   6 C      2.765     0.216    23.435     7.928
 386   8 O      0.856    -0.372    21.126     6.162
 387   6 C      3.805    -0.063    21.706     6.632
 388   6 C      3.053    -0.034    28.789     8.800
 389   6 C      3.038    -0.009    28.210     8.712
 390   6 C      3.116    -0.020    28.329     8.718
 391   7 N      2.776    -0.109    23.377     7.181
 392   6 C      3.091     0.045    26.889     8.499
 393   6 C      2.912    -0.037    28.925     8.819
 394   6 C      2.909    -0.057    29.422     8.894
 395   6 C      2.920    -0.045    29.113     8.848
 396   6 C      2.924    -0.042    29.040     8.837
 397   1 H      0.860     0.228     0.974     1.546
 398   1 H      0.924     0.080     1.981     2.201
 399   1 H      0.924     0.074     2.039     2.233
 400   1 H      0.924     0.050     2.325     2.384
 401   1 H      0.926     0.041     2.432     2.439
 402   1 H      0.860     0.204     1.085     1.632
 403   1 H      0.926     0.015     2.815     2.624
 404   1 H      0.926     0.039     2.457     2.451
 405   1 H      0.926     0.027     2.636     2.539
 406   1 H      0.926     0.035     2.521     2.483
 407   1 H      0.862     0.177     1.233     1.739
 408   1 H      0.930     0.074     2.037     2.232
 409   1 H      0.862     0.179     1.217     1.728
 410   1 H      0.930     0.062     2.176     2.306
 411   1 H      0.862     0.169     1.277     1.770
 412   1 H      0.930     0.060     2.195     2.317
 413   1 H      0.862     0.177     1.230     1.737
 414   1 H      0.930     0.080     1.973     2.197
 415   1 H      0.862     0.189     1.165     1.691
 416   1 H      0.930     0.086     1.915     2.164
 417   1 H      0.862     0.180     1.211     1.724
 418   1 H      0.930     0.071     2.071     2.250
 419   1 H      0.862     0.186     1.182     1.703
 420   1 H      0.930     0.056     2.240     2.340

 Mol. C6AA /au·bohr⁶  :    1602105.777408
 Mol. C8AA /au·bohr⁸  :   35944847.616054
 Mol. α(0) /au        :       1907.360715


Wiberg/Mayer (AO) data.
largest (>0.10) Wiberg bond orders for each atom
          total WBO             WBO to atom ...
     1  N   2.994        C    2 1.015    H  407 0.958    H   12 0.952
     2  C   3.985        N    1 1.015    C    5 0.970    H   13 0.959    C    3 0.934
     3  C   3.943        O    4 1.608    N   21 1.315    C    2 0.934
     4  O   1.987        C    3 1.608    N   21 0.195
     5  C   3.993        C    6 1.009    C    2 0.970    H   14 0.968    H   15 0.955
     6  C   3.988        C    8 1.416    C    7 1.408    C    5 1.009    C   11 0.109
     7  C   3.992        C    9 1.449    C    6 1.408    H   16 0.966    C   10 0.112
     8  C   3.990        C   10 1.441    C    6 1.416    H   17 0.968    C    9 0.110
     9  C   3.993        C    7 1.449    C   11 1.435    H   18 0.971    C    8 0.110
    10  C   3.992        C   11 1.442    C    8 1.441    H   19 0.971    C    7 0.112
    11  C   3.992        C   10 1.442    C    9 1.435    H   20 0.971    C    6 0.109
    12  H   0.971        N    1 0.952
    13  H   0.998        C    2 0.959
    14  H   0.996        C    5 0.968
    15  H   0.997        C    5 0.955
    16  H   0.999        C    7 0.966
    17  H   0.998        C    8 0.968
    18  H   0.999        C    9 0.971
    19  H   0.998        C   10 0.971
    20  H   0.998        C   11 0.971
    21  N   3.477        C    3 1.315    C   22 0.975    H   29 0.914    O    4 0.195
    22  C   3.963        N   21 0.975    C   23 0.975    C   25 0.967    H   30 0.943
    23  C   3.898        O   24 1.871    C   22 0.975    H  408 0.953
    24  O   2.055        C   23 1.871
    25  C   3.982        C   26 0.993    H   32 0.972    C   22 0.967    H   31 0.962
    26  C   3.994        C   27 1.010    C   28 1.008    C   25 0.993    H   33 0.968
    27  C   3.994        C   26 1.010    H   36 0.985    H   34 0.983    H   35 0.982
    28  C   3.994        C   26 1.008    H   39 0.986    H   38 0.986    H   37 0.985
    29  H   0.951        N   21 0.914
    30  H   0.992        C   22 0.943
    31  H   0.995        C   25 0.962
    32  H   0.996        C   25 0.972
    33  H   0.999        C   26 0.968
    34  H   0.998        C   27 0.983
    35  H   0.998        C   27 0.982
    36  H   0.998        C   27 0.985
    37  H   0.998        C   28 0.985
    38  H   0.998        C   28 0.986
    39  H   0.999        C   28 0.986
    40  N   2.995        C   41 1.012    H  409 0.958    H   45 0.954
    41  C   3.986        N   40 1.012    C   44 0.993    H   46 0.966    C   42 0.936
    42  C   3.943        O   43 1.605    N   50 1.322    C   41 0.936
    43  O   1.939        C   42 1.605    N   50 0.197
    44  C   3.991        C   41 0.993    H   47 0.985    H   48 0.983    H   49 0.978
    45  H   0.974        N   40 0.954
    46  H   0.999        C   41 0.966
    47  H   0.999        C   44 0.985
    48  H   0.997        C   44 0.983
    49  H   0.996        C   44 0.978
    50  N   3.475        C   42 1.322    C   51 0.982    H   55 0.880    O   43 0.197
    51  C   3.969        C   54 0.993    N   50 0.982    H   56 0.951    C   52 0.935
    52  C   3.946        O   53 1.614    N   60 1.308    C   51 0.935
    53  O   1.995        C   52 1.614    N   60 0.195
    54  C   3.982        C   51 0.993    H   58 0.979    H   57 0.978    H   59 0.977
    55  H   0.940        N   50 0.880
    56  H   0.997        C   51 0.951
    57  H   0.994        C   54 0.978
    58  H   0.994        C   54 0.979
    59  H   0.994        C   54 0.977
    60  N   3.470        C   52 1.308    C   61 0.979    H   68 0.896    O   53 0.195
    61  C   3.963        N   60 0.979    C   62 0.977    C   64 0.948    H   69 0.939
    62  C   3.901        O   63 1.887    C   61 0.977    H  410 0.955
    63  O   2.035        C   62 1.887
    64  C   3.983        C   66 1.008    C   65 0.992    H   70 0.964    C   61 0.948
    65  C   3.992        C   67 1.021    C   64 0.992    H   72 0.972    H   71 0.967
    66  C   3.992        C   64 1.008    H   75 0.983    H   73 0.983    H   74 0.982
    67  C   3.994        C   65 1.021    H   77 0.985    H   76 0.985    H   78 0.982
    68  H   0.948        N   60 0.896
    69  H   0.993        C   61 0.939
    70  H   0.997        C   64 0.964
    71  H   0.996        C   65 0.967
    72  H   0.995        C   65 0.972
    73  H   0.996        C   66 0.983
    74  H   0.999        C   66 0.982
    75  H   0.997        C   66 0.983
    76  H   0.997        C   67 0.985
    77  H   0.998        C   67 0.985
    78  H   0.998        C   67 0.982
    79  N   2.993        C   80 1.014    H  411 0.961    H   87 0.930
    80  C   3.987        N   79 1.014    C   83 0.981    H   88 0.961    C   81 0.934
    81  C   3.940        O   82 1.585    N   98 1.338    C   80 0.934
    82  O   1.950        C   81 1.585    N   98 0.197
    83  C   3.993        C   84 0.993    C   80 0.981    H   90 0.970    H   89 0.967
    84  C   3.995        C   86 1.010    C   85 1.007    C   83 0.993    H   91 0.965
    85  C   3.996        C   84 1.007    H   94 0.987    H   92 0.986    H   93 0.985
    86  C   3.996        C   84 1.010    H   96 0.986    H   95 0.985    H   97 0.983
    87  H   0.968        N   79 0.930
    88  H   0.999        C   80 0.961
    89  H   0.997        C   83 0.967
    90  H   0.999        C   83 0.970
    91  H   0.998        C   84 0.965
    92  H   0.997        C   85 0.986
    93  H   0.999        C   85 0.985
    94  H   0.999        C   85 0.987
    95  H   0.998        C   86 0.985
    96  H   0.999        C   86 0.986
    97  H   0.999        C   86 0.983
    98  N   3.476        C   81 1.338    C   99 0.977    H  106 0.862    O   82 0.197
    99  C   3.968        N   98 0.977    C  100 0.975    C  102 0.964    H  107 0.947
   100  C   3.904        O  101 1.872    C   99 0.975    H  412 0.955
   101  O   2.028        C  100 1.872
   102  C   3.982        C  103 0.991    H  109 0.969    C   99 0.964    H  108 0.962
   103  C   3.993        C  105 1.011    C  104 1.007    C  102 0.991    H  110 0.963
   104  C   3.996        C  103 1.007    H  112 0.985    H  113 0.981    H  111 0.981
   105  C   3.994        C  103 1.011    H  116 0.984    H  114 0.984    H  115 0.981
   106  H   0.938        N   98 0.862
   107  H   0.996        C   99 0.947
   108  H   0.994        C  102 0.962
   109  H   0.997        C  102 0.969
   110  H   0.997        C  103 0.963
   111  H   0.997        C  104 0.981
   112  H   0.999        C  104 0.985
   113  H   1.000        C  104 0.981
   114  H   0.997        C  105 0.984
   115  H   0.998        C  105 0.981
   116  H   0.998        C  105 0.984
   117  N   2.996        C  118 1.017    H  413 0.956    H  128 0.934
   118  C   3.988        N  117 1.017    C  119 0.976    H  129 0.956    C  121 0.955
   119  C   3.887        O  120 1.888    C  118 0.976    H  414 0.953
   120  O   2.022        C  119 1.888
   121  C   3.994        C  122 1.005    H  130 0.970    H  131 0.959    C  118 0.955
   122  C   3.988        C  124 1.412    C  123 1.406    C  121 1.005    C  127 0.110
   123  C   3.992        C  125 1.446    C  122 1.406    H  132 0.966    C  126 0.111
   124  C   3.991        C  126 1.441    C  122 1.412    H  133 0.966    C  125 0.111
   125  C   3.991        C  123 1.446    C  127 1.435    H  134 0.970    C  124 0.111
   126  C   3.991        C  124 1.441    C  127 1.440    H  135 0.966    C  123 0.111
   127  C   3.991        C  126 1.440    C  125 1.435    H  136 0.970    C  122 0.110
   128  H   0.969        N  117 0.934
   129  H   0.998        C  118 0.956
   130  H   0.997        C  121 0.970
   131  H   0.999        C  121 0.959
   132  H   0.999        C  123 0.966
   133  H   1.000        C  124 0.966
   134  H   0.998        C  125 0.970
   135  H   0.998        C  126 0.966
   136  H   0.998        C  127 0.970
   137  N   2.999        C  138 1.017    H  415 0.953    H  143 0.950
   138  C   3.985        N  137 1.017    C  139 0.983    H  144 0.954    C  141 0.942
   139  C   3.894        O  140 1.866    C  138 0.983    H  416 0.952
   140  O   2.056        C  139 1.866
   141  C   3.956        O  142 1.014    H  146 0.969    H  145 0.967    C  138 0.942
   142  O   1.965        C  141 1.014    H  147 0.869
   143  H   0.972        N  137 0.950
   144  H   0.996        C  138 0.954
   145  H   0.998        C  141 0.967
   146  H   0.997        C  141 0.969
   147  H   0.888        O  142 0.869
   148  N   2.991        C  149 1.010    H  417 0.957    H  156 0.955
   149  C   3.984        N  148 1.010    C  152 0.978    H  157 0.963    C  150 0.940
   150  C   3.942        O  151 1.622    N  167 1.302    C  149 0.940
   151  O   1.942        C  150 1.622    N  167 0.194
   152  C   3.992        C  153 0.995    C  149 0.978    H  158 0.973    H  159 0.963
   153  C   3.996        C  154 1.010    C  155 1.008    C  152 0.995    H  160 0.968
   154  C   3.996        C  153 1.010    H  163 0.987    H  161 0.985    H  162 0.985
   155  C   3.995        C  153 1.008    H  165 0.986    H  166 0.986    H  164 0.986
   156  H   0.975        N  148 0.955
   157  H   0.999        C  149 0.963
   158  H   0.998        C  152 0.973
   159  H   0.997        C  152 0.963
   160  H   0.999        C  153 0.968
   161  H   0.998        C  154 0.985
   162  H   0.999        C  154 0.985
   163  H   0.999        C  154 0.987
   164  H   0.998        C  155 0.986
   165  H   0.998        C  155 0.986
   166  H   0.998        C  155 0.986
   167  N   3.467        C  150 1.302    C  168 0.985    H  174 0.890    O  151 0.194
   168  C   3.969        N  167 0.985    C  169 0.976    H  175 0.945    C  171 0.939
   169  C   3.904        O  170 1.892    C  168 0.976    H  418 0.955
   170  O   2.038        C  169 1.892
   171  C   3.953        O  172 1.006    C  173 0.992    H  176 0.958    C  168 0.939
   172  O   1.957        C  171 1.006    H  177 0.869
   173  C   3.988        C  171 0.992    H  179 0.983    H  178 0.978    H  180 0.971
   174  H   0.945        N  167 0.890
   175  H   0.993        C  168 0.945
   176  H   0.995        C  171 0.958
   177  H   0.889        O  172 0.869
   178  H   0.994        C  173 0.978
   179  H   0.997        C  173 0.983
   180  H   0.995        C  173 0.971
   181  N   2.992        C  182 1.014    H  189 0.954    H  419 0.954
   182  C   3.984        N  181 1.014    C  185 0.970    H  190 0.961    C  183 0.945
   183  C   3.939        O  184 1.599    N  200 1.311    C  182 0.945
   184  O   1.959        C  183 1.599    N  200 0.191
   185  C   3.993        C  186 0.994    H  191 0.973    H  192 0.972    C  182 0.970
   186  C   3.996        C  187 1.010    C  188 1.008    C  185 0.994    H  193 0.967
   187  C   3.995        C  186 1.010    H  196 0.985    H  194 0.984    H  195 0.983
   188  C   3.995        C  186 1.008    H  199 0.986    H  197 0.986    H  198 0.986
   189  H   0.974        N  181 0.954
   190  H   0.997        C  182 0.961
   191  H   0.997        C  185 0.973
   192  H   0.998        C  185 0.972
   193  H   1.000        C  186 0.967
   194  H   0.999        C  187 0.984
   195  H   0.998        C  187 0.983
   196  H   0.998        C  187 0.985
   197  H   0.998        C  188 0.986
   198  H   0.998        C  188 0.986
   199  H   0.999        C  188 0.986
   200  N   3.475        C  183 1.311    C  201 0.978    H  208 0.917    O  184 0.191
   201  C   3.966        C  204 0.982    N  200 0.978    H  209 0.949    C  202 0.938
   202  C   3.949        O  203 1.584    N  219 1.312    C  201 0.938
   203  O   1.943        C  202 1.584    N  219 0.191
   204  C   3.988        C  205 0.992    C  201 0.982    H  211 0.971    H  210 0.964
   205  C   3.994        C  206 1.010    C  207 1.008    C  204 0.992    H  212 0.968
   206  C   3.995        C  205 1.010    H  213 0.985    H  215 0.984    H  214 0.984
   207  C   3.993        C  205 1.008    H  218 0.986    H  217 0.986    H  216 0.985
   208  H   0.953        N  200 0.917
   209  H   0.994        C  201 0.949
   210  H   0.996        C  204 0.964
   211  H   0.996        C  204 0.971
   212  H   0.999        C  205 0.968
   213  H   0.998        C  206 0.985
   214  H   0.998        C  206 0.984
   215  H   0.998        C  206 0.984
   216  H   0.997        C  207 0.985
   217  H   0.998        C  207 0.986
   218  H   0.999        C  207 0.986
   219  N   3.525        C  202 1.312    C  225 0.970    C  220 0.963    O  203 0.191
   220  C   3.967        C  223 0.975    N  219 0.963    H  226 0.951    C  221 0.950
   221  C   3.946        O  222 1.596    N  233 1.310    C  220 0.950
   222  O   1.972        C  221 1.596    N  233 0.191
   223  C   3.986        C  224 1.003    H  227 0.975    H  228 0.975    C  220 0.975
   224  C   3.988        C  225 1.003    C  223 1.003    H  230 0.976    H  229 0.972
   225  C   3.956        C  224 1.003    N  219 0.970    H  232 0.962    H  231 0.961
   226  H   0.994        C  220 0.951
   227  H   0.996        C  223 0.975
   228  H   0.994        C  223 0.975
   229  H   0.992        C  224 0.972
   230  H   0.995        C  224 0.976
   231  H   0.995        C  225 0.961
   232  H   0.993        C  225 0.962
   233  N   3.477        C  221 1.310    C  234 0.976    H  241 0.918    O  222 0.191
   234  C   3.959        N  233 0.976    C  237 0.961    H  242 0.948    C  235 0.943
   235  C   3.942        O  236 1.552    N  252 1.344    C  234 0.943
   236  O   1.954        C  235 1.552    N  252 0.186
   237  C   3.984        C  239 1.008    C  238 0.994    C  234 0.961    H  243 0.958
   238  C   3.994        C  240 1.018    C  237 0.994    H  244 0.975    H  245 0.975
   239  C   3.991        C  237 1.008    H  248 0.985    H  247 0.981    H  246 0.977
   240  C   3.993        C  238 1.018    H  250 0.986    H  249 0.984    H  251 0.981
   241  H   0.955        N  233 0.918
   242  H   0.993        C  234 0.948
   243  H   0.996        C  237 0.958
   244  H   0.998        C  238 0.975
   245  H   0.998        C  238 0.975
   246  H   0.995        C  239 0.977
   247  H   0.999        C  239 0.981
   248  H   0.998        C  239 0.985
   249  H   0.997        C  240 0.984
   250  H   0.998        C  240 0.986
   251  H   0.997        C  240 0.981
   252  N   3.490        C  235 1.344    C  253 0.980    H  264 0.880    O  236 0.186
   253  C   3.964        N  252 0.980    C  256 0.970    H  265 0.948    C  254 0.936
   254  C   3.946        O  255 1.593    N  273 1.331    C  253 0.936
   255  O   1.951        C  254 1.593    N  273 0.195
   256  C   3.986        C  257 1.009    C  253 0.970    H  267 0.962    H  266 0.962
   257  C   3.987        C  259 1.418    C  258 1.396    C  256 1.009
   258  C   3.991        C  260 1.467    C  257 1.396    H  268 0.967    C  261 0.105
   259  C   3.989        C  261 1.443    C  257 1.418    H  269 0.966    C  260 0.107
   260  C   3.990        C  258 1.467    C  262 1.359    H  270 0.969    C  259 0.107
   261  C   3.986        C  259 1.443    C  262 1.377    H  271 0.965    C  258 0.105
   262  C   3.936        C  261 1.377    C  260 1.359    O  263 1.070
   263  O   2.096        C  262 1.070    H  272 0.867
   264  H   0.942        N  252 0.880
   265  H   0.994        C  253 0.948
   266  H   0.994        C  256 0.962
   267  H   0.995        C  256 0.962
   268  H   0.999        C  258 0.967
   269  H   0.997        C  259 0.966
   270  H   0.998        C  260 0.969
   271  H   0.998        C  261 0.965
   272  H   0.889        O  263 0.867
   273  N   3.481        C  254 1.331    C  274 0.976    H  278 0.886    O  255 0.195
   274  C   3.965        C  277 0.996    N  273 0.976    H  279 0.953    C  275 0.935
   275  C   3.946        O  276 1.590    N  283 1.334    C  274 0.935
   276  O   1.951        C  275 1.590    N  283 0.196
   277  C   3.982        C  274 0.996    H  280 0.981    H  281 0.979    H  282 0.976
   278  H   0.944        N  273 0.886
   279  H   0.995        C  274 0.953
   280  H   0.995        C  277 0.981
   281  H   0.994        C  277 0.979
   282  H   0.994        C  277 0.976
   283  N   3.481        C  275 1.334    C  284 0.979    H  290 0.872    O  276 0.196
   284  C   3.963        N  283 0.979    C  287 0.962    H  291 0.949    C  285 0.939
   285  C   3.942        O  286 1.583    N  299 1.326    C  284 0.939
   286  O   1.960        C  285 1.583    N  299 0.192
   287  C   3.985        C  288 1.008    C  289 1.007    C  284 0.962    H  292 0.961
   288  C   3.992        C  287 1.008    H  295 0.985    H  293 0.982    H  294 0.980
   289  C   3.989        C  287 1.007    H  297 0.985    H  296 0.982    H  298 0.975
   290  H   0.941        N  283 0.872
   291  H   0.995        C  284 0.949
   292  H   0.997        C  287 0.961
   293  H   0.995        C  288 0.982
   294  H   0.999        C  288 0.980
   295  H   0.997        C  288 0.985
   296  H   0.995        C  289 0.982
   297  H   0.997        C  289 0.985
   298  H   0.996        C  289 0.975
   299  N   3.475        C  285 1.326    C  300 0.981    H  306 0.870    O  286 0.192
   300  C   3.966        N  299 0.981    C  303 0.950    H  307 0.948    C  301 0.938
   301  C   3.947        O  302 1.608    N  313 1.313    C  300 0.938
   302  O   1.957        C  301 1.608    N  313 0.195
   303  C   3.961        O  304 1.006    C  305 1.005    C  300 0.950    H  308 0.948
   304  O   1.955        C  303 1.006    H  309 0.839
   305  C   3.991        C  303 1.005    H  311 0.983    H  310 0.981    H  312 0.980
   306  H   0.944        N  299 0.870
   307  H   0.995        C  300 0.948
   308  H   0.998        C  303 0.948
   309  H   0.895        O  304 0.839
   310  H   0.995        C  305 0.981
   311  H   0.999        C  305 0.983
   312  H   0.997        C  305 0.980
   313  N   3.473        C  301 1.313    C  314 0.976    H  320 0.896    O  302 0.195
   314  C   3.961        N  313 0.976    C  317 0.965    H  321 0.953    C  315 0.935
   315  C   3.944        O  316 1.605    N  329 1.315    C  314 0.935
   316  O   1.963        C  315 1.605    N  329 0.195
   317  C   3.985        C  318 1.008    C  319 1.007    C  314 0.965    H  322 0.960
   318  C   3.992        C  317 1.008    H  325 0.985    H  324 0.984    H  323 0.983
   319  C   3.991        C  317 1.007    H  327 0.986    H  326 0.982    H  328 0.978
   320  H   0.949        N  313 0.896
   321  H   0.995        C  314 0.953
   322  H   0.997        C  317 0.960
   323  H   0.995        C  318 0.983
   324  H   0.999        C  318 0.984
   325  H   0.997        C  318 0.985
   326  H   0.995        C  319 0.982
   327  H   0.998        C  319 0.986
   328  H   0.997        C  319 0.978
   329  N   3.469        C  315 1.315    C  330 0.983    H  335 0.882    O  316 0.195
   330  C   3.966        N  329 0.983    C  333 0.977    H  336 0.951    C  331 0.932
   331  C   3.947        O  332 1.609    N  340 1.321    C  330 0.932
   332  O   1.967        C  331 1.609    N  340 0.196
   333  C   3.958        O  334 1.009    C  330 0.977    H  337 0.964    H  338 0.962
   334  O   1.919        C  333 1.009    H  339 0.855
   335  H   0.946        N  329 0.882
   336  H   0.994        C  330 0.951
   337  H   0.997        C  333 0.964
   338  H   0.998        C  333 0.962
   339  H   0.868        O  334 0.855
   340  N   3.471        C  331 1.321    C  341 0.979    H  348 0.872    O  332 0.196
   341  C   3.967        C  344 0.982    N  340 0.979    H  349 0.949    C  342 0.934
   342  C   3.945        O  343 1.630    N  357 1.305    C  341 0.934
   343  O   1.951        C  342 1.630    N  357 0.198
   344  C   3.990        C  345 1.015    C  341 0.982    H  351 0.965    H  350 0.960
   345  C   3.983        C  344 1.015    S  346 0.987    H  353 0.973    H  352 0.973
   346  S   2.082        C  347 1.009    C  345 0.987
   347  C   3.969        S  346 1.009    H  355 0.984    H  356 0.980    H  354 0.972
   348  H   0.944        N  340 0.872
   349  H   0.994        C  341 0.949
   350  H   0.994        C  344 0.960
   351  H   0.998        C  344 0.965
   352  H   0.996        C  345 0.973
   353  H   0.999        C  345 0.973
   354  H   0.991        C  347 0.972
   355  H   0.997        C  347 0.984
   356  H   0.996        C  347 0.980
   357  N   3.470        C  342 1.305    C  358 0.994    H  361 0.896    O  343 0.198
   358  C   3.969        N  357 0.994    H  363 0.960    H  362 0.955    C  359 0.946
   359  C   3.951        O  360 1.622    N  364 1.318    C  358 0.946
   360  O   1.934        C  359 1.622    N  364 0.199
   361  H   0.950        N  357 0.896
   362  H   0.995        C  358 0.955
   363  H   0.994        C  358 0.960
   364  N   3.470        C  359 1.318    C  365 0.976    H  372 0.885    O  360 0.199
   365  C   3.962        C  368 0.979    N  364 0.976    H  373 0.950    C  366 0.934
   366  C   3.946        O  367 1.618    N  383 1.318    C  365 0.934
   367  O   1.936        C  366 1.618    N  383 0.198
   368  C   3.984        C  369 0.993    C  365 0.979    H  375 0.973    H  374 0.966
   369  C   3.993        C  370 1.010    C  371 1.008    C  368 0.993    H  376 0.969
   370  C   3.995        C  369 1.010    H  379 0.985    H  377 0.985    H  378 0.983
   371  C   3.994        C  369 1.008    H  382 0.986    H  381 0.986    H  380 0.985
   372  H   0.948        N  364 0.885
   373  H   0.996        C  365 0.950
   374  H   0.996        C  368 0.966
   375  H   0.997        C  368 0.973
   376  H   0.999        C  369 0.969
   377  H   0.997        C  370 0.985
   378  H   0.999        C  370 0.983
   379  H   0.998        C  370 0.985
   380  H   0.997        C  371 0.985
   381  H   0.998        C  371 0.986
   382  H   0.998        C  371 0.986
   383  N   3.475        C  366 1.318    C  384 0.974    H  397 0.882    O  367 0.198
   384  C   3.962        C  385 0.975    N  383 0.974    C  387 0.956    H  398 0.948
   385  C   3.900        O  386 1.889    C  384 0.975    H  420 0.957
   386  O   2.032        C  385 1.889
   387  C   3.983        C  388 1.014    H  400 0.972    C  384 0.956    H  399 0.948
   388  C   3.973        C  389 1.574    C  390 1.209    C  387 1.014
   389  C   3.957        C  388 1.574    N  391 1.211    H  401 0.967
   390  C   3.985        C  393 1.330    C  392 1.244    C  388 1.209
   391  N   3.550        C  389 1.211    C  392 1.183    H  402 0.931
   392  C   3.960        C  394 1.336    C  390 1.244    N  391 1.183
   393  C   3.993        C  395 1.506    C  390 1.330    H  403 0.969    C  394 0.113
   394  C   3.987        C  396 1.495    C  392 1.336    H  404 0.967    C  393 0.113
   395  C   3.990        C  393 1.506    C  396 1.369    H  405 0.972
   396  C   3.990        C  394 1.495    C  395 1.369    H  406 0.972
   397  H   0.948        N  383 0.882
   398  H   0.993        C  384 0.948
   399  H   0.994        C  387 0.948
   400  H   0.997        C  387 0.972
   401  H   0.998        C  389 0.967
   402  H   0.958        N  391 0.931
   403  H   0.999        C  393 0.969
   404  H   0.998        C  394 0.967
   405  H   0.999        C  395 0.972
   406  H   0.998        C  396 0.972
   407  H   0.969        N    1 0.958
   408  H   0.994        C   23 0.953
   409  H   0.968        N   40 0.958
   410  H   0.996        C   62 0.955
   411  H   0.971        N   79 0.961
   412  H   0.996        C  100 0.955
   413  H   0.969        N  117 0.956
   414  H   0.993        C  119 0.953
   415  H   0.964        N  137 0.953
   416  H   0.993        C  139 0.952
   417  H   0.967        N  148 0.957
   418  H   0.995        C  169 0.955
   419  H   0.965        N  181 0.954
   420  H   0.997        C  385 0.957
 
molecular dipole:
                 x           y           z       tot (Debye)
 q only:       -4.801      27.366      24.458
   full:       -2.929      30.236      26.276     102.092
molecular quadrupole (traceless):
                xx          xy          yy          xz          yz          zz
 q only:    -4022.037    2084.485    1159.347    1493.780    5399.170    2862.689
  q+dip:    -4081.400    2518.326    1175.686    1867.253    5911.136    2905.714
   full:    -4079.548    2517.467    1172.938    1865.789    5904.681    2906.610


           -------------------------------------------------
          | TOTAL ENERGY             -610.199161082908 Eh   |
          | GRADIENT NORM               0.586369282264 Eh/α |
          | HOMO-LUMO GAP               1.508531477747 eV   |
           -------------------------------------------------

------------------------------------------------------------------------
 * finished run on 2019/05/31 at 07:36:50.704     
------------------------------------------------------------------------
 total:
 * wall-time:     0 d,  0 h,  0 min, 17.579 sec
 *  cpu-time:     0 d,  0 h,  0 min,  8.971 sec
 * ratio c/w:     0.510 speedup
 SCF:
 * wall-time:     0 d,  0 h,  0 min, 16.548 sec
 *  cpu-time:     0 d,  0 h,  0 min,  8.533 sec
 * ratio c/w:     0.516 speedup

