      -----------------------------------------------------------      
     |                   =====================                   |     
     |                           x T B                           |     
     |                   =====================                   |     
     |                         S. Grimme                         |     
     |          Mulliken Center for Theoretical Chemistry        |     
     |                    University of Bonn                     |     
     |                 Version 6.0.1 (SAW181210)                 |     
      -----------------------------------------------------------      

   This program is distributed in the hope that it will be useful,
   but WITHOUT ANY WARRANTY; without even the implied warranty of
   MERCHANTABILITY or FITNESS FOR A PARTICULAR PURPOSE.
   
   FOR NON-COMMERCIAL, ACADEMIA USE ONLY.
   
   Cite this work as:
   S. Grimme, C. Bannwarth, P. Shushkov, J. Comput. Theory Chem., 2017,
   13, 1989-2009.
   C. Bannwarth, S. Ehlert and S. Grimme., ChemRxiv, 2018, preprint.
   http://doi.org/10.26434/chemrxiv.7246238.v1
   
   for sTDA-xTB:
   S. Grimme and C. Bannwarth, J. Chem. Phys., 2016, 145, 054103.
   
   in the mass-spec context:
   V. Asgeirsson, C. Bauer and S. Grimme, Chem. Sci., 2017, 8, 4879.
   
   if GBSA is used:
   P. Shushkov, F. März and S. Grimme, unpublished.
   
   for ANC optimizer:
   S. Grimme, unpublished.
   Rational Function algorithm used in ANCopt:
   F. Eckert, P. Pulay, H.-J. Werner, J. Comput. Chem., 1997, 18, 1473.
   
   with help from (in alphabetical order)
   C. Bannwarth, F. Bohle, G. Brandenburg, E. Caldeweyher, M. Checinski,
   S. Dohm, S. Ehlert, S. Ehrlich, F. März, H. Neugebauer, J. Pisarek,
   P. Pracht, P. Shushkov, and S. Spicher.
   
 * started run on 2019/03/07 at 11:37:44.963     
========================================================================
 # omp threads = 1
========================================================================
number of atoms            : 105
number of electrons        : 280
charge                     : 0
spin                       : .0
first test random number   : .2933
           ------------------------------------------------- 
          |                 G F N 2 - x T B                 |
          | Geometry, Frequencies, Noncovalent interactions |
          |            JCTC 2018 parametrisation            |
           ------------------------------------------------- 
 
      method parameters     
 k(s)        :  1.8500
 k(p)        :  2.2300
 k(d)        :  2.2300
 k(f)        :  2.0000
 kEN (H0ij)  : -2.0000
 D4 a1       :  0.5200
 D4 a2       :  5.0000
 D4 s6       :  1.0000
 D4 s8       :  2.7000
 D4 s9       :  5.0000
 alphaj      :  2.0000

 Solvent             : h2o
 Using internal parameter file: .param_gbsa2_h2o
 Gsolv ref. state (COSMO-RS): gsolv [1 M gas/solution]
 temperature (mdtemp)       :    298.150000000000     
 dielectric constant        :    80.2000000000000     
 rho                        :    1.00000000000000     
 mass                       :    18.0000000000000     
 surface tension            :    15.5689454083859     
 probe radius               :   0.975313790000000     
 vdW radii scaling          :    1.00000000000000     
 Gshift (Eh)                :   1.857443126794793E-003
 c1                         :    1.55243817000000     
 soset                      :   0.130326360000000     
 HB correction              :  T

            Z     q(EN)     CN     RAES       Cart. coordinates
     1  N   5.0   -0.22    3.27    1.97   424.35497   148.21121   217.78336
     2  C   4.0    0.03    4.34    4.27   422.27438   146.52179   217.30337
     3  C   4.0    0.08    3.25    3.04   423.01893   144.25601   215.80292
     4  O   6.0   -0.29    1.14    1.80   424.47780   144.42420   214.00957
     5  C   4.0   -0.04    4.42    4.41   420.10309   147.91263   216.02780
     6  C   4.0   -0.02    3.57    3.15   418.67067   149.66630   217.78714
     7  C   4.0   -0.05    3.48    3.11   419.64388   152.03601   218.43531
     8  C   4.0   -0.05    3.51    3.12   416.33497   148.96899   218.74712
     9  C   4.0   -0.04    3.43    3.09   418.29084   153.68574   220.06237
    10  C   4.0   -0.06    3.48    3.11   414.96303   150.53746   220.34205
    11  C   4.0    0.07    3.49    3.11   415.93624   152.89584   220.98644
    12  O   6.0   -0.27    2.15    1.85   414.62666   154.41707   222.60216
    13  H   1.0    0.11    1.08    1.44   424.84252   149.09749   216.51157
    14  H   1.0    0.04    1.14    1.45   421.71502   145.90952   218.93798
    15  H   1.0    0.06    1.10    1.44   420.76260   148.88584   214.62185
    16  H   1.0    0.05    1.10    1.44   418.93524   146.68431   215.32860
    17  H   1.0    0.05    1.09    1.44   421.19913   152.53868   217.79092
    18  H   1.0    0.05    1.10    1.44   415.66601   147.40429   218.31059
    19  H   1.0    0.06    1.09    1.44   418.95035   155.25421   220.50456
    20  H   1.0    0.05    1.09    1.44   413.40779   150.01778   220.97510
    21  H   1.0    0.14    1.11    1.45   413.26039   153.71598   222.99900
    22  N   5.0   -0.21    3.25    1.97   428.70323   145.68275   209.12274
    23  C   4.0    0.03    4.42    4.42   427.70923   146.49911   206.71712
    24  C   4.0    0.15    3.45    3.10   428.33851   149.21087   205.99714
    25  O   6.0   -0.29    1.25    1.80   428.35930   150.90596   207.61474
    26  C   4.0   -0.05    4.48    4.51   424.81228   146.20810   206.65854
    27  C   4.0   -0.02    4.31    4.22   423.85041   143.54547   207.20278
    28  C   4.0   -0.08    4.22    4.04   420.98937   143.46421   206.88531
    29  C   4.0   -0.09    4.25    4.09   425.13732   141.77858   205.29038
    30  H   1.0    0.12    1.09    1.44   427.56372   145.32182   210.22445
    31  H   1.0    0.04    1.14    1.45   428.53315   145.41063   205.49447
    32  H   1.0    0.07    1.09    1.44   424.08285   147.35894   207.88497
    33  H   1.0    0.05    1.10    1.44   424.20379   146.72588   205.00881
    34  H   1.0    0.06    1.12    1.45   424.23970   143.03147   208.91865
    35  H   1.0    0.04    1.05    1.44   420.38277   141.76913   207.23302
    36  H   1.0    0.06    1.06    1.44   420.21080   144.64151   208.05316
    37  H   1.0    0.05    1.06    1.44   420.55095   143.92909   205.16755
    38  H   1.0    0.04    1.05    1.44   424.57418   140.05704   205.57195
    39  H   1.0    0.04    1.06    1.44   424.69512   142.29447   203.58774
    40  H   1.0    0.04    1.06    1.44   426.95523   141.86740   205.50203
    41  N   5.0   -0.15    3.52    2.09   428.95267   149.58126   203.58396
    42  C   4.0    0.04    4.52    4.57   429.49313   152.11727   202.58051
    43  C   4.0    0.15    3.53    3.13   426.94200   153.37961   202.70712
    44  O   6.0   -0.29    1.23    1.80   425.16377   152.56891   201.38620
    45  C   4.0    0.05    4.32    4.24   430.38131   151.93586   199.79317
    46  O   6.0   -0.28    2.13    1.84   432.53937   150.29368   199.62876
    47  C   4.0   -0.08    4.18    3.95   431.05216   154.57958   198.79917
    48  H   1.0    0.10    1.13    1.45   429.06984   148.38884   202.48603
    49  H   1.0    0.05    1.12    1.45   430.81027   153.00544   203.49325
    50  H   1.0    0.05    1.10    1.44   429.02826   151.24611   198.76704
    51  H   1.0    0.14    1.08    1.44   433.01558   150.19542   198.11887
    52  H   1.0    0.05    1.05    1.44   431.60585   154.45486   197.05684
    53  H   1.0    0.05    1.05    1.44   429.57628   155.66240   198.89555
    54  H   1.0    0.05    1.05    1.44   432.39953   155.29201   199.81773
    55  N   5.0   -0.16    3.45    2.05   426.69634   155.20886   204.43055
    56  C   4.0    0.01    4.35    4.29   424.34930   156.62427   204.72724
    57  C   4.0    0.16    3.38    3.07   423.19279   156.07814   207.27837
    58  O   6.0   -0.28    1.21    1.80   421.71691   157.63905   208.27426
    59  H   1.0    0.10    1.13    1.45   427.88120   155.65673   205.44912
    60  H   1.0    0.05    1.09    1.44   424.67811   158.41951   204.56094
    61  H   1.0    0.07    1.09    1.44   423.17200   156.16884   203.39687
    62  N   5.0   -0.15    3.45    2.04   423.79561   153.86905   208.29315
    63  C   4.0    0.02    4.38    4.34   422.81862   153.07158   210.70633
    64  C   4.0    0.15    3.39    3.07   420.23159   151.89617   210.61185
    65  O   6.0   -0.31    1.25    1.80   419.97458   149.61716   210.28492
    66  H   1.0    0.12    1.16    1.45   424.78961   152.79379   207.58829
    67  H   1.0    0.06    1.10    1.44   423.98647   151.86594   211.44333
    68  H   1.0    0.05    1.10    1.44   422.76571   154.52100   211.82694
    69  N   5.0   -0.16    3.48    2.06   418.29462   153.41740   210.98790
    70  C   4.0    0.03    4.53    4.57   415.71514   152.44797   210.96900
    71  C   4.0    0.14    3.51    3.12   414.16179   153.48921   208.80527
    72  O   6.0   -0.28    1.24    1.80   413.78384   155.78901   208.59173
    73  C   4.0   -0.05    4.44    4.44   414.35832   153.08103   213.47289
    74  C   4.0   -0.02    4.31    4.21   411.68058   151.95664   213.76391
    75  C   4.0   -0.09    4.23    4.07   411.80908   149.09182   213.56549
    76  C   4.0   -0.08    4.21    4.02   410.47304   152.74844   216.25457
    77  H   1.0    0.11    1.13    1.45   418.42123   155.01422   211.25813
    78  H   1.0    0.05    1.16    1.46   415.85498   150.63195   210.75736
    79  H   1.0    0.05    1.09    1.44   415.39389   152.48577   214.86373
    80  H   1.0    0.06    1.09    1.44   414.24494   154.90462   213.62974
    81  H   1.0    0.06    1.13    1.45   410.62800   152.60860   212.41276
    82  H   1.0    0.05    1.06    1.44   410.12533   148.38884   213.74879
    83  H   1.0    0.04    1.07    1.44   412.49127   148.62128   211.93088
    84  H   1.0    0.04    1.06    1.44   412.89189   148.43419   214.89019
    85  H   1.0    0.05    1.06    1.44   408.79875   152.01522   216.38307
    86  H   1.0    0.05    1.06    1.44   411.50483   152.15884   217.64919
    87  H   1.0    0.05    1.06    1.44   410.34643   154.57580   216.31882
    88  N   5.0   -0.09    3.71    2.28   413.13756   151.79980   207.20656
    89  C   4.0    0.04    4.56    4.62   411.59932   152.70308   205.06361
    90  C   4.0    0.09    3.24    3.04   409.16913   153.93519   206.05383
    91  O   6.0   -0.29    1.14    1.80   407.94648   152.94308   207.70167
    92  C   4.0   -0.05    4.48    4.51   411.07398   150.30124   203.56695
    93  C   4.0   -0.04    4.47    4.49   411.25917   148.29624   205.49825
    94  C   4.0   -0.02    4.46    4.48   413.41913   149.04835   207.18199
    95  H   1.0    0.05    1.11    1.45   412.41757   153.98054   204.03560
    96  H   1.0    0.05    1.09    1.44   409.41669   150.33904   202.78649
    97  H   1.0    0.04    1.09    1.44   412.29474   150.06125   202.22146
    98  H   1.0    0.05    1.09    1.44   409.70014   148.15451   206.45067
    99  H   1.0    0.04    1.09    1.44   411.56530   146.66352   204.72535
   100  H   1.0    0.04    1.09    1.44   413.27740   148.32270   208.85818
   101  H   1.0    0.05    1.08    1.44   415.04051   148.52301   206.50736
   102  H   1.0    0.10    1.08    1.44   423.91943   149.31688   219.00005
   103  H   1.0    0.05    1.05    1.44   422.32599   142.55614   216.25163
   104  H   1.0    0.10    1.08    1.44   429.64589   144.28438   208.90248
   105  H   1.0    0.06    1.05    1.44   408.58194   155.58007   205.33230

  Z AO/shell   Hii/eV     exponent
  1     Wed Apr 25 08:07:45 CEST 2018   EN: 2.200 GM2: 0.406  GM3: 0.0800  RAES: 1.40
     1s    -10.707211    1.230000
  6     Wed Apr 25 08:07:45 CEST 2018   EN: 2.550 GM2: 0.538  GM3: 0.1500  RAES: 3.00
     2s    -13.970922    2.096432
     2p    -10.063292    1.800000
  7     Wed Apr 25 08:07:45 CEST 2018   EN: 3.040 GM2: 0.461  GM3:-0.0640  RAES: 1.90
     2s    -16.686243    2.339881
     2p    -12.523956    2.014332
  8     Wed Apr 25 08:07:45 CEST 2018   EN: 3.440 GM2: 0.452  GM3:-0.0517  RAES: 1.80
     2s    -20.229985    2.439742
     2p    -15.503117    2.137023
 no old-style atom pair restraining (fixing) potential

molecular fragmentation (1/2 indicates fragments):
111111111111111111111222222222222222222222222222222222222222222222222222
222222222222222222222222222221122
# atoms in fragment 1/2:    23    82
 fragment masses (1/2) :      165.19      540.66
CMA distance (Bohr)    :  11.504
constraining FC (au)   :  0.0500
           ------------------------------------------------- 
          |        Self-Consistent Charge Iterations        |
           ------------------------------------------------- 

 Ncao       : 255
 Nao        : 255
 Nshell     : 155
 Nel        : 280
 T(el)      :   500.0
 intcut     :    35.0
 scfconv/Eh :  0.100E-06
   qconv/e  :  0.100E-04
 intneglect :  0.100E-08
 broydamp   :      0.400
 iter      E             dE          RMSdq      gap      omega  full diag
   1   -160.2794948 -0.160279E+03  0.449E+00    3.44       0.0  T
   2   -160.6516696 -0.372175E+00  0.211E+00    2.33       1.0  T
   3   -160.6711546 -0.194850E-01  0.119E+00    2.31       1.0  T
   4   -160.6927091 -0.215545E-01  0.231E-01    1.83       1.0  T
   5   -160.6943307 -0.162166E-02  0.101E-01    1.94       1.0  T
   6   -160.6945171 -0.186385E-03  0.479E-02    1.96       1.0  T
   7   -160.6945798 -0.627189E-04  0.161E-02    1.96       1.0  T
   8   -160.6945847 -0.487204E-05  0.747E-03    1.96       1.3  T
   9   -160.6945856 -0.899573E-06  0.296E-03    1.96       3.3  T
  10   -160.6945858 -0.179092E-06  0.975E-04    1.96      10.0  T
  11   -160.6945858 -0.224998E-07  0.404E-04    1.96      24.1  T
  12   -160.6945858 -0.195880E-08  0.168E-04    1.96      58.1  T
  13   -160.6945858 -0.726118E-09  0.675E-05    1.96     144.5  T
  14   -160.6945858 -0.145320E-09  0.274E-05    1.96     356.2  T
speedup  1.00
cpu  time for SCC    0.23 s
wall time for SCC    0.23 s

   *** convergence criteria satisfied after 14 iterations ***

          eigenvalues
 #    :         128        129        130        131        132        133        134        135
 occ. :        2.000      2.000      2.000      2.000      2.000      2.000      2.000      2.000
 eps  :       -11.540    -11.506    -11.300    -11.162    -11.158    -11.121    -11.069    -11.013
 #    :         136        137        138        139        140        141        142        143
 occ. :        2.000      2.000      2.000      2.000      2.000      0.000      0.000      0.000
 eps  :       -10.870    -10.799    -10.508     -9.957     -9.712     -7.754     -7.667     -6.701
 #    :         144        145        146        147        148        149        150        151
 occ. :        0.000      0.000      0.000      0.000      0.000      0.000      0.000      0.000
 eps  :        -6.527     -6.349     -6.315     -6.150     -6.135     -5.887     -2.738     -1.033


   #   Z            q   n(s)   n(p)   n(d)      C6AA      α(0)
   1   7 N     -0.407  1.278  4.129  0.000    30.565     8.211
   2   6 C      0.035  1.023  2.942  0.000    19.991     6.367
   3   6 C      0.196  1.083  2.720  0.000    23.810     7.992
   4   8 O     -0.376  1.756  4.620  0.000    21.208     6.174
   5   6 C     -0.088  1.008  3.080  0.000    22.149     6.697
   6   6 C     -0.013  1.085  2.928  0.000    28.335     8.731
   7   6 C     -0.064  1.064  3.001  0.000    29.603     8.922
   8   6 C     -0.060  1.058  3.001  0.000    29.481     8.904
   9   6 C     -0.081  1.060  3.020  0.000    30.018     8.984
  10   6 C     -0.091  1.054  3.037  0.000    30.285     9.024
  11   6 C      0.139  1.050  2.811  0.000    24.972     8.190
  12   8 O     -0.447  1.680  4.768  0.000    21.784     6.301
  13   1 H      0.178  0.822  0.000  0.000     1.224     1.733
  14   1 H      0.074  0.926  0.000  0.000     2.036     2.231
  15   1 H      0.066  0.934  0.000  0.000     2.132     2.283
  16   1 H      0.065  0.935  0.000  0.000     2.143     2.289
  17   1 H      0.062  0.938  0.000  0.000     2.175     2.306
  18   1 H      0.071  0.929  0.000  0.000     2.078     2.254
  19   1 H      0.072  0.928  0.000  0.000     2.061     2.245
  20   1 H      0.072  0.928  0.000  0.000     2.067     2.248
  21   1 H      0.348  0.652  0.000  0.000     0.593     1.209
  22   7 N     -0.412  1.276  4.135  0.000    30.701     8.229
  23   6 C      0.027  1.030  2.943  0.000    20.120     6.388
  24   6 C      0.259  1.055  2.687  0.000    22.640     7.792
  25   8 O     -0.506  1.750  4.756  0.000    23.921     6.557
  26   6 C     -0.088  1.011  3.077  0.000    22.161     6.698
  27   6 C     -0.021  1.033  2.988  0.000    20.913     6.504
  28   6 C     -0.151  0.978  3.174  0.000    23.458     6.902
  29   6 C     -0.152  0.979  3.174  0.000    23.474     6.903
  30   1 H      0.189  0.811  0.000  0.000     1.166     1.691
  31   1 H      0.049  0.951  0.000  0.000     2.331     2.387
  32   1 H      0.054  0.946  0.000  0.000     2.270     2.356
  33   1 H      0.047  0.953  0.000  0.000     2.357     2.401
  34   1 H      0.049  0.951  0.000  0.000     2.326     2.385
  35   1 H      0.057  0.943  0.000  0.000     2.228     2.334
  36   1 H      0.054  0.946  0.000  0.000     2.271     2.356
  37   1 H      0.053  0.947  0.000  0.000     2.281     2.362
  38   1 H      0.054  0.946  0.000  0.000     2.267     2.354
  39   1 H      0.053  0.947  0.000  0.000     2.276     2.359
  40   1 H      0.047  0.953  0.000  0.000     2.361     2.403
  41   7 N     -0.183  1.212  3.970  0.000    24.955     7.419
  42   6 C      0.007  1.043  2.950  0.000    20.459     6.440
  43   6 C      0.267  1.044  2.689  0.000    22.495     7.768
  44   8 O     -0.497  1.759  4.738  0.000    23.711     6.529
  45   6 C      0.103  1.030  2.867  0.000    18.975     6.219
  46   8 O     -0.507  1.689  4.818  0.000    23.049     6.481
  47   6 C     -0.169  0.983  3.186  0.000    23.832     6.958
  48   1 H      0.223  0.777  0.000  0.000     0.996     1.563
  49   1 H      0.092  0.908  0.000  0.000     1.855     2.130
  50   1 H      0.061  0.939  0.000  0.000     2.187     2.313
  51   1 H      0.347  0.653  0.000  0.000     0.594     1.210
  52   1 H      0.081  0.919  0.000  0.000     1.966     2.192
  53   1 H      0.064  0.936  0.000  0.000     2.150     2.293
  54   1 H      0.077  0.923  0.000  0.000     2.007     2.215
  55   7 N     -0.182  1.210  3.973  0.000    24.953     7.419
  56   6 C     -0.051  1.011  3.040  0.000    21.544     6.617
  57   6 C      0.266  1.038  2.696  0.000    22.517     7.771
  58   8 O     -0.510  1.764  4.746  0.000    24.010     6.570
  59   1 H      0.230  0.770  0.000  0.000     0.965     1.539
  60   1 H      0.117  0.883  0.000  0.000     1.639     2.002
  61   1 H      0.119  0.881  0.000  0.000     1.621     1.991
  62   7 N     -0.162  1.198  3.964  0.000    24.510     7.353
  63   6 C     -0.040  0.998  3.042  0.000    21.323     6.582
  64   6 C      0.271  1.033  2.696  0.000    22.423     7.754
  65   8 O     -0.481  1.740  4.741  0.000    23.374     6.482
  66   1 H      0.220  0.780  0.000  0.000     1.007     1.572
  67   1 H      0.100  0.900  0.000  0.000     1.787     2.090
  68   1 H      0.092  0.908  0.000  0.000     1.857     2.131
  69   7 N     -0.174  1.210  3.964  0.000    24.766     7.391
  70   6 C      0.011  1.036  2.953  0.000    20.391     6.429
  71   6 C      0.258  1.046  2.696  0.000    22.664     7.796
  72   8 O     -0.522  1.765  4.757  0.000    24.269     6.605
  73   6 C     -0.096  1.014  3.082  0.000    22.310     6.722
  74   6 C     -0.023  1.032  2.991  0.000    20.953     6.510
  75   6 C     -0.158  0.979  3.179  0.000    23.601     6.923
  76   6 C     -0.152  0.977  3.174  0.000    23.463     6.903
  77   1 H      0.215  0.785  0.000  0.000     1.032     1.591
  78   1 H      0.093  0.907  0.000  0.000     1.849     2.127
  79   1 H      0.069  0.931  0.000  0.000     2.095     2.264
  80   1 H      0.059  0.941  0.000  0.000     2.205     2.322
  81   1 H      0.043  0.957  0.000  0.000     2.411     2.428
  82   1 H      0.064  0.936  0.000  0.000     2.148     2.292
  83   1 H      0.048  0.952  0.000  0.000     2.344     2.394
  84   1 H      0.062  0.938  0.000  0.000     2.176     2.307
  85   1 H      0.062  0.938  0.000  0.000     2.171     2.304
  86   1 H      0.060  0.940  0.000  0.000     2.197     2.318
  87   1 H      0.048  0.952  0.000  0.000     2.348     2.396
  88   7 N     -0.088  1.242  3.846  0.000    22.956     7.116
  89   6 C      0.016  1.041  2.943  0.000    20.287     6.408
  90   6 C      0.208  1.081  2.711  0.000    23.585     7.953
  91   8 O     -0.349  1.742  4.608  0.000    20.696     6.099
  92   6 C     -0.084  1.004  3.081  0.000    22.073     6.682
  93   6 C     -0.089  0.998  3.091  0.000    22.155     6.693
  94   6 C     -0.024  1.007  3.017  0.000    21.024     6.532
  95   1 H      0.083  0.917  0.000  0.000     1.951     2.184
  96   1 H      0.080  0.920  0.000  0.000     1.974     2.197
  97   1 H      0.085  0.915  0.000  0.000     1.925     2.169
  98   1 H      0.083  0.917  0.000  0.000     1.947     2.182
  99   1 H      0.087  0.913  0.000  0.000     1.904     2.158
 100   1 H      0.080  0.920  0.000  0.000     1.975     2.197
 101   1 H      0.079  0.921  0.000  0.000     1.985     2.203
 102   1 H      0.186  0.814  0.000  0.000     1.178     1.700
 103   1 H      0.067  0.933  0.000  0.000     2.122     2.278
 104   1 H      0.179  0.821  0.000  0.000     1.221     1.731
 105   1 H      0.066  0.934  0.000  0.000     2.132     2.283

 Mol. C6AA /au·bohr⁶  :     100155.834240
 Mol. C8AA /au·bohr⁸  :    2242373.334331
 Mol. α(0) /au        :        475.045700

 
molecular dipole:
                 x           y           z       tot (Debye)
 q only:       -0.394      -2.138      -1.166
   full:       -0.262      -2.003      -1.627       6.594
molecular quadrupole (traceless):
                xx          xy          yy          xz          yz          zz
 q only:      230.306   -1395.599    -265.429    -890.742    -946.282      35.124
  q+dip:      411.698   -1281.231    -181.910   -1152.466   -1007.987    -229.788
   full:      412.155   -1281.724    -183.862   -1150.945   -1008.866    -228.293
speedup  1.00
cpu  time for grad    0.36 s
wall time for grad    0.36 s

SCC energy    :    -160.6993199
rep           :       3.4624175
ES            :       0.3822000
AES           :       0.0053590
AXC           :       0.0250746
disp          :      -0.1182134
XB            :       0.0000000
fix           :       0.0000000
Gborn         :       0.0000000
Gsasa         :       0.0000000
Ghb           :       0.0000000
Gshift        :       0.0000000
Gsolv         :      -0.0629663      -39.51
Etot ala COSMO:    -160.6993199
grad norm     :       1.2927930
total E       :    -157.2316189
atomizationE  :      28.8052949    18075.60
(atE without considering molecular charge,
 total energy contains solvation terms)
H-L gap (eV)  :          1.9582

------------------------------------------------------------------------
 * finished run on 2019/03/07 at 11:37:45.586     
------------------------------------------------------------------------
 total:
 * wall-time:     0 d,  0 h,  0 min,  0.621 sec
 *  cpu-time:     0 d,  0 h,  0 min,  0.465 sec
 * ratio c/w:     0.748 speedup
 SCF:
 * wall-time:     0 d,  0 h,  0 min,  0.432 sec
 *  cpu-time:     0 d,  0 h,  0 min,  0.431 sec
 * ratio c/w:     0.996 speedup

