      -----------------------------------------------------------      
     |                   =====================                   |     
     |                           x T B                           |     
     |                   =====================                   |     
     |                         S. Grimme                         |     
     |          Mulliken Center for Theoretical Chemistry        |     
     |                    University of Bonn                     |     
     |                Version 6.1 RC1 (SAW190329)                |     
      -----------------------------------------------------------      

   This program is distributed in the hope that it will be useful,
   but WITHOUT ANY WARRANTY; without even the implied warranty of
   MERCHANTABILITY or FITNESS FOR A PARTICULAR PURPOSE.
   
   FOR NON-COMMERCIAL, ACADEMIA USE ONLY.
   
   Cite this work as:
   S. Grimme, C. Bannwarth, P. Shushkov, J. Comput. Theory Chem., 2017,
   13, 1989-2009. DOI: 10.1021/acs.jctc.7b00118
   C. Bannwarth, S. Ehlert and S. Grimme., J. Comput. Theory Chem., 2019,
   just accepted. DOI: 10.1021/acs.jctc.8b01176
   
   for sTDA-xTB:
   S. Grimme and C. Bannwarth, J. Chem. Phys., 2016, 145, 054103.
   DOI: 10.1063/1.4959605
   
   in the mass-spec context:
   V. Asgeirsson, C. Bauer and S. Grimme, Chem. Sci., 2017, 8, 4879.
   DOI: 10.1039/c7sc00601b
   
   for metadynamics refer to:
   S. Grimme, ChemRxiv, Preprint. DOI: 10.26434/chemrxiv.7660532.v1
   
   with help from (in alphabetical order)
   C. Bannwarth, F. Bohle, G. Brandenburg, E. Caldeweyher, M. Checinski,
   S. Dohm, S. Ehlert, S. Ehrlich, F. März, H. Neugebauer, J. Pisarek,
   P. Pracht, P. Shushkov, and S. Spicher.
   
 * started run on 2019/05/31 at 05:35:01.457     

           -------------------------------------------------
          |                Calculation Setup                |
           -------------------------------------------------

          program call               : /home/lum/install/xtb/xtb-190329/bin/xtb xtb_tmp.xyz --chrg -3 --grad --gfn 2 --etemp 500 --acc 0.1 --gbsa h2o --parallel 2
          hostname                   : cpu02
          coordinate file            : xtb_tmp.xyz
          omp threads                :                     2
          number of atoms            :                   287
          number of electrons        :                   804
          charge                     :                    -3
          spin                       :                   0.0
          first test random number   :      0.79863778589489


molecular fragmentation (1/2 indicates fragments):
111111111111112222222222222222222222222222222222222222222222222222222222
222222222222222222222222222222222222222222222222222222222222222222222222
222222222222222222222222222222222222222222222222222222222222222222222222
22222222222222222222222222222222222222222222222222222222211222222222222
# atoms in fragment 1/2:    16   271
 fragment masses (1/2) :      116.12     1911.11
CMA distance (Bohr)    :  22.805
constraining FC (au)   :  0.0500

########################################################################
# WARNING! Please study the warnings concerning your input carefully
#  - XTBPATH is not set, using XTBHOME instead
#  - Process number higher than OMP_NUM_THREADS, I hope you know what you are doing.
########################################################################

           ------------------------------------------------- 
          |                 G F N 2 - x T B                 |
          | Geometry, Frequencies, Noncovalent interactions |
          |            JCTC 2018 parametrisation            |
           ------------------------------------------------- 
 
             k(s)              :                1.8500
             k(p)              :                2.2300
             k(d)              :                2.2300
             k(f)              :                2.0000
             kEN (H0ij)        :               -2.0000
             D4 a1             :                0.5200
             D4 a2             :                5.0000
             D4 s6             :                1.0000
             D4 s8             :                2.7000
             D4 s9             :                5.0000
             alphaj            :                2.0000

  Z AO/shell   Hii/eV     exponent
  1     Wed Apr 25 08:07:45 CEST 2018   EN: 2.200 GM2: 0.406  GM3: 0.0800  RAES: 1.40
     1s    -10.707211    1.230000
  6     Wed Apr 25 08:07:45 CEST 2018   EN: 2.550 GM2: 0.538  GM3: 0.1500  RAES: 3.00
     2s    -13.970922    2.096432
     2p    -10.063292    1.800000
  7     Wed Apr 25 08:07:45 CEST 2018   EN: 3.040 GM2: 0.461  GM3:-0.0640  RAES: 1.90
     2s    -16.686243    2.339881
     2p    -12.523956    2.014332
  8     Wed Apr 25 08:07:45 CEST 2018   EN: 3.440 GM2: 0.452  GM3:-0.0517  RAES: 1.80
     2s    -20.229985    2.439742
     2p    -15.503117    2.137023

 Solvent             : h2o
 Using internal parameter file: .param_gbsa2_h2o
 Gsolv ref. state (COSMO-RS): gsolv [1 M gas/solution]
 temperature (mdtemp)       :    298.150000000000     
 dielectric constant        :    80.2000000000000     
 rho                        :    1.00000000000000     
 mass                       :    18.0000000000000     
 surface tension            :    15.5689454083859     
 probe radius               :   0.975313790000000     
 vdW radii scaling          :    1.00000000000000     
 Gshift (Eh)                :   1.857443126794793E-003
 c1                         :    1.55243817000000     
 soset                      :   0.130326360000000     
 HB correction              :  T
 Number of grid points      :          230

            Z     q(EN)     CN     RAES       Cart. coordinates
     1  N   5.0   -0.73    3.00    1.93   236.92423   112.40727   270.61531
     2  C   4.0    0.06    3.98    3.58   237.43117   112.07117   267.95416
     3  C   4.0    0.06    3.00    3.02   237.44928   114.67026   266.67899
     4  O   6.0   -0.50    1.00    1.80   239.15893   115.21525   265.21348
     5  C   4.0   -0.11    3.99    3.60   235.48235   110.37944   266.65570
     6  C   4.0    0.26    2.99    3.02   235.45236   107.64327   267.55779
     7  O   6.0   -0.44    1.00    1.80   233.50398   106.59771   268.20666
     8  N   5.0   -0.66    3.00    1.93   237.68911   106.45825   267.54146
     9  H   1.0    0.26    1.00    1.43   235.54514   111.32859   271.41985
    10  H   1.0    0.12    0.99    1.43   239.35083   111.31852   267.69854
    11  H   1.0    0.10    0.99    1.43   233.60205   111.17959   266.93325
    12  H   1.0    0.10    0.99    1.43   235.88784   110.36790   264.63105
    13  H   1.0    0.27    1.00    1.43   237.76428   104.61824   268.02606
    14  H   1.0    0.25    1.00    1.43   239.24860   107.25705   266.80874
    15  N   5.0   -0.73    3.00    1.93   242.57061   117.79044   262.58043
    16  C   4.0    0.06    3.98    3.59   242.04806   118.60550   260.04129
    17  C   4.0    0.06    3.00    3.02   242.71036   121.37932   259.63744
    18  O   6.0   -0.43    1.00    1.80   243.04974   122.17138   257.47541
    19  C   4.0   -0.13    3.99    3.60   239.27667   118.19379   259.31847
    20  C   4.0   -0.10    3.98    3.58   238.43363   115.42220   259.30219
    21  C   4.0   -0.24    3.98    3.59   235.59172   115.31485   258.80358
    22  C   4.0   -0.21    3.98    3.59   239.85091   113.85816   257.33828
    23  H   1.0    0.32    1.00    1.43   241.06326   117.63882   263.75968
    24  H   1.0    0.11    0.99    1.43   243.26951   117.56135   258.73703
    25  H   1.0    0.10    0.99    1.43   238.12342   119.26269   260.65478
    26  H   1.0    0.11    0.99    1.43   239.01193   119.00927   257.44090
    27  H   1.0    0.15    0.99    1.43   238.81920   114.62370   261.16718
    28  H   1.0    0.10    0.99    1.43   234.95310   113.36625   258.70765
    29  H   1.0    0.09    0.99    1.43   234.54961   116.27565   260.29044
    30  H   1.0    0.10    0.99    1.43   235.16149   116.23187   257.01569
    31  H   1.0    0.12    0.99    1.43   239.09140   111.95120   257.26160
    32  H   1.0    0.13    0.99    1.43   239.69565   114.67361   255.45855
    33  H   1.0    0.11    0.99    1.43   241.84857   113.70291   257.79078
    34  N   5.0   -0.70    3.00    1.93   248.91778   119.61512   258.39429
    35  C   4.0    0.07    3.98    3.58   249.04151   118.46017   255.91303
    36  C   4.0    0.09    3.00    3.02   248.59411   120.42912   253.84942
    37  O   6.0   -0.48    1.00    1.80   249.60254   120.17461   251.77783
    38  C   4.0   -0.20    3.98    3.59   247.19821   116.26426   255.64371
    39  H   1.0    0.26    1.00    1.43   247.92562   118.65236   259.74997
    40  H   1.0    0.13    0.99    1.43   250.97451   117.76580   255.60004
    41  H   1.0    0.13    0.99    1.43   247.74796   115.12293   254.02701
    42  H   1.0    0.10    0.99    1.43   247.27721   115.09935   257.33339
    43  H   1.0    0.12    0.99    1.43   245.28668   116.94911   255.33170
    44  N   5.0   -0.69    3.00    1.93   254.46189   123.27730   252.73806
    45  C   4.0    0.08    3.98    3.59   255.91737   121.49012   251.26083
    46  C   4.0    0.27    3.01    3.02   255.14860   121.56839   248.47068
    47  O   6.0   -0.43    1.00    1.80   256.72311   121.39502   246.76603
    48  C   4.0   -0.10    3.99    3.61   255.46393   118.78497   252.16565
    49  C   4.0    0.26    2.99    3.02   256.27664   118.26909   254.87996
    50  O   6.0   -0.44    1.00    1.80   257.25473   119.80611   256.28129
    51  N   5.0   -0.67    3.01    1.93   255.74414   115.89302   255.62947
    52  H   1.0    0.28    1.00    1.43   253.79782   122.66782   254.43475
    53  H   1.0    0.11    0.99    1.43   257.93188   121.99621   251.37492
    54  H   1.0    0.14    0.99    1.43   253.45254   118.36014   251.96154
    55  H   1.0    0.10    0.99    1.43   256.51445   117.51616   250.92313
    56  H   1.0    0.27    1.00    1.43   256.36489   115.30585   257.33186
    57  H   1.0    0.26    1.00    1.43   255.02087   114.62014   254.41572
    58  N   5.0   -0.48    3.01    1.93   252.67679   121.65094   248.04566
    59  C   4.0    0.07    3.99    3.60   251.62915   121.67405   245.51798
    60  C   4.0    0.08    3.00    3.02   252.59657   124.00842   244.12626
    61  O   6.0   -0.42    1.00    1.80   253.31108   123.90246   241.92118
    62  C   4.0   -0.21    3.99    3.59   248.75566   121.71166   245.63424
    63  H   1.0    0.31    1.00    1.43   251.42209   121.57920   249.50591
    64  H   1.0    0.14    0.99    1.43   252.29273   120.01292   244.46491
    65  H   1.0    0.10    0.99    1.43   247.99357   121.55550   243.73502
    66  H   1.0    0.12    0.99    1.43   248.08838   120.13304   246.76490
    67  H   1.0    0.11    0.99    1.43   248.11530   123.47863   246.46381
    68  N   5.0   -0.71    3.00    1.93   261.96645   104.53757   241.41644
    69  C   4.0    0.08    3.98    3.59   259.51260   103.59660   242.19739
    70  C   4.0    0.28    3.01    3.02   258.50669   105.37662   244.24042
    71  O   6.0   -0.45    1.00    1.80   259.19884   105.21650   246.44886
    72  C   4.0    0.05    3.98    3.58   259.83385   100.89878   243.24768
    73  O   6.0   -0.50    1.99    1.82   261.71580   100.86351   245.12378
    74  C   4.0   -0.21    3.98    3.59   260.56415    99.06578   241.14941
    75  H   1.0    0.27    1.00    1.43   263.45073   103.73872   242.32221
    76  H   1.0    0.13    0.99    1.43   258.23374   103.58109   240.57355
    77  H   1.0    0.11    0.99    1.43   257.99571   100.31550   244.04381
    78  H   1.0    0.29    0.99    1.43   261.24523   102.10188   246.40921
    79  H   1.0    0.10    0.99    1.43   260.84131    97.19186   241.93653
    80  H   1.0    0.12    0.99    1.43   259.07070    98.98974   239.73897
    81  H   1.0    0.10    0.99    1.43   262.30686    99.66519   240.23750
    82  N   5.0   -0.49    3.01    1.93   256.95397   107.19625   243.44244
    83  C   4.0    0.08    4.00    3.62   256.12089   109.21103   245.11111
    84  C   4.0    0.28    3.01    3.02   253.58012   108.49399   246.29503
    85  O   6.0   -0.47    1.00    1.80   251.59247   108.52890   245.10916
    86  C   4.0   -0.08    3.98    3.59   255.84076   111.73593   243.70222
    87  C   4.0   -0.15    3.98    3.58   258.23475   112.42879   242.22458
    88  C   4.0   -0.22    3.98    3.59   255.06049   113.79472   245.57302
    89  C   4.0   -0.23    3.98    3.58   260.56000   112.95374   243.84037
    90  H   1.0    0.28    1.00    1.43   256.26014   107.20671   241.65852
    91  H   1.0    0.12    0.99    1.43   257.54473   109.36028   246.60560
    92  H   1.0    0.14    0.99    1.43   254.32701   111.47683   242.31784
    93  H   1.0    0.12    0.99    1.43   258.64585   110.90406   240.89345
    94  H   1.0    0.10    0.99    1.43   257.81843   114.11148   241.10805
    95  H   1.0    0.11    0.99    1.43   254.94560   115.60746   244.61426
    96  H   1.0    0.13    0.99    1.43   253.22484   113.36205   246.38924
    97  H   1.0    0.11    0.99    1.43   256.42389   113.94849   247.10068
    98  H   1.0    0.09    0.99    1.43   262.13263   113.46441   242.62067
    99  H   1.0    0.10    0.99    1.43   260.22061   114.51821   245.12414
   100  H   1.0    0.11    0.99    1.43   261.10321   111.29334   244.92376
   101  N   5.0   -0.49    3.01    1.93   253.66388   107.87071   248.74210
   102  C   4.0    0.08    3.99    3.61   251.38471   107.22461   250.13300
   103  C   4.0    0.29    3.01    3.02   249.64287   109.55849   250.17308
   104  O   6.0   -0.43    1.00    1.80   250.38728   111.57504   251.01809
   105  C   4.0   -0.14    3.98    3.59   252.08271   106.46892   252.82893
   106  C   4.0   -0.11    3.99    3.60   249.78561   105.55365   254.30716
   107  C   4.0    0.29    3.00    3.02   248.71675   103.08175   253.29647
   108  O   6.0   -0.41    1.00    1.80   249.91838   101.60995   251.97348
   109  N   5.0   -0.63    3.01    1.93   246.35626   102.63729   254.07369
   110  H   1.0    0.24    1.00    1.43   255.33838   107.69916   249.63695
   111  H   1.0    0.14    0.99    1.43   250.42250   105.65548   249.18233
   112  H   1.0    0.12    0.99    1.43   253.46823   104.94281   252.74678
   113  H   1.0    0.11    0.99    1.43   252.89802   108.10729   253.77672
   114  H   1.0    0.11    0.99    1.43   250.32843   105.19966   256.26663
   115  H   1.0    0.14    0.99    1.43   248.28692   106.96845   254.31474
   116  H   1.0    0.32    1.00    1.43   245.40865   103.96623   255.06749
   117  H   1.0    0.34    1.00    1.43   245.44822   101.02829   253.58111
   118  N   5.0   -0.49    3.00    1.93   247.31978   109.15863   249.26881
   119  C   4.0    0.08    3.99    3.61   245.39654   111.09059   249.19608
   120  C   4.0    0.27    3.01    3.02   243.03381   110.44930   250.73080
   121  O   6.0   -0.45    1.00    1.80   241.69725   112.14343   251.55348
   122  C   4.0   -0.09    3.98    3.58   244.59571   111.81299   246.47848
   123  C   4.0   -0.22    3.98    3.59   246.86796   112.84291   245.03780
   124  C   4.0   -0.21    3.98    3.59   243.38304   109.61720   245.05446
   125  H   1.0    0.28    1.00    1.43   246.88418   107.44366   248.54303
   126  H   1.0    0.14    0.99    1.43   246.22856   112.77338   250.07497
   127  H   1.0    0.11    0.99    1.43   243.18422   113.31211   246.68892
   128  H   1.0    0.09    0.99    1.43   246.29218   113.43384   243.16000
   129  H   1.0    0.11    0.99    1.43   247.67847   114.44734   246.03350
   130  H   1.0    0.15    0.99    1.43   248.31244   111.39121   244.85311
   131  H   1.0    0.09    0.99    1.43   242.76108   110.25520   243.20438
   132  H   1.0    0.13    0.99    1.43   244.71783   108.07903   244.77537
   133  H   1.0    0.12    0.99    1.43   241.75369   108.88583   246.07087
   134  N   5.0   -0.48    3.00    1.93   242.45389   107.99270   250.97567
   135  C   4.0    0.02    4.00    3.62   240.36673   107.18634   252.52691
   136  C   4.0    0.27    3.01    3.02   241.25109   106.30965   255.12221
   137  O   6.0   -0.43    1.00    1.80   243.39065   106.72250   255.91461
   138  H   1.0    0.28    1.00    1.43   243.62055   106.63242   250.31258
   139  H   1.0    0.13    0.99    1.43   239.12564   108.82379   252.77391
   140  H   1.0    0.12    0.99    1.43   239.33416   105.64172   251.63053
   141  N   5.0   -0.50    3.01    1.93   239.45601   105.15812   256.48422
   142  C   4.0    0.07    3.99    3.61   239.95690   104.15740   258.97446
   143  C   4.0    0.28    3.01    3.02   241.22130   101.54846   259.01524
   144  O   6.0   -0.41    1.00    1.80   242.59068   100.95350   260.78463
   145  C   4.0   -0.20    3.99    3.60   237.48604   103.94303   260.44894
   146  H   1.0    0.26    1.00    1.43   237.94056   104.45600   255.55179
   147  H   1.0    0.14    0.99    1.43   241.27065   105.45878   259.90546
   148  H   1.0    0.12    0.99    1.43   237.86388   103.18544   262.31746
   149  H   1.0    0.10    0.99    1.43   236.59112   105.78233   260.60877
   150  H   1.0    0.13    0.99    1.43   236.22172   102.65149   259.47173
   151  N   5.0   -0.46    3.00    1.93   240.59930    99.98464   257.13042
   152  C   4.0    0.09    4.00    3.62   241.31909    97.35629   257.18887
   153  C   4.0    0.29    3.01    3.02   243.32375    96.69263   255.22520
   154  O   6.0   -0.43    1.00    1.80   243.67449    97.94810   253.28903
   155  C   4.0   -0.09    3.99    3.61   239.02877    95.64180   256.67561
   156  C   4.0    0.28    3.00    3.02   236.80385    96.42422   258.33363
   157  O   6.0   -0.41    1.00    1.80   236.78305    96.07884   260.62022
   158  N   5.0   -0.65    3.00    1.93   234.91317    97.51904   257.07847
   159  H   1.0    0.31    1.00    1.43   239.57792   100.60282   255.60460
   160  H   1.0    0.15    0.99    1.43   242.07080    96.98202   259.08316
   161  H   1.0    0.14    0.99    1.43   238.50017    95.76309   254.68835
   162  H   1.0    0.12    0.99    1.43   239.55831    93.70092   257.11523
   163  H   1.0    0.27    1.00    1.43   233.35862    98.05617   258.03845
   164  H   1.0    0.32    1.00    1.43   235.00952    97.79791   255.15985
   165  N   5.0   -0.47    3.01    1.93   244.58473    94.59105   255.72891
   166  C   4.0    0.08    3.99    3.61   246.39477    93.51334   253.98929
   167  C   4.0    0.28    3.01    3.02   245.22000    93.41357   251.35262
   168  O   6.0   -0.41    1.00    1.80   243.07010    92.65722   250.99651
   169  C   4.0   -0.11    3.98    3.59   246.97690    90.80336   254.81047
   170  C   4.0    0.31    2.99    3.02   247.68937    90.66728   257.67994
   171  O   6.0   -0.42    1.00    1.80   249.79679    89.80917   258.21185
   172  O   6.0   -0.43    1.00    1.80   246.03753    91.41895   259.20287
   173  H   1.0    0.29    1.00    1.43   244.50902    93.62293   257.42438
   174  H   1.0    0.13    0.99    1.43   248.12753    94.66053   253.96809
   175  H   1.0    0.12    0.99    1.43   245.28461    89.65683   254.52276
   176  H   1.0    0.10    0.99    1.43   248.53149    90.03934   253.69922
   177  N   5.0   -0.51    3.00    1.93   246.79531    94.03578   249.45100
   178  C   4.0    0.02    3.99    3.61   245.98731    93.96923   246.85079
   179  C   4.0    0.26    3.01    3.02   245.02937    96.48466   245.81520
   180  O   6.0   -0.44    1.00    1.80   244.98776    96.89053   243.53523
   181  H   1.0    0.24    1.00    1.43   248.47475    94.84720   249.83990
   182  H   1.0    0.11    0.99    1.43   247.52068    93.30785   245.63958
   183  H   1.0    0.13    0.99    1.43   244.41257    92.62870   246.73511
   184  N   5.0   -0.47    3.01    1.93   244.20613    98.14882   247.52417
   185  C   4.0    0.07    4.00    3.62   243.02159   100.50642   246.77857
   186  C   4.0    0.28    3.01    3.02   245.08178   102.51724   246.42277
   187  O   6.0   -0.48    1.00    1.80   245.43812   104.22714   247.95336
   188  C   4.0   -0.12    3.98    3.59   241.07104   101.31019   248.73525
   189  C   4.0   -0.10    3.98    3.58   238.94598    99.39024   249.00630
   190  C   4.0    0.31    2.99    3.02   237.41818    99.72429   251.46910
   191  O   6.0   -0.48    1.00    1.80   237.92277   101.55292   252.87520
   192  O   6.0   -0.47    1.00    1.80   235.77473    98.09266   251.92518
   193  H   1.0    0.30    1.00    1.43   244.24064    97.76432   249.39988
   194  H   1.0    0.13    0.99    1.43   242.12635   100.18332   244.93499
   195  H   1.0    0.16    0.99    1.43   242.01214   101.52565   250.55938
   196  H   1.0    0.11    0.99    1.43   240.31003   103.14465   248.18340
   197  H   1.0    0.10    0.99    1.43   237.64343    99.47196   247.40907
   198  H   1.0    0.14    0.99    1.43   239.71051    97.47220   249.08990
   199  N   5.0   -0.48    3.01    1.93   246.40515   102.23721   244.30480
   200  C   4.0    0.10    3.99    3.60   248.44100   103.86882   243.53563
   201  C   4.0    0.28    3.01    3.02   247.86988   104.92661   240.90077
   202  O   6.0   -0.40    1.00    1.80   246.47426   103.82976   239.42679
   203  C   4.0    0.05    3.98    3.58   251.00498   102.42594   243.38340
   204  O   6.0   -0.44    1.99    1.82   251.10989   100.98018   241.14631
   205  C   4.0   -0.17    3.98    3.58   251.34743   100.67685   245.66366
   206  H   1.0    0.30    1.00    1.43   246.04153   100.76392   243.13227
   207  H   1.0    0.14    0.99    1.43   248.62610   105.40228   244.90483
   208  H   1.0    0.13    0.99    1.43   252.50414   103.86397   243.37809
   209  H   1.0    0.32    0.99    1.43   252.53397   101.53891   240.08498
   210  H   1.0    0.11    0.99    1.43   253.29565   100.03231   245.74411
   211  H   1.0    0.14    0.99    1.43   250.87561   101.60472   247.43339
   212  H   1.0    0.15    0.99    1.43   250.13280    99.03557   245.43036
   213  N   5.0   -0.50    3.01    1.93   248.97998   107.15172   240.39378
   214  C   4.0    0.07    4.00    3.62   249.38801   107.97898   237.81753
   215  C   4.0    0.28    3.02    3.02   252.24080   107.91660   237.42594
   216  O   6.0   -0.46    1.00    1.80   253.67985   108.71912   239.04847
   217  C   4.0   -0.08    3.98    3.58   248.23391   110.61439   237.37284
   218  C   4.0   -0.16    3.98    3.59   245.35329   110.32573   237.33166
   219  C   4.0   -0.22    3.98    3.59   249.26467   111.76978   234.94155
   220  C   4.0   -0.25    3.98    3.58   243.93875   112.82536   237.48961
   221  H   1.0    0.29    1.00    1.43   250.24118   107.85106   241.65787
   222  H   1.0    0.13    0.99    1.43   248.48582   106.59007   236.57632
   223  H   1.0    0.12    0.99    1.43   248.78540   111.81256   238.96288
   224  H   1.0    0.10    0.99    1.43   244.82052   109.31495   235.61575
   225  H   1.0    0.13    0.99    1.43   244.80896   109.13486   238.92574
   226  H   1.0    0.10    0.99    1.43   248.39518   113.59691   234.59795
   227  H   1.0    0.13    0.99    1.43   251.29849   112.04134   235.07811
   228  H   1.0    0.10    0.99    1.43   248.91569   110.52292   233.34455
   229  H   1.0    0.09    0.99    1.43   241.91680   112.47342   237.42116
   230  H   1.0    0.09    0.99    1.43   244.37226   113.77795   239.25533
   231  H   1.0    0.09    0.99    1.43   244.43529   114.07661   235.94121
   232  N   5.0   -0.46    3.01    1.93   253.03659   106.91708   235.24575
   233  C   4.0    0.07    3.99    3.61   255.69077   106.49934   234.79613
   234  C   4.0    0.04    3.00    3.02   256.62537   108.29524   232.74549
   235  O   6.0   -0.43    1.00    1.80   255.29267   108.94558   230.97211
   236  C   4.0   -0.11    3.98    3.58   256.24883   103.76307   234.10354
   237  C   4.0    0.30    2.99    3.02   255.67286   101.88910   236.31132
   238  O   6.0   -0.46    1.00    1.80   254.92164   102.82364   238.35177
   239  O   6.0   -0.44    1.00    1.80   256.02963    99.61746   235.87169
   240  H   1.0    0.24    1.00    1.43   251.80866   106.22267   233.96874
   241  H   1.0    0.14    0.99    1.43   256.65223   106.93373   236.57264
   242  H   1.0    0.11    0.99    1.43   255.16601   103.15969   232.45151
   243  H   1.0    0.09    0.99    1.43   258.24976   103.54693   233.63867
   244  N   5.0   -0.73    3.00    1.93   243.69779   119.68882   233.75656
   245  C   4.0    0.06    3.98    3.58   243.78743   120.65603   236.31474
   246  C   4.0    0.05    3.00    3.02   241.61411   122.51418   236.73527
   247  O   6.0   -0.44    1.00    1.80   240.31739   122.41845   238.65079
   248  C   4.0   -0.13    3.99    3.60   246.27783   121.99832   236.91742
   249  C   4.0   -0.03    3.03    3.02   248.44502   120.26084   237.53990
   250  C   4.0   -0.09    3.04    3.02   250.73934   120.51952   236.29811
   251  C   4.0   -0.11    3.03    3.02   248.24852   118.47130   239.45414
   252  C   4.0   -0.10    3.03    3.02   252.79198   119.03133   236.94075
   253  C   4.0   -0.11    3.03    3.02   250.28825   116.96336   240.08611
   254  C   4.0   -0.10    3.03    3.02   252.56409   117.23491   238.82567
   255  H   1.0    0.24    1.00    1.43   245.12631   120.11407   232.55213
   256  H   1.0    0.11    0.99    1.43   243.47050   119.07820   237.62337
   257  H   1.0    0.09    0.99    1.43   246.76717   123.20107   235.31653
   258  H   1.0    0.11    0.99    1.43   245.94062   123.21161   238.55778
   259  H   1.0    0.10    1.00    1.43   250.92405   121.89461   234.80133
   260  H   1.0    0.10    1.00    1.43   246.48935   118.25438   240.46517
   261  H   1.0    0.10    1.00    1.43   254.56801   119.27278   235.96487
   262  H   1.0    0.10    1.00    1.43   250.12343   115.57519   241.57146
   263  H   1.0    0.11    0.99    1.43   254.14266   116.02694   239.29226
   264  N   5.0   -0.69    3.00    1.93   236.02110   118.65386   237.95793
   265  C   4.0    0.06    3.98    3.58   236.13898   117.54934   240.47021
   266  C   4.0    0.08    3.00    3.02   235.27632   119.49208   242.43379
   267  O   6.0   -0.44    1.00    1.80   233.57985   119.00915   243.93631
   268  C   4.0   -0.22    3.98    3.59   238.81691   116.65831   241.02408
   269  H   1.0    0.26    1.00    1.43   237.59629   118.51813   236.85794
   270  H   1.0    0.11    0.99    1.43   234.80855   115.96129   240.58585
   271  H   1.0    0.10    0.99    1.43   238.89731   115.81510   242.89450
   272  H   1.0    0.09    0.99    1.43   239.36863   115.25777   239.63034
   273  H   1.0    0.13    0.99    1.43   240.11298   118.24896   240.95086
   274  H   1.0    0.29    1.00    1.43   238.32960   112.06243   271.50894
   275  H   1.0    0.12    1.00    1.43   236.07167   115.91130   267.04377
   276  H   1.0    0.30    1.00    1.43   243.28880   116.24916   262.54548
   277  H   1.0    0.13    1.00    1.43   242.86600   122.53929   261.12112
   278  H   1.0    0.29    1.00    1.43   250.49083   119.79788   259.01451
   279  H   1.0    0.15    1.00    1.43   247.48244   121.91886   254.18991
   280  H   1.0    0.29    1.00    1.43   255.41878   124.64003   253.08431
   281  H   1.0    0.13    1.00    1.43   252.65975   125.67719   245.01071
   282  H   1.0    0.28    1.00    1.43   262.18560   104.24211   239.75594
   283  H   1.0    0.10    1.00    1.43   258.38340   108.98407   232.82223
   284  H   1.0    0.28    1.00    1.43   243.66340   117.98881   233.79324
   285  H   1.0    0.12    1.00    1.43   241.23358   123.83274   235.43617
   286  H   1.0    0.27    1.00    1.43   234.78153   117.90505   237.06614
   287  H   1.0    0.14    1.00    1.43   236.10008   121.19123   242.50706

           ------------------------------------------------- 
          |        Self-Consistent Charge Iterations        |
           ------------------------------------------------- 

          ...................................................
          :                      SETUP                      :
          :.................................................:
          :  # basis functions                 713          :
          :  # atomic orbitals                 713          :
          :  # shells                          429          :
          :  # electrons                       804          :
          :  max. iterations                   250          :
          :  Hamiltonian                  GFN2-xTB          :
          :  restarted?                      false          :
          :  GBSA solvation                   true          :
          :  PC potential                    false          :
          :  electronic temp.          500.0000000     K    :
          :  accuracy                    0.1000000          :
          :  -> integral cutoff          0.3500000E+02      :
          :  -> integral neglect         0.1000000E-08      :
          :  -> SCF convergence          0.1000000E-06 Eh   :
          :  -> wf. convergence          0.1000000E-04 e    :
          :  Broyden damping             0.4000000          :
          ...................................................

 iter      E             dE          RMSdq      gap      omega  full diag
   1   -463.7006143 -0.463701E+03  0.445E+00    2.13       0.0  T
   2   -464.9489477 -0.124833E+01  0.223E+00    1.58       1.0  T
   3   -464.9940915 -0.451438E-01  0.124E+00    1.92       1.0  T
   4   -465.0165300 -0.224385E-01  0.282E-01    1.40       1.0  T
   5   -465.0291633 -0.126333E-01  0.113E-01    1.50       1.0  T
   6   -465.0294764 -0.313019E-03  0.466E-02    1.46       1.0  T
   7   -465.0295519 -0.755852E-04  0.211E-02    1.44       1.0  T
   8   -465.0295813 -0.293732E-04  0.865E-03    1.44       1.0  T
   9   -465.0295862 -0.486349E-05  0.406E-03    1.43       1.5  T
  10   -465.0295872 -0.100818E-05  0.163E-03    1.43       3.6  T
  11   -465.0295873 -0.106600E-06  0.640E-04    1.43       9.2  T
  12   -465.0295873 -0.195658E-07  0.306E-04    1.43      19.3  T
  13   -465.0295873 -0.809905E-08  0.133E-04    1.43      44.4  T
  14   -465.0295873 -0.925127E-09  0.615E-05    1.43      96.0  T
  15   -465.0295873 -0.255852E-09  0.241E-05    1.43     245.1  T

   *** convergence criteria satisfied after 15 iterations ***

         #    Occupation            Energy/Eh            Energy/eV
      -------------------------------------------------------------
         1        2.0000           -0.7401546             -20.1406
       ...           ...                  ...                  ...
       396        2.0000           -0.3750069             -10.2045
       397        2.0000           -0.3733864             -10.1604
       398        2.0000           -0.3670821              -9.9888
       399        2.0000           -0.3634075              -9.8888
       400        2.0000           -0.3622172              -9.8564
       401        2.0000           -0.3599704              -9.7953
       402        2.0000           -0.3499390              -9.5223 (HOMO)
       403        0.0000           -0.2974793              -8.0948 (LUMO)
       404                         -0.2904703              -7.9041
       405                         -0.2848368              -7.7508
       406                         -0.2780167              -7.5652
       407                         -0.2749179              -7.4809
       ...                                ...                  ...
       713                          0.6747221              18.3601
      -------------------------------------------------------------
                  HL-Gap            0.0524598 Eh            1.4275 eV
             Fermi-level           -0.3237169 Eh           -8.8088 eV

 SCC (total)                   0 d,  0 h,  0 min,  3.446 sec
 SCC setup                      ...        0 min,  0.042 sec (  1.231%)
 Dispersion                     ...        0 min,  0.037 sec (  1.064%)
 integral evaluation            ...        0 min,  0.116 sec (  3.369%)
 zeroth order Hamiltonian       ...        0 min,  0.002 sec (  0.058%)
 iterations                     ...        0 min,  2.811 sec ( 81.570%)
 molecular gradient             ...        0 min,  0.425 sec ( 12.337%)
 printout                       ...        0 min,  0.013 sec (  0.370%)

         :::::::::::::::::::::::::::::::::::::::::::::::::::::
         ::                     SUMMARY                     ::
         :::::::::::::::::::::::::::::::::::::::::::::::::::::
         :: total energy             -459.552345898369 Eh   ::
         :: total w/o Gsasa/hb       -459.504398431968 Eh   ::
         :: gradient norm               0.590219600951 Eh/α ::
         :: HOMO-LUMO gap               1.427502776827 eV   ::
         ::.................................................::
         :: SCC energy               -465.036751147613 Eh   ::
         :: -> isotropic ES             1.780181887813 Eh   ::
         :: -> anisotropic ES          -0.043242359590 Eh   ::
         :: -> anisotropic XC           0.131569944396 Eh   ::
         :: -> dispersion              -0.364639314701 Eh   ::
         :: -> Gsolv                   -0.513940005438 Eh   ::
         ::    -> Gborn                -0.465992539037 Eh   ::
         ::    -> Gsasa                -0.009021273106 Eh   ::
         ::    -> Ghb                  -0.040783636422 Eh   ::
         ::    -> Gshift                0.001857443127 Eh   ::
         :: repulsion energy            5.455473237468 Eh   ::
         :: add. restraining            0.000000000000 Eh   ::
         :::::::::::::::::::::::::::::::::::::::::::::::::::::

           -------------------------------------------------
          |                Property Printout                |
           -------------------------------------------------

    * Orbital Energies and Occupations

         #    Occupation            Energy/Eh            Energy/eV
      -------------------------------------------------------------
         1        2.0000           -0.7401546             -20.1406
       ...           ...                  ...                  ...
       390        2.0000           -0.3949854             -10.7481
       391        2.0000           -0.3924899             -10.6802
       392        2.0000           -0.3908400             -10.6353
       393        2.0000           -0.3829946             -10.4218
       394        2.0000           -0.3818558             -10.3908
       395        2.0000           -0.3765737             -10.2471
       396        2.0000           -0.3750069             -10.2045
       397        2.0000           -0.3733864             -10.1604
       398        2.0000           -0.3670821              -9.9888
       399        2.0000           -0.3634075              -9.8888
       400        2.0000           -0.3622172              -9.8564
       401        2.0000           -0.3599704              -9.7953
       402        2.0000           -0.3499390              -9.5223 (HOMO)
       403        0.0000           -0.2974793              -8.0948 (LUMO)
       404                         -0.2904703              -7.9041
       405                         -0.2848368              -7.7508
       406                         -0.2780167              -7.5652
       407                         -0.2749179              -7.4809
       408                         -0.2740211              -7.4565
       409                         -0.2691679              -7.3244
       410                         -0.2476107              -6.7378
       411                         -0.2436358              -6.6297
       412                         -0.2389531              -6.5022
       413                         -0.2378904              -6.4733
       ...                                ...                  ...
       713                          0.6747221              18.3601
      -------------------------------------------------------------
                  HL-Gap            0.0524598 Eh            1.4275 eV
             Fermi-level           -0.3237169 Eh           -8.8088 eV

   #   Z        covCN         q      C6AA      α(0)
   1   7 N      2.636    -0.382    29.873     8.117
   2   6 C      3.782     0.042    19.881     6.352
   3   6 C      2.768     0.194    23.863     8.000
   4   8 O      0.856    -0.356    20.825     6.118
   5   6 C      3.809    -0.104    22.473     6.748
   6   6 C      2.742     0.295    21.996     7.679
   7   8 O      0.859    -0.493    23.627     6.517
   8   7 N      2.638    -0.279    27.222     7.749
   9   1 H      0.860     0.168     1.284     1.775
  10   1 H      0.923     0.051     2.305     2.374
  11   1 H      0.924     0.086     1.916     2.165
  12   1 H      0.924     0.070     2.089     2.260
  13   1 H      0.860     0.222     0.999     1.565
  14   1 H      0.860     0.221     1.007     1.572
  15   7 N      2.635    -0.405    30.499     8.202
  16   6 C      3.783     0.038    19.953     6.363
  17   6 C      2.768     0.194    23.850     7.998
  18   8 O      0.856    -0.387    21.422     6.205
  19   6 C      3.811    -0.066    21.760     6.640
  20   6 C      3.849    -0.010    20.718     6.474
  21   6 C      3.758    -0.115    22.760     6.802
  22   6 C      3.755    -0.105    22.556     6.772
  23   1 H      0.860     0.191     1.152     1.681
  24   1 H      0.924     0.055     2.261     2.352
  25   1 H      0.924     0.047     2.362     2.403
  26   1 H      0.924     0.040     2.448     2.447
  27   1 H      0.924     0.047     2.358     2.401
  28   1 H      0.925     0.036     2.501     2.473
  29   1 H      0.925     0.044     2.398     2.422
  30   1 H      0.925     0.042     2.427     2.436
  31   1 H      0.925     0.023     2.684     2.562
  32   1 H      0.925     0.043     2.405     2.425
  33   1 H      0.925     0.026     2.651     2.546
  34   7 N      2.634    -0.385    29.950     8.128
  35   6 C      3.781     0.046    19.817     6.342
  36   6 C      2.766     0.197    23.797     7.989
  37   8 O      0.856    -0.360    20.889     6.128
  38   6 C      3.755    -0.109    22.639     6.784
  39   1 H      0.859     0.161     1.326     1.804
  40   1 H      0.923     0.043     2.411     2.428
  41   1 H      0.925     0.051     2.309     2.376
  42   1 H      0.925     0.058     2.226     2.333
  43   1 H      0.925     0.057     2.240     2.341
  44   7 N      2.635    -0.385    29.950     8.128
  45   6 C      3.786     0.043    19.864     6.348
  46   6 C      2.761     0.266    22.515     7.770
  47   8 O      0.859    -0.523    24.300     6.609
  48   6 C      3.816    -0.106    22.512     6.753
  49   6 C      2.742     0.293    22.034     7.686
  50   8 O      0.859    -0.484    23.440     6.491
  51   7 N      2.641    -0.294    27.589     7.801
  52   1 H      0.860     0.154     1.371     1.834
  53   1 H      0.923     0.032     2.560     2.502
  54   1 H      0.924     0.087     1.910     2.161
  55   1 H      0.924     0.059     2.210     2.325
  56   1 H      0.860     0.234     0.947     1.524
  57   1 H      0.860     0.213     1.042     1.599
  58   7 N      2.693    -0.182    24.940     7.417
  59   6 C      3.792     0.036    19.976     6.365
  60   6 C      2.768     0.207    23.611     7.958
  61   8 O      0.856    -0.368    21.055     6.152
  62   6 C      3.758    -0.131    23.068     6.848
  63   1 H      0.860     0.252     0.874     1.465
  64   1 H      0.923     0.070     2.084     2.258
  65   1 H      0.925     0.072     2.064     2.246
  66   1 H      0.925     0.079     1.991     2.207
  67   1 H      0.925     0.077     2.007     2.215
  68   7 N      2.639    -0.388    30.053     8.142
  69   6 C      3.787     0.023    20.200     6.401
  70   6 C      2.759     0.268    22.471     7.763
  71   8 O      0.859    -0.500    23.780     6.538
  72   6 C      3.728     0.132    18.525     6.145
  73   8 O      1.655    -0.479    22.441     6.395
  74   6 C      3.753    -0.113    22.712     6.796
  75   1 H      0.860     0.181     1.206     1.720
  76   1 H      0.924     0.029     2.601     2.522
  77   1 H      0.923    -0.027     3.580     2.959
  78   1 H      0.803     0.334     0.628     1.245
  79   1 H      0.925     0.056     2.241     2.341
  80   1 H      0.925     0.035     2.513     2.479
  81   1 H      0.925     0.057     2.231     2.336
  82   7 N      2.690    -0.168    24.644     7.373
  83   6 C      3.800     0.024    20.177     6.396
  84   6 C      2.758     0.274    22.359     7.743
  85   8 O      0.859    -0.491    23.596     6.513
  86   6 C      3.854    -0.018    20.867     6.497
  87   6 C      3.802    -0.060    21.645     6.624
  88   6 C      3.755    -0.109    22.631     6.783
  89   6 C      3.751    -0.113    22.718     6.797
  90   1 H      0.860     0.205     1.079     1.627
  91   1 H      0.924     0.069     2.102     2.267
  92   1 H      0.924     0.061     2.184     2.311
  93   1 H      0.924     0.033     2.548     2.496
  94   1 H      0.924     0.047     2.352     2.398
  95   1 H      0.925     0.059     2.212     2.326
  96   1 H      0.925     0.035     2.523     2.484
  97   1 H      0.925     0.042     2.424     2.435
  98   1 H      0.925     0.050     2.323     2.383
  99   1 H      0.925     0.049     2.335     2.389
 100   1 H      0.925     0.032     2.558     2.501
 101   7 N      2.692    -0.177    24.837     7.402
 102   6 C      3.797     0.032    20.041     6.374
 103   6 C      2.755     0.277    22.320     7.736
 104   8 O      0.858    -0.471    23.148     6.451
 105   6 C      3.808    -0.069    21.807     6.647
 106   6 C      3.810    -0.102    22.436     6.742
 107   6 C      2.743     0.292    22.046     7.688
 108   8 O      0.858    -0.518    24.195     6.595
 109   7 N      2.641    -0.301    27.757     7.825
 110   1 H      0.860     0.216     1.028     1.588
 111   1 H      0.924     0.035     2.510     2.478
 112   1 H      0.924     0.068     2.112     2.272
 113   1 H      0.924     0.080     1.974     2.197
 114   1 H      0.924     0.087     1.906     2.159
 115   1 H      0.924     0.066     2.130     2.282
 116   1 H      0.860     0.219     1.013     1.577
 117   1 H      0.860     0.202     1.098     1.641
 118   7 N      2.687    -0.182    24.953     7.419
 119   6 C      3.796     0.015    20.336     6.421
 120   6 C      2.757     0.271    22.425     7.755
 121   8 O      0.859    -0.470    23.132     6.448
 122   6 C      3.852    -0.017    20.842     6.493
 123   6 C      3.756    -0.114    22.745     6.800
 124   6 C      3.754    -0.114    22.730     6.798
 125   1 H      0.860     0.205     1.080     1.628
 126   1 H      0.924     0.087     1.904     2.158
 127   1 H      0.924     0.061     2.191     2.315
 128   1 H      0.925     0.061     2.193     2.316
 129   1 H      0.925     0.049     2.335     2.389
 130   1 H      0.925     0.043     2.403     2.424
 131   1 H      0.925     0.064     2.153     2.295
 132   1 H      0.925     0.023     2.683     2.561
 133   1 H      0.925     0.032     2.559     2.501
 134   7 N      2.686    -0.167    24.619     7.369
 135   6 C      3.750    -0.037    21.300     6.582
 136   6 C      2.754     0.274    22.370     7.745
 137   8 O      0.858    -0.492    23.613     6.515
 138   1 H      0.860     0.201     1.100     1.643
 139   1 H      0.924     0.114     1.665     2.018
 140   1 H      0.924     0.083     1.950     2.184
 141   7 N      2.691    -0.182    24.939     7.417
 142   6 C      3.795     0.020    20.248     6.408
 143   6 C      2.760     0.274    22.361     7.744
 144   8 O      0.858    -0.501    23.813     6.543
 145   6 C      3.760    -0.128    23.000     6.837
 146   1 H      0.860     0.224     0.991     1.559
 147   1 H      0.924     0.091     1.866     2.136
 148   1 H      0.925     0.073     2.055     2.242
 149   1 H      0.925     0.087     1.906     2.159
 150   1 H      0.925     0.056     2.249     2.345
 151   7 N      2.687    -0.201    25.367     7.480
 152   6 C      3.803     0.042    19.869     6.346
 153   6 C      2.761     0.274    22.361     7.744
 154   8 O      0.859    -0.519    24.199     6.595
 155   6 C      3.814    -0.091    22.215     6.708
 156   6 C      2.744     0.295    21.998     7.680
 157   8 O      0.859    -0.505    23.886     6.553
 158   7 N      2.638    -0.300    27.720     7.819
 159   1 H      0.859     0.227     0.979     1.550
 160   1 H      0.924     0.067     2.114     2.274
 161   1 H      0.925     0.053     2.277     2.360
 162   1 H      0.925     0.062     2.176     2.307
 163   1 H      0.860     0.231     0.959     1.534
 164   1 H      0.859     0.241     0.918     1.501
 165   7 N      2.695    -0.195    25.226     7.460
 166   6 C      3.798     0.045    19.821     6.339
 167   6 C      2.761     0.281    22.239     7.723
 168   8 O      0.858    -0.479    23.326     6.475
 169   6 C      3.805    -0.104    22.477     6.749
 170   6 C      2.683     0.375    20.649     7.436
 171   8 O      0.856    -0.598    26.082     6.847
 172   8 O      0.856    -0.615    26.490     6.901
 173   1 H      0.859     0.236     0.941     1.519
 174   1 H      0.923     0.031     2.576     2.510
 175   1 H      0.924     0.046     2.367     2.406
 176   1 H      0.925     0.046     2.367     2.406
 177   7 N      2.686    -0.181    24.926     7.415
 178   6 C      3.746    -0.034    21.253     6.576
 179   6 C      2.752     0.273    22.393     7.749
 180   8 O      0.859    -0.489    23.533     6.504
 181   1 H      0.860     0.201     1.100     1.643
 182   1 H      0.924     0.101     1.776     2.084
 183   1 H      0.924     0.112     1.680     2.027
 184   7 N      2.691    -0.176    24.802     7.396
 185   6 C      3.800     0.025    20.161     6.393
 186   6 C      2.754     0.272    22.402     7.750
 187   8 O      0.858    -0.488    23.513     6.501
 188   6 C      3.806    -0.051    21.491     6.599
 189   6 C      3.801    -0.091    22.236     6.714
 190   6 C      2.685     0.370    20.728     7.451
 191   8 O      0.856    -0.605    26.241     6.868
 192   8 O      0.857    -0.604    26.219     6.865
 193   1 H      0.860     0.207     1.073     1.622
 194   1 H      0.923     0.070     2.082     2.257
 195   1 H      0.924     0.054     2.266     2.354
 196   1 H      0.924     0.053     2.286     2.365
 197   1 H      0.924     0.042     2.425     2.435
 198   1 H      0.924     0.026     2.647     2.544
 199   7 N      2.692    -0.159    24.438     7.342
 200   6 C      3.793     0.018    20.282     6.413
 201   6 C      2.759     0.282    22.228     7.721
 202   8 O      0.858    -0.477    23.286     6.470
 203   6 C      3.725     0.139    18.428     6.130
 204   8 O      1.653    -0.501    22.911     6.462
 205   6 C      3.752    -0.112    22.707     6.795
 206   1 H      0.860     0.222     0.999     1.566
 207   1 H      0.924     0.068     2.102     2.268
 208   1 H      0.923     0.004     2.987     2.703
 209   1 H      0.802     0.323     0.657     1.273
 210   1 H      0.925     0.046     2.368     2.406
 211   1 H      0.925     0.050     2.326     2.385
 212   1 H      0.925     0.044     2.391     2.418
 213   7 N      2.696    -0.184    24.986     7.424
 214   6 C      3.803     0.025    20.152     6.391
 215   6 C      2.766     0.279    22.287     7.731
 216   8 O      0.859    -0.479    23.329     6.476
 217   6 C      3.853    -0.021    20.918     6.505
 218   6 C      3.806    -0.062    21.689     6.630
 219   6 C      3.754    -0.116    22.771     6.804
 220   6 C      3.752    -0.107    22.609     6.781
 221   1 H      0.860     0.219     1.016     1.579
 222   1 H      0.924     0.055     2.254     2.348
 223   1 H      0.924     0.057     2.234     2.337
 224   1 H      0.924     0.043     2.409     2.427
 225   1 H      0.924     0.031     2.571     2.508
 226   1 H      0.925     0.072     2.068     2.249
 227   1 H      0.925     0.032     2.560     2.502
 228   1 H      0.925     0.047     2.363     2.404
 229   1 H      0.925     0.046     2.367     2.406
 230   1 H      0.925     0.043     2.410     2.427
 231   1 H      0.925     0.049     2.332     2.388
 232   7 N      2.691    -0.162    24.510     7.353
 233   6 C      3.798     0.041    19.888     6.350
 234   6 C      2.767     0.192    23.892     8.005
 235   8 O      0.856    -0.352    20.746     6.107
 236   6 C      3.801    -0.098    22.366     6.733
 237   6 C      2.683     0.377    20.621     7.431
 238   8 O      0.856    -0.623    26.703     6.928
 239   8 O      0.856    -0.608    26.315     6.878
 240   1 H      0.860     0.203     1.090     1.635
 241   1 H      0.924     0.079     1.985     2.203
 242   1 H      0.924     0.052     2.300     2.372
 243   1 H      0.924     0.056     2.252     2.347
 244   7 N      2.635    -0.383    29.899     8.121
 245   6 C      3.782     0.040    19.921     6.358
 246   6 C      2.768     0.194    23.863     8.000
 247   8 O      0.856    -0.366    21.008     6.145
 248   6 C      3.812    -0.073    21.887     6.659
 249   6 C      2.967     0.013    27.715     8.635
 250   6 C      2.927    -0.038    28.957     8.825
 251   6 C      2.925    -0.043    29.059     8.840
 252   6 C      2.919    -0.028    28.711     8.787
 253   6 C      2.919    -0.033    28.815     8.803
 254   6 C      2.921    -0.031    28.768     8.796
 255   1 H      0.860     0.170     1.275     1.769
 256   1 H      0.924     0.053     2.280     2.361
 257   1 H      0.924     0.064     2.158     2.297
 258   1 H      0.924     0.054     2.276     2.359
 259   1 H      0.926     0.042     2.425     2.435
 260   1 H      0.926     0.039     2.466     2.456
 261   1 H      0.926     0.033     2.545     2.495
 262   1 H      0.926     0.028     2.610     2.526
 263   1 H      0.926     0.018     2.766     2.601
 264   7 N      2.636    -0.382    29.871     8.117
 265   6 C      3.781     0.046    19.817     6.342
 266   6 C      2.766     0.204    23.662     7.966
 267   8 O      0.856    -0.387    21.421     6.205
 268   6 C      3.757    -0.120    22.858     6.817
 269   1 H      0.860     0.162     1.320     1.800
 270   1 H      0.923     0.037     2.484     2.465
 271   1 H      0.925     0.042     2.429     2.437
 272   1 H      0.925     0.059     2.208     2.324
 273   1 H      0.925     0.070     2.085     2.258
 274   1 H      0.862     0.190     1.160     1.687
 275   1 H      0.930     0.088     1.901     2.156
 276   1 H      0.862     0.168     1.285     1.775
 277   1 H      0.930     0.078     1.996     2.209
 278   1 H      0.862     0.182     1.200     1.716
 279   1 H      0.930     0.092     1.860     2.132
 280   1 H      0.862     0.187     1.173     1.696
 281   1 H      0.930     0.078     2.004     2.214
 282   1 H      0.862     0.181     1.206     1.720
 283   1 H      0.930     0.085     1.931     2.173
 284   1 H      0.862     0.172     1.257     1.756
 285   1 H      0.930     0.079     1.984     2.202
 286   1 H      0.862     0.184     1.191     1.709
 287   1 H      0.930     0.081     1.973     2.196

 Mol. C6AA /au·bohr⁶  :     779137.950330
 Mol. C8AA /au·bohr⁸  :   17182462.231678
 Mol. α(0) /au        :       1317.545553


Wiberg/Mayer (AO) data.
largest (>0.10) Wiberg bond orders for each atom
          total WBO             WBO to atom ...
     1  N   3.005        C    2 1.018    H  274 0.953    H    9 0.953
     2  C   3.987        N    1 1.018    C    3 0.968    C    5 0.964    H   10 0.954
     3  C   3.892        O    4 1.875    C    2 0.968    H  275 0.952
     4  O   2.064        C    3 1.875
     5  C   3.989        H   11 0.970    C    2 0.964    C    6 0.959    H   12 0.953
     6  C   3.944        O    7 1.652    N    8 1.303    C    5 0.959
     7  O   1.957        C    6 1.652    N    8 0.200
     8  N   3.397        C    6 1.303    H   14 0.929    H   13 0.929    O    7 0.200
     9  H   0.972        N    1 0.953
    10  H   0.997        C    2 0.954
    11  H   0.993        C    5 0.970
    12  H   0.995        C    5 0.953
    13  H   0.950        N    8 0.929
    14  H   0.951        N    8 0.929
    15  N   2.993        C   16 1.028    H  276 0.959    H   23 0.916
    16  C   3.989        N   15 1.028    C   17 0.986    C   19 0.952    H   24 0.935
    17  C   3.893        O   18 1.879    C   16 0.986    H  277 0.953
    18  O   2.020        C   17 1.879
    19  C   3.993        C   20 0.992    H   26 0.974    H   25 0.974    C   16 0.952
    20  C   3.995        C   22 1.010    C   21 1.006    C   19 0.992    H   27 0.955
    21  C   3.994        C   20 1.006    H   29 0.986    H   30 0.986    H   28 0.986
    22  C   3.995        C   20 1.010    H   31 0.985    H   32 0.984    H   33 0.983
    23  H   0.963        N   15 0.916
    24  H   0.997        C   16 0.935
    25  H   0.998        C   19 0.974
    26  H   0.998        C   19 0.974
    27  H   0.998        C   20 0.955
    28  H   0.998        C   21 0.986
    29  H   0.998        C   21 0.986
    30  H   0.998        C   21 0.986
    31  H   0.999        C   22 0.985
    32  H   0.997        C   22 0.984
    33  H   0.999        C   22 0.983
    34  N   2.997        C   35 1.017    H  278 0.957    H   39 0.954
    35  C   3.988        N   34 1.017    C   36 0.982    C   38 0.976    H   40 0.947
    36  C   3.884        O   37 1.859    C   35 0.982    H  279 0.951
    37  O   2.077        C   36 1.859
    38  C   3.990        H   41 0.982    H   43 0.979    H   42 0.976    C   35 0.976
    39  H   0.974        N   34 0.954
    40  H   0.998        C   35 0.947
    41  H   0.997        C   38 0.982
    42  H   0.997        C   38 0.976
    43  H   0.997        C   38 0.979
    44  N   2.995        C   45 1.018    H   52 0.956    H  280 0.955
    45  C   3.987        N   44 1.018    C   48 0.984    H   53 0.962    C   46 0.931
    46  C   3.947        O   47 1.607    N   58 1.331    C   45 0.931
    47  O   1.922        C   46 1.607    N   58 0.200
    48  C   3.992        C   45 0.984    C   49 0.966    H   55 0.956    H   54 0.942
    49  C   3.946        O   50 1.659    N   51 1.286    C   48 0.966
    50  O   1.962        C   49 1.659    N   51 0.197
    51  N   3.380        C   49 1.286    H   57 0.937    H   56 0.924    O   50 0.197
    52  H   0.976        N   44 0.956
    53  H   0.999        C   45 0.962
    54  H   0.992        C   48 0.942
    55  H   0.996        C   48 0.956
    56  H   0.944        N   51 0.924
    57  H   0.955        N   51 0.937
    58  N   3.477        C   46 1.331    C   59 0.979    H   63 0.855    O   47 0.200
    59  C   3.970        C   62 0.981    N   58 0.979    C   60 0.975    H   64 0.948
    60  C   3.899        O   61 1.898    C   59 0.975    H  281 0.953
    61  O   2.036        C   60 1.898
    62  C   3.981        H   67 0.982    C   59 0.981    H   65 0.979    H   66 0.975
    63  H   0.936        N   58 0.855
    64  H   0.995        C   59 0.948
    65  H   0.994        C   62 0.979
    66  H   0.994        C   62 0.975
    67  H   0.994        C   62 0.982
    68  N   2.997        C   69 1.011    H  282 0.955    H   75 0.945
    69  C   3.988        N   68 1.011    C   72 0.956    H   76 0.956    C   70 0.941
    70  C   3.944        O   71 1.604    N   82 1.321    C   69 0.941
    71  O   1.944        C   70 1.604    N   82 0.193
    72  C   3.962        C   74 1.004    O   73 1.001    H   77 0.959    C   69 0.956
    73  O   1.943        C   72 1.001    H   78 0.848
    74  C   3.993        C   72 1.004    H   80 0.985    H   79 0.984    H   81 0.983
    75  H   0.967        N   68 0.945
    76  H   0.999        C   69 0.956
    77  H   0.999        C   72 0.959
    78  H   0.889        O   73 0.848
    79  H   0.996        C   74 0.984
    80  H   0.999        C   74 0.985
    81  H   0.997        C   74 0.983
    82  N   3.490        C   70 1.321    C   83 0.970    H   90 0.910    O   71 0.193
    83  C   3.956        N   82 0.970    C   86 0.964    H   91 0.952    C   84 0.932
    84  C   3.940        O   85 1.608    N  101 1.309    C   83 0.932
    85  O   1.964        C   84 1.608    N  101 0.192
    86  C   3.983        C   88 1.007    C   87 0.994    C   83 0.964    H   92 0.958
    87  C   3.995        C   89 1.020    C   86 0.994    H   93 0.975    H   94 0.972
    88  C   3.994        C   86 1.007    H   96 0.984    H   97 0.983    H   95 0.982
    89  C   3.996        C   87 1.020    H  100 0.986    H   98 0.986    H   99 0.985
    90  H   0.958        N   82 0.910
    91  H   0.995        C   83 0.952
    92  H   0.996        C   86 0.958
    93  H   0.999        C   87 0.975
    94  H   0.997        C   87 0.972
    95  H   0.996        C   88 0.982
    96  H   0.999        C   88 0.984
    97  H   0.998        C   88 0.983
    98  H   0.997        C   89 0.986
    99  H   0.998        C   89 0.985
   100  H   0.999        C   89 0.986
   101  N   3.473        C   84 1.309    C  102 0.974    H  110 0.919    O   85 0.192
   102  C   3.965        C  105 0.987    N  101 0.974    H  111 0.951    C  103 0.926
   103  C   3.955        O  104 1.636    N  118 1.312    C  102 0.926
   104  O   1.957        C  103 1.636    N  118 0.203
   105  C   3.988        C  106 1.009    C  102 0.987    H  113 0.970    H  112 0.969
   106  C   3.993        C  105 1.009    C  107 0.967    H  115 0.963    H  114 0.949
   107  C   3.938        O  108 1.623    N  109 1.318    C  106 0.967
   108  O   1.927        C  107 1.623    N  109 0.197
   109  N   3.400        C  107 1.318    H  117 0.905    H  116 0.898    O  108 0.197
   110  H   0.953        N  101 0.919
   111  H   0.999        C  102 0.951
   112  H   0.995        C  105 0.969
   113  H   0.993        C  105 0.970
   114  H   0.992        C  106 0.949
   115  H   0.996        C  106 0.963
   116  H   0.952        N  109 0.898
   117  H   0.959        N  109 0.905
   118  N   3.486        C  103 1.312    C  119 0.984    H  125 0.892    O  104 0.203
   119  C   3.957        N  118 0.984    C  122 0.947    H  126 0.946    C  120 0.942
   120  C   3.949        O  121 1.643    N  134 1.288    C  119 0.942
   121  O   1.962        C  120 1.643    N  134 0.196
   122  C   3.987        C  124 1.011    C  123 1.008    H  127 0.964    C  119 0.947
   123  C   3.992        C  122 1.008    H  129 0.984    H  130 0.979    H  128 0.977
   124  C   3.995        C  122 1.011    H  133 0.985    H  132 0.983    H  131 0.981
   125  H   0.958        N  118 0.892
   126  H   0.992        C  119 0.946
   127  H   0.995        C  122 0.964
   128  H   0.996        C  123 0.977
   129  H   0.998        C  123 0.984
   130  H   0.998        C  123 0.979
   131  H   0.996        C  124 0.981
   132  H   0.999        C  124 0.983
   133  H   0.999        C  124 0.985
   134  N   3.471        C  120 1.288    C  135 1.005    H  138 0.909    O  121 0.196
   135  C   3.966        N  134 1.005    C  136 0.956    H  140 0.947    H  139 0.938
   136  C   3.948        O  137 1.605    N  141 1.301    C  135 0.956
   137  O   1.951        C  136 1.605    N  141 0.183
   138  H   0.959        N  134 0.909
   139  H   0.987        C  135 0.938
   140  H   0.993        C  135 0.947
   141  N   3.459        C  136 1.301    C  142 0.985    H  146 0.903    O  137 0.183
   142  C   3.962        C  145 0.986    N  141 0.985    H  147 0.951    C  143 0.932
   143  C   3.941        O  144 1.627    N  151 1.302    C  142 0.932
   144  O   1.943        C  143 1.627    N  151 0.195
   145  C   3.982        C  142 0.986    H  150 0.983    H  148 0.981    H  149 0.978
   146  H   0.950        N  141 0.903
   147  H   0.991        C  142 0.951
   148  H   0.994        C  145 0.981
   149  H   0.992        C  145 0.978
   150  H   0.997        C  145 0.983
   151  N   3.463        C  143 1.302    C  152 0.998    H  159 0.859    O  144 0.195
   152  C   3.975        N  151 0.998    C  155 0.955    H  160 0.950    C  153 0.939
   153  C   3.945        O  154 1.553    N  165 1.355    C  152 0.939
   154  O   1.928        C  153 1.553    N  165 0.190
   155  C   3.990        H  161 0.970    H  162 0.964    C  156 0.955    C  152 0.955
   156  C   3.954        O  157 1.628    N  158 1.345    C  155 0.955
   157  O   1.932        C  156 1.628    N  158 0.211
   158  N   3.409        C  156 1.345    H  163 0.923    H  164 0.861    O  157 0.211
   159  H   0.948        N  151 0.859
   160  H   0.995        C  152 0.950
   161  H   0.997        C  155 0.970
   162  H   0.996        C  155 0.964
   163  H   0.946        N  158 0.923
   164  H   0.942        N  158 0.861
   165  N   3.483        C  153 1.355    C  166 0.982    H  173 0.838    O  154 0.190
   166  C   3.971        N  165 0.982    C  169 0.972    H  174 0.954    C  167 0.938
   167  C   3.949        O  168 1.650    N  177 1.267    C  166 0.938
   168  O   1.963        C  167 1.650    N  177 0.191
   169  C   3.978        H  176 0.979    C  166 0.972    H  175 0.969    C  170 0.903
   170  C   3.938        O  171 1.548    O  172 1.460    C  169 0.903
   171  O   1.844        C  170 1.548    O  172 0.215
   172  O   1.861        C  170 1.460    O  171 0.215
   173  H   0.944        N  165 0.838
   174  H   0.999        C  166 0.954
   175  H   0.998        C  169 0.969
   176  H   0.997        C  169 0.979
   177  N   3.449        C  167 1.267    C  178 0.998    H  181 0.930    O  168 0.191
   178  C   3.957        N  177 0.998    H  182 0.956    C  179 0.952    H  183 0.939
   179  C   3.951        O  180 1.615    N  184 1.312    C  178 0.952
   180  O   1.953        C  179 1.615    N  184 0.196
   181  H   0.960        N  177 0.930
   182  H   0.989        C  178 0.956
   183  H   0.987        C  178 0.939
   184  N   3.482        C  179 1.312    C  185 0.971    H  193 0.906    O  180 0.196
   185  C   3.961        C  188 0.992    N  184 0.971    H  194 0.949    C  186 0.928
   186  C   3.947        O  187 1.585    N  199 1.342    C  185 0.928
   187  O   1.966        C  186 1.585    N  199 0.198
   188  C   3.990        C  189 1.011    C  185 0.992    H  196 0.971    H  195 0.967
   189  C   3.989        C  188 1.011    H  197 0.966    H  198 0.964    C  190 0.933
   190  C   3.934        O  192 1.491    O  191 1.464    C  189 0.933
   191  O   1.842        C  190 1.464    O  192 0.201
   192  O   1.865        C  190 1.491    O  191 0.201
   193  H   0.957        N  184 0.906
   194  H   0.995        C  185 0.949
   195  H   0.997        C  188 0.967
   196  H   0.997        C  188 0.971
   197  H   0.998        C  189 0.966
   198  H   0.999        C  189 0.964
   199  N   3.510        C  186 1.342    C  200 0.991    H  206 0.905    O  187 0.198
   200  C   3.964        N  199 0.991    H  207 0.945    C  203 0.935    C  201 0.933
   201  C   3.953        O  202 1.650    N  213 1.294    C  200 0.933
   202  O   1.965        C  201 1.650    N  213 0.194
   203  C   3.961        O  204 1.001    C  205 0.998    H  208 0.965    C  200 0.935
   204  O   1.926        C  203 1.001    H  209 0.815
   205  C   3.994        C  203 0.998    H  212 0.985    H  210 0.984    H  211 0.979
   206  H   0.950        N  199 0.905
   207  H   0.995        C  200 0.945
   208  H   0.999        C  203 0.965
   209  H   0.896        O  204 0.815
   210  H   0.997        C  205 0.984
   211  H   0.997        C  205 0.979
   212  H   0.998        C  205 0.985
   213  N   3.449        C  201 1.294    C  214 0.971    H  221 0.895    O  202 0.194
   214  C   3.954        N  213 0.971    H  222 0.956    C  217 0.952    C  215 0.940
   215  C   3.945        O  216 1.624    N  232 1.298    C  214 0.940
   216  O   1.969        C  215 1.624    N  232 0.191
   217  C   3.982        C  219 1.009    C  218 0.993    H  223 0.961    C  214 0.952
   218  C   3.993        C  220 1.019    C  217 0.993    H  224 0.976    H  225 0.974
   219  C   3.992        C  217 1.009    H  228 0.985    H  227 0.984    H  226 0.979
   220  C   3.994        C  218 1.019    H  229 0.983    H  230 0.982    H  231 0.981
   221  H   0.952        N  213 0.895
   222  H   0.997        C  214 0.956
   223  H   0.997        C  217 0.961
   224  H   0.998        C  218 0.976
   225  H   0.999        C  218 0.974
   226  H   0.994        C  219 0.979
   227  H   0.999        C  219 0.984
   228  H   0.998        C  219 0.985
   229  H   0.997        C  220 0.983
   230  H   0.998        C  220 0.982
   231  H   0.998        C  220 0.981
   232  N   3.476        C  215 1.298    C  233 0.984    H  240 0.927    O  216 0.191
   233  C   3.967        N  232 0.984    C  234 0.977    C  236 0.964    H  241 0.942
   234  C   3.911        O  235 1.895    C  233 0.977    H  283 0.952
   235  O   2.038        C  234 1.895
   236  C   3.983        H  242 0.967    C  233 0.964    H  243 0.963    C  237 0.903
   237  C   3.933        O  239 1.538    O  238 1.454    C  236 0.903
   238  O   1.850        C  237 1.454    O  239 0.211
   239  O   1.841        C  237 1.538    O  238 0.211
   240  H   0.959        N  232 0.927
   241  H   0.994        C  233 0.942
   242  H   0.997        C  236 0.967
   243  H   0.996        C  236 0.963
   244  N   3.003        C  245 1.015    H  284 0.957    H  255 0.952
   245  C   3.985        N  244 1.015    C  246 0.972    C  248 0.955    H  256 0.954
   246  C   3.894        O  247 1.899    C  245 0.972    H  285 0.952
   247  O   2.039        C  246 1.899
   248  C   3.992        C  249 1.007    H  257 0.970    H  258 0.956    C  245 0.955
   249  C   3.988        C  250 1.416    C  251 1.407    C  248 1.007    C  254 0.109
   250  C   3.989        C  252 1.439    C  249 1.416    H  259 0.968    C  253 0.110
   251  C   3.992        C  253 1.448    C  249 1.407    H  260 0.964    C  252 0.112
   252  C   3.991        C  254 1.443    C  250 1.439    H  261 0.971    C  251 0.112
   253  C   3.992        C  251 1.448    C  254 1.434    H  262 0.967    C  250 0.110
   254  C   3.992        C  252 1.443    C  253 1.434    H  263 0.969    C  249 0.109
   255  H   0.971        N  244 0.952
   256  H   0.997        C  245 0.954
   257  H   0.996        C  248 0.970
   258  H   0.997        C  248 0.956
   259  H   0.998        C  250 0.968
   260  H   0.998        C  251 0.964
   261  H   0.998        C  252 0.971
   262  H   0.999        C  253 0.967
   263  H   0.999        C  254 0.969
   264  N   3.001        C  265 1.008    H  286 0.956    H  269 0.954
   265  C   3.987        N  264 1.008    C  268 0.984    C  266 0.971    H  270 0.964
   266  C   3.884        O  267 1.893    C  265 0.971    H  287 0.953
   267  O   2.025        C  266 1.893
   268  C   3.990        H  271 0.985    C  265 0.984    H  273 0.979    H  272 0.975
   269  H   0.974        N  264 0.954
   270  H   0.998        C  265 0.964
   271  H   0.998        C  268 0.985
   272  H   0.996        C  268 0.975
   273  H   0.995        C  268 0.979
   274  H   0.964        N    1 0.953
   275  H   0.992        C    3 0.952
   276  H   0.972        N   15 0.959
   277  H   0.994        C   17 0.953
   278  H   0.967        N   34 0.957
   279  H   0.992        C   36 0.951
   280  H   0.965        N   44 0.955
   281  H   0.994        C   60 0.953
   282  H   0.967        N   68 0.955
   283  H   0.992        C  234 0.952
   284  H   0.970        N  244 0.957
   285  H   0.994        C  246 0.952
   286  H   0.966        N  264 0.956
   287  H   0.994        C  266 0.953
 
molecular dipole:
                 x           y           z       tot (Debye)
 q only:     -743.516    -297.497    -749.247
   full:     -742.432    -300.911    -749.643    2788.712
molecular quadrupole (traceless):
                xx          xy          yy          xz          yz          zz
 q only:   -75963.609 -110692.377  156158.962 -278384.449 -111312.424  -80195.353
  q+dip:   -74952.983 -111769.348  155238.551 -278124.728 -112639.502  -80285.567
   full:   -74951.245 -111767.996  155237.451 -278122.956 -112637.507  -80286.206


           -------------------------------------------------
          | TOTAL ENERGY             -459.552345898369 Eh   |
          | GRADIENT NORM               0.590219600951 Eh/α |
          | HOMO-LUMO GAP               1.427502776827 eV   |
           -------------------------------------------------

------------------------------------------------------------------------
 * finished run on 2019/05/31 at 05:35:05.438     
------------------------------------------------------------------------
 total:
 * wall-time:     0 d,  0 h,  0 min,  3.981 sec
 *  cpu-time:     0 d,  0 h,  0 min,  6.777 sec
 * ratio c/w:     1.702 speedup
 SCF:
 * wall-time:     0 d,  0 h,  0 min,  3.447 sec
 *  cpu-time:     0 d,  0 h,  0 min,  6.216 sec
 * ratio c/w:     1.803 speedup

