      -----------------------------------------------------------      
     |                   =====================                   |     
     |                           x T B                           |     
     |                   =====================                   |     
     |                         S. Grimme                         |     
     |          Mulliken Center for Theoretical Chemistry        |     
     |                    University of Bonn                     |     
     |                Version 6.1 RC1 (SAW190329)                |     
      -----------------------------------------------------------      

   This program is distributed in the hope that it will be useful,
   but WITHOUT ANY WARRANTY; without even the implied warranty of
   MERCHANTABILITY or FITNESS FOR A PARTICULAR PURPOSE.
   
   FOR NON-COMMERCIAL, ACADEMIA USE ONLY.
   
   Cite this work as:
   S. Grimme, C. Bannwarth, P. Shushkov, J. Comput. Theory Chem., 2017,
   13, 1989-2009. DOI: 10.1021/acs.jctc.7b00118
   C. Bannwarth, S. Ehlert and S. Grimme., J. Comput. Theory Chem., 2019,
   just accepted. DOI: 10.1021/acs.jctc.8b01176
   
   for sTDA-xTB:
   S. Grimme and C. Bannwarth, J. Chem. Phys., 2016, 145, 054103.
   DOI: 10.1063/1.4959605
   
   in the mass-spec context:
   V. Asgeirsson, C. Bauer and S. Grimme, Chem. Sci., 2017, 8, 4879.
   DOI: 10.1039/c7sc00601b
   
   for metadynamics refer to:
   S. Grimme, ChemRxiv, Preprint. DOI: 10.26434/chemrxiv.7660532.v1
   
   with help from (in alphabetical order)
   C. Bannwarth, F. Bohle, G. Brandenburg, E. Caldeweyher, M. Checinski,
   S. Dohm, S. Ehlert, S. Ehrlich, F. März, H. Neugebauer, J. Pisarek,
   P. Pracht, P. Shushkov, and S. Spicher.
   
 * started run on 2019/05/31 at 06:33:08.936     

           -------------------------------------------------
          |                Calculation Setup                |
           -------------------------------------------------

          program call               : /home/lum/qr/xtb-190329/bin/xtb xtb_tmp.xyz --chrg 0 --grad --gfn 2 --etemp 500 --acc 0.1 --gbsa h2o --parallel 2
          hostname                   : cu39
          coordinate file            : xtb_tmp.xyz
          omp threads                :                     2
          number of atoms            :                   427
          number of electrons        :                  1160
          charge                     :                     0
          spin                       :                   0.0
          first test random number   :      0.68629383171674


molecular fragmentation (1/2 indicates fragments):
111111111111111111111111111111111111111111111111111111111111111111111111
111111111111111111111111111111111222222222222222222222222222222222222222
222222222222222222222222222222222222222222222222222222222222222222222222
222222222222222222222222222222222222222222222222222222222222222222222222
222222222222222222222222222222222222222222222222222222222222222222222222
2222222222222222222222222222222222222222222222222222222212222222222
# atoms in fragment 1/2:   106   321
 fragment masses (1/2) :      732.89     2209.56
CMA distance (Bohr)    :  16.952
constraining FC (au)   :  0.0500

########################################################################
# WARNING! Please study the warnings concerning your input carefully
#  - XTBPATH is not set, using XTBHOME instead
#  - Process number higher than OMP_NUM_THREADS, I hope you know what you are doing.
########################################################################

           ------------------------------------------------- 
          |                 G F N 2 - x T B                 |
          | Geometry, Frequencies, Noncovalent interactions |
          |            JCTC 2018 parametrisation            |
           ------------------------------------------------- 
 
             k(s)              :                1.8500
             k(p)              :                2.2300
             k(d)              :                2.2300
             k(f)              :                2.0000
             kEN (H0ij)        :               -2.0000
             D4 a1             :                0.5200
             D4 a2             :                5.0000
             D4 s6             :                1.0000
             D4 s8             :                2.7000
             D4 s9             :                5.0000
             alphaj            :                2.0000

  Z AO/shell   Hii/eV     exponent
  1     Wed Apr 25 08:07:45 CEST 2018   EN: 2.200 GM2: 0.406  GM3: 0.0800  RAES: 1.40
     1s    -10.707211    1.230000
  6     Wed Apr 25 08:07:45 CEST 2018   EN: 2.550 GM2: 0.538  GM3: 0.1500  RAES: 3.00
     2s    -13.970922    2.096432
     2p    -10.063292    1.800000
  7     Wed Apr 25 08:07:45 CEST 2018   EN: 3.040 GM2: 0.461  GM3:-0.0640  RAES: 1.90
     2s    -16.686243    2.339881
     2p    -12.523956    2.014332
  8     Wed Apr 25 08:07:45 CEST 2018   EN: 3.440 GM2: 0.452  GM3:-0.0517  RAES: 1.80
     2s    -20.229985    2.439742
     2p    -15.503117    2.137023
 16     Tue Apr 24 11:44:34 CEST 2018   EN: 2.580 GM2: 0.340  GM3:-0.0502  RAES: 3.10
     3s    -20.029654    1.981333
     3p    -11.377694    2.025643
     3d     -0.420282    1.702555

 Solvent             : h2o
 Using internal parameter file: .param_gbsa2_h2o
 Gsolv ref. state (COSMO-RS): gsolv [1 M gas/solution]
 temperature (mdtemp)       :    298.150000000000     
 dielectric constant        :    80.2000000000000     
 rho                        :    1.00000000000000     
 mass                       :    18.0000000000000     
 surface tension            :    15.5689454083859     
 probe radius               :   0.975313790000000     
 vdW radii scaling          :    1.00000000000000     
 Gshift (Eh)                :   1.857443126794793E-003
 c1                         :    1.55243817000000     
 soset                      :   0.130326360000000     
 HB correction              :  T
 Number of grid points      :          230

            Z     q(EN)     CN     RAES       Cart. coordinates
     1  N   5.0   -0.73    3.98    2.81   104.23667    47.80162    10.41998
     2  C   4.0    0.05    3.98    3.58   106.08948    47.92962    12.54661
     3  C   4.0    0.26    3.01    3.02   105.14789    49.19918    14.97779
     4  O   6.0   -0.48    1.00    1.80   105.96523    48.40267    16.98993
     5  C   4.0   -0.14    4.01    3.64   108.57358    49.15810    11.66015
     6  C   4.0   -0.14    3.97    3.58   110.35274    47.22637    10.46361
     7  S   6.0   -0.17    2.02    3.10   111.25155    44.83252    12.84711
     8  C   4.0   -0.21    3.98    3.58   111.78603    42.13499    10.79463
     9  H   1.0    0.23    1.00    1.43   104.95238    46.60181     9.05316
    10  H   1.0    0.25    1.00    1.43   102.51886    47.06862    10.98844
    11  H   1.0    0.24    1.00    1.43   103.96250    49.53349     9.56173
    12  H   1.0    0.12    0.99    1.43   106.56329    45.99418    13.13349
    13  H   1.0    0.10    0.99    1.43   108.20889    50.67677    10.31599
    14  H   1.0    0.12    0.99    1.43   109.52680    49.97973    13.29387
    15  H   1.0    0.10    0.99    1.43   109.50532    46.21627     8.88401
    16  H   1.0    0.11    0.99    1.43   112.07076    48.16171     9.82459
    17  H   1.0    0.11    0.99    1.43   112.49580    40.62700    11.99046
    18  H   1.0    0.10    0.99    1.43   110.02605    41.54092     9.92284
    19  H   1.0    0.11    0.99    1.43   113.19290    42.59707     9.37234
    20  N   5.0   -0.48    3.00    1.93   103.43483    51.04973    14.88552
    21  C   4.0    0.06    3.99    3.61   102.69578    52.30136    17.23723
    22  C   4.0    0.29    3.01    3.02   101.96281    50.35372    19.25610
    23  O   6.0   -0.45    1.00    1.80   102.78048    50.44458    21.40500
    24  C   4.0   -0.21    3.98    3.59   100.55486    54.17420    16.76967
    25  H   1.0    0.23    1.00    1.43   102.79662    51.86410    13.27882
    26  H   1.0    0.12    0.99    1.43   104.32716    53.32333    18.01054
    27  H   1.0    0.11    0.99    1.43   100.05418    55.11282    18.52919
    28  H   1.0    0.11    0.99    1.43   101.17050    55.62208    15.44883
    29  H   1.0    0.13    0.99    1.43    98.85793    53.28002    16.02543
    30  N   5.0   -0.48    3.00    1.93   100.42351    48.48062    18.45113
    31  C   4.0    0.07    3.99    3.61    99.45256    46.68097    20.29250
    32  C   4.0    0.31    3.01    3.02   101.64478    45.21354    21.53696
    33  O   6.0   -0.45    1.00    1.80   101.52138    44.57120    23.74897
    34  C   4.0   -0.10    3.99    3.60    97.58258    44.82799    19.06662
    35  C   4.0    0.28    3.00    3.02    95.88150    43.64973    21.07488
    36  O   6.0   -0.39    1.00    1.80    96.25251    41.56439    21.97101
    37  N   5.0   -0.66    3.00    1.93    93.96795    45.15035    21.82138
    38  H   1.0    0.24    1.00    1.43    99.35326    48.76660    16.89408
    39  H   1.0    0.13    0.99    1.43    98.47709    47.70195    21.81602
    40  H   1.0    0.11    0.99    1.43    96.38849    45.82335    17.70979
    41  H   1.0    0.13    0.99    1.43    98.59295    43.30616    18.11762
    42  H   1.0    0.29    1.00    1.43    92.67480    44.47055    23.04366
    43  H   1.0    0.27    1.00    1.43    93.50571    46.76231    20.92208
    44  N   5.0   -0.48    3.01    1.93   103.57334    44.61051    20.00670
    45  C   4.0    0.07    3.99    3.61   105.84498    43.39321    20.97102
    46  C   4.0    0.29    3.01    3.02   107.12209    45.06885    22.96555
    47  O   6.0   -0.41    1.00    1.80   107.58261    44.30148    25.10553
    48  C   4.0   -0.15    3.98    3.59   107.63212    42.83205    18.76210
    49  C   4.0   -0.17    3.98    3.59   110.24481    41.93697    19.60318
    50  C   4.0   -0.15    3.98    3.59   110.21881    39.31225    20.80311
    51  C   4.0   -0.06    3.98    3.59   112.88025    38.59737    21.63835
    52  N   5.0   -0.73    3.98    2.81   112.78557    36.42217    23.41967
    53  H   1.0    0.29    1.00    1.43   103.81975    45.61520    18.39550
    54  H   1.0    0.13    0.99    1.43   105.27251    41.66409    21.95076
    55  H   1.0    0.11    0.99    1.43   106.75128    41.39588    17.57431
    56  H   1.0    0.13    0.99    1.43   107.89824    44.56395    17.67836
    57  H   1.0    0.11    0.99    1.43   111.47730    41.92394    17.95257
    58  H   1.0    0.12    0.99    1.43   111.04232    43.26522    20.96996
    59  H   1.0    0.12    0.99    1.43   109.00887    39.36963    22.47227
    60  H   1.0    0.11    0.99    1.43   109.46817    37.93095    19.46770
    61  H   1.0    0.10    0.99    1.43   114.07541    38.14593    20.02291
    62  H   1.0    0.11    0.99    1.43   113.69064    40.19535    22.67507
    63  H   1.0    0.24    1.00    1.43   114.57635    35.78757    23.81603
    64  H   1.0    0.24    0.99    1.43   111.99248    37.11879    25.09217
    65  H   1.0    0.24    1.00    1.43   111.72312    34.95753    22.70502
    66  N   5.0   -0.47    3.01    1.93   107.63875    47.41052    22.18455
    67  C   4.0    0.07    3.99    3.61   108.94025    49.21224    23.78591
    68  C   4.0    0.31    3.02    3.02   107.77098    49.19792    26.42549
    69  O   6.0   -0.45    1.00    1.80   109.08067    49.09147    28.33899
    70  C   4.0   -0.21    3.98    3.59   108.80060    51.84044    22.61292
    71  H   1.0    0.29    1.00    1.43   107.23846    47.94555    20.38707
    72  H   1.0    0.12    0.99    1.43   110.92124    48.63343    24.03273
    73  H   1.0    0.10    0.99    1.43   109.68223    53.20424    23.86828
    74  H   1.0    0.11    0.99    1.43   109.80676    51.85275    20.82294
    75  H   1.0    0.13    0.99    1.43   106.83792    52.36500    22.31708
    76  N   5.0   -0.48    3.01    1.93   105.25192    49.44479    26.48214
    77  C   4.0    0.08    4.00    3.62   103.96474    49.56398    28.89001
    78  C   4.0    0.28    3.02    3.02   103.88919    46.96660    30.16214
    79  O   6.0   -0.46    1.01    1.80   104.40645    46.76838    32.41857
    80  C   4.0   -0.10    3.98    3.58   101.40578    50.92089    28.72006
    81  C   4.0   -0.21    3.98    3.59    99.44153    49.36687    27.30197
    82  C   4.0   -0.24    3.98    3.59   100.48673    51.58200    31.37494
    83  H   1.0    0.29    1.00    1.43   104.25044    49.61401    24.86050
    84  H   1.0    0.12    0.99    1.43   105.18306    50.68136    30.14719
    85  H   1.0    0.11    0.99    1.43   101.74053    52.67652    27.67664
    86  H   1.0    0.09    0.99    1.43    97.72892    50.47599    27.07365
    87  H   1.0    0.14    0.99    1.43   100.13130    48.83162    25.44511
    88  H   1.0    0.11    0.99    1.43    98.96734    47.66508    28.34545
    89  H   1.0    0.09    0.99    1.43    98.65271    52.50276    31.28830
    90  H   1.0    0.11    0.99    1.43   100.31618    49.87652    32.50640
    91  H   1.0    0.09    0.99    1.43   101.80810    52.85170    32.30644
    92  N   5.0   -0.48    3.01    1.93   103.38547    44.90568    28.80035
    93  C   4.0    0.08    4.01    3.64   103.69438    42.50083    30.08037
    94  C   4.0    0.13    3.00    3.02   106.06131    42.59025    31.75101
    95  O   6.0   -0.39    1.00    1.80   106.05893    41.84821    33.94916
    96  C   4.0   -0.10    3.99    3.60   104.01047    40.28780    28.25210
    97  C   4.0    0.28    3.00    3.02   104.89881    38.02675    29.80806
    98  O   6.0   -0.36    1.00    1.80   103.50285    36.94026    31.28737
    99  N   5.0   -0.64    3.00    1.93   107.30043    37.29875    29.38016
   100  H   1.0    0.30    1.00    1.43   102.87641    44.90782    26.94838
   101  H   1.0    0.13    0.99    1.43   102.09691    42.12762    31.34709
   102  H   1.0    0.13    0.99    1.43   102.19846    39.83614    27.38099
   103  H   1.0    0.14    0.99    1.43   105.40147    40.76543    26.81637
   104  H   1.0    0.29    1.00    1.43   107.99351    35.95609    30.54503
   105  H   1.0    0.25    1.00    1.43   108.61399    38.49391    28.62522
   106  N   5.0   -0.69    3.00    1.93   109.81253    47.37372    33.59953
   107  C   4.0    0.08    3.98    3.59   109.79796    49.23381    35.62146
   108  C   4.0    0.30    3.01    3.02   108.56728    48.16101    38.01604
   109  O   6.0   -0.37    1.00    1.80   109.45759    48.50613    40.12024
   110  C   4.0   -0.13    3.99    3.60   108.33520    51.58814    34.76756
   111  C   4.0   -0.03    3.03    3.02   108.08265    53.53778    36.83046
   112  C   4.0   -0.08    3.03    3.02   110.18034    54.85020    37.70904
   113  C   4.0   -0.09    3.03    3.02   105.73284    54.08681    37.86274
   114  C   4.0   -0.09    3.03    3.02   109.92687    56.68449    39.55677
   115  C   4.0   -0.10    3.03    3.02   105.47365    55.93166    39.70073
   116  C   4.0   -0.09    3.03    3.02   107.56913    57.25112    40.54248
   117  H   1.0    0.32    1.00    1.43   109.15787    47.90202    31.87387
   118  H   1.0    0.12    0.99    1.43   111.74835    49.71874    36.13613
   119  H   1.0    0.11    0.99    1.43   109.33426    52.39498    33.14972
   120  H   1.0    0.12    0.99    1.43   106.45821    50.97307    34.17140
   121  H   1.0    0.11    1.00    1.43   112.01988    54.42366    36.93651
   122  H   1.0    0.10    0.99    1.43   104.09063    53.05951    37.21833
   123  H   1.0    0.12    1.00    1.43   111.57780    57.67191    40.22965
   124  H   1.0    0.11    1.00    1.43   103.63024    56.35117    40.46743
   125  H   1.0    0.12    1.00    1.43   107.35575    58.68908    41.97386
   126  N   5.0   -0.48    3.01    1.93   106.35871    47.00865    37.59186
   127  C   4.0    0.08    3.99    3.61   104.93597    45.77199    39.57684
   128  C   4.0    0.09    3.00    3.02   106.52150    43.68249    40.79734
   129  O   6.0   -0.37    1.00    1.80   106.89746    43.62685    43.08761
   130  C   4.0   -0.08    3.98    3.59   102.44387    44.78530    38.44728
   131  C   4.0   -0.16    3.98    3.59   100.70267    47.04894    37.94306
   132  C   4.0   -0.21    3.98    3.59   101.14826    42.84603    40.15172
   133  C   4.0   -0.24    3.98    3.58    98.45806    46.39650    36.26222
   134  H   1.0    0.30    1.00    1.43   105.81079    46.65906    35.78968
   135  H   1.0    0.14    0.99    1.43   104.56547    47.14590    41.09068
   136  H   1.0    0.15    0.99    1.43   102.92736    43.85556    36.66141
   137  H   1.0    0.11    0.99    1.43   100.02730    47.76416    39.75913
   138  H   1.0    0.12    0.99    1.43   101.81637    48.52551    37.03195
   139  H   1.0    0.11    0.99    1.43    99.80978    41.71249    39.08173
   140  H   1.0    0.13    0.99    1.43   102.50013    41.54508    40.99486
   141  H   1.0    0.12    0.99    1.43   100.13680    43.78337    41.67238
   142  H   1.0    0.09    0.99    1.43    97.21039    48.02113    36.10756
   143  H   1.0    0.11    0.99    1.43    99.11408    45.86264    34.38665
   144  H   1.0    0.10    0.99    1.43    97.38719    44.83283    37.05119
   145  N   5.0   -0.70    3.00    1.93    82.33574    61.91461    34.27521
   146  C   4.0    0.07    3.98    3.59    81.92457    62.69292    31.67380
   147  C   4.0    0.28    3.01    3.02    80.80280    60.40120    30.29217
   148  O   6.0   -0.40    1.00    1.80    80.74636    58.32604    31.32322
   149  C   4.0   -0.09    3.98    3.58    84.40404    63.69023    30.49462
   150  C   4.0   -0.21    3.98    3.59    86.16620    61.51687    29.79346
   151  C   4.0   -0.22    3.98    3.59    83.88521    65.38197    28.21771
   152  H   1.0    0.29    1.00    1.43    82.88991    60.08521    34.41851
   153  H   1.0    0.12    0.99    1.43    80.50597    64.20308    31.68719
   154  H   1.0    0.10    0.99    1.43    85.30384    64.84323    31.96311
   155  H   1.0    0.10    0.99    1.43    87.90074    62.24956    28.97297
   156  H   1.0    0.11    0.99    1.43    86.63178    60.40784    31.45726
   157  H   1.0    0.14    0.99    1.43    85.25160    60.27366    28.43037
   158  H   1.0    0.11    0.99    1.43    85.63017    66.25234    27.57402
   159  H   1.0    0.13    0.99    1.43    83.08237    64.30766    26.66219
   160  H   1.0    0.11    0.99    1.43    82.55202    66.86646    28.70728
   161  N   5.0   -0.48    3.01    1.93    79.96600    60.80822    27.94397
   162  C   4.0    0.08    4.00    3.63    78.57963    58.85568    26.61949
   163  C   4.0    0.29    3.01    3.02    80.04554    56.37170    26.58144
   164  O   6.0   -0.43    1.00    1.80    82.32510    56.25896    26.18256
   165  C   4.0   -0.10    3.98    3.59    78.11307    59.69241    23.89792
   166  C   4.0    0.32    2.99    3.02    76.49988    62.16366    23.86258
   167  O   6.0   -0.36    1.00    1.80    74.50869    62.12675    22.62608
   168  O   6.0   -0.42    1.00    1.80    77.36792    63.99704    25.07985
   169  H   1.0    0.28    1.00    1.43    79.49179    62.56600    27.27275
   170  H   1.0    0.12    0.99    1.43    76.74806    58.51437    27.54570
   171  H   1.0    0.13    0.99    1.43    79.92443    60.04218    22.97255
   172  H   1.0    0.13    0.99    1.43    77.08544    58.21883    22.88864
   173  N   5.0   -0.48    3.02    1.93    78.53784    54.36677    26.81686
   174  C   4.0    0.08    3.99    3.60    79.29713    51.76517    27.05713
   175  C   4.0    0.28    3.02    3.02    78.02082    50.26180    24.93594
   176  O   6.0   -0.40    1.00    1.80    76.47211    51.23524    23.52252
   177  C   4.0   -0.13    3.98    3.59    78.36461    50.72371    29.61070
   178  C   4.0   -0.12    3.98    3.59    78.92955    52.54545    31.77824
   179  C   4.0   -0.03    3.99    3.60    77.57978    51.81916    34.21958
   180  N   5.0   -0.47    3.02    1.93    78.79393    49.71750    35.46141
   181  C   4.0    0.37    3.00    3.02    79.39714    49.51031    37.87261
   182  N   5.0   -0.65    3.02    1.93    80.54443    47.39682    38.65579
   183  N   5.0   -0.63    3.01    1.93    79.12168    51.38256    39.54012
   184  H   1.0    0.24    1.00    1.43    76.67525    54.68214    27.17951
   185  H   1.0    0.15    0.99    1.43    81.35946    51.66950    26.91220
   186  H   1.0    0.13    0.99    1.43    76.31704    50.47781    29.45282
   187  H   1.0    0.14    0.99    1.43    79.18800    48.86060    29.93505
   188  H   1.0    0.18    0.99    1.43    80.96139    52.67810    32.09443
   189  H   1.0    0.14    0.99    1.43    78.26284    54.41989    31.24376
   190  H   1.0    0.12    0.99    1.43    77.55506    53.46381    35.45589
   191  H   1.0    0.12    0.99    1.43    75.61886    51.31795    33.78048
   192  H   1.0    0.30    1.00    1.43    79.16090    48.17722    34.35031
   193  H   1.0    0.29    1.00    1.43    80.60797    45.91865    37.44901
   194  H   1.0    0.26    1.00    1.43    80.71293    47.09282    40.52900
   195  H   1.0    0.26    1.00    1.43    78.02655    52.86630    39.06935
   196  H   1.0    0.26    1.00    1.43    79.18694    50.89232    41.40176
   197  N   5.0   -0.47    3.01    1.93    78.70187    47.82206    24.69398
   198  C   4.0    0.07    3.99    3.60    77.25177    46.15413    23.07657
   199  C   4.0    0.07    3.00    3.02    74.89959    45.22159    24.50525
   200  O   6.0   -0.37    1.00    1.80    74.75625    45.30490    26.82816
   201  C   4.0   -0.20    3.98    3.59    78.85949    43.93871    22.12459
   202  H   1.0    0.28    1.00    1.43    79.93883    47.01170    25.89999
   203  H   1.0    0.14    0.99    1.43    76.58273    47.33859    21.51555
   204  H   1.0    0.10    0.99    1.43    78.89668    43.87821    20.07602
   205  H   1.0    0.15    0.99    1.43    80.77814    44.19152    22.80505
   206  H   1.0    0.12    0.99    1.43    78.13747    42.15398    22.85482
   207  N   5.0   -0.69    3.01    1.93    91.25124    33.70455    31.52879
   208  C   4.0    0.08    3.98    3.59    92.87446    35.42371    30.16154
   209  C   4.0    0.24    3.03    3.02    91.61841    38.01097    30.25771
   210  O   6.0   -0.42    1.00    1.80    89.49085    38.26348    31.15632
   211  C   4.0   -0.11    3.98    3.59    93.33473    34.47619    27.44062
   212  C   4.0    0.27    3.00    3.02    95.92017    33.19322    27.31245
   213  O   6.0   -0.39    1.00    1.80    97.80286    34.25156    28.11354
   214  N   5.0   -0.64    3.00    1.93    95.99114    30.94160    26.16153
   215  H   1.0    0.31    1.00    1.43    89.52589    34.42096    31.95877
   216  H   1.0    0.15    0.99    1.43    94.71570    35.52745    31.11618
   217  H   1.0    0.11    0.99    1.43    91.81761    33.20124    26.87989
   218  H   1.0    0.12    0.99    1.43    93.38927    36.05851    26.12012
   219  H   1.0    0.29    1.00    1.43    97.65386    30.01270    26.16968
   220  H   1.0    0.26    1.00    1.43    94.41662    29.96209    25.75039
   221  N   5.0   -0.36    3.03    1.93    92.89667    39.97401    29.30694
   222  C   4.0    0.07    4.04    3.68    91.85208    42.48003    29.68077
   223  C   4.0    0.29    3.01    3.02    89.49228    43.03547    28.15170
   224  O   6.0   -0.47    1.00    1.80    88.38675    45.04458    28.49594
   225  C   4.0   -0.14    4.01    3.64    94.03720    44.30404    29.10462
   226  C   4.0   -0.14    4.01    3.64    96.37481    42.65923    29.51029
   227  C   4.0   -0.04    4.02    3.65    95.52058    40.10106    28.49442
   228  H   1.0    0.12    0.99    1.43    91.25143    42.67000    31.66107
   229  H   1.0    0.12    0.99    1.43    93.94179    44.94185    27.15038
   230  H   1.0    0.09    0.99    1.43    93.97543    45.94559    30.33690
   231  H   1.0    0.11    0.99    1.43    98.01939    43.35503    28.49915
   232  H   1.0    0.10    0.99    1.43    96.79502    42.51900    31.52196
   233  H   1.0    0.15    0.99    1.43    95.61708    40.09477    26.42420
   234  H   1.0    0.13    0.99    1.43    96.61488    38.52188    29.22957
   235  N   5.0   -0.47    3.00    1.93    88.67334    41.36815    26.43664
   236  C   4.0    0.03    4.00    3.61    86.39376    41.90812    25.00920
   237  C   4.0    0.28    3.01    3.02    84.21336    42.85843    26.65735
   238  O   6.0   -0.42    1.00    1.80    83.06445    44.78862    26.11364
   239  H   1.0    0.26    1.00    1.43    89.41150    39.61444    26.37451
   240  H   1.0    0.15    0.99    1.43    86.75858    43.44230    23.66457
   241  H   1.0    0.11    0.99    1.43    85.79112    40.21675    24.00266
   242  N   5.0   -0.47    3.00    1.93    83.69018    41.51794    28.76165
   243  C   4.0    0.08    4.00    3.62    81.52306    42.25150    30.26844
   244  C   4.0    0.27    3.01    3.02    81.99647    44.63937    31.82468
   245  O   6.0   -0.49    1.00    1.80    80.42519    45.28796    33.41680
   246  C   4.0   -0.09    3.99    3.60    80.87208    40.17335    32.15391
   247  C   4.0    0.31    2.99    3.02    80.35891    37.61034    30.80964
   248  O   6.0   -0.36    1.00    1.80    78.22319    36.66823    31.07238
   249  O   6.0   -0.40    1.00    1.80    82.18585    36.69580    29.61054
   250  H   1.0    0.29    1.00    1.43    84.03744    39.61460    28.87106
   251  H   1.0    0.15    0.99    1.43    79.87021    42.63108    29.05180
   252  H   1.0    0.12    0.99    1.43    82.45898    39.93168    33.44545
   253  H   1.0    0.14    0.99    1.43    79.20402    40.74843    33.21278
   254  N   5.0   -0.47    3.00    1.93    84.17198    45.81043    31.43582
   255  C   4.0    0.08    4.00    3.61    85.13650    47.84236    32.99516
   256  C   4.0    0.27    3.01    3.02    85.48745    50.28692    31.48204
   257  O   6.0   -0.43    1.00    1.80    84.84369    52.33332    32.34315
   258  C   4.0   -0.08    3.98    3.58    87.65898    47.10464    34.26669
   259  C   4.0   -0.22    3.98    3.59    88.38081    49.08128    36.24047
   260  C   4.0   -0.21    3.98    3.59    87.45085    44.51265    35.51519
   261  H   1.0    0.32    1.00    1.43    85.34373    44.97184    30.16347
   262  H   1.0    0.15    0.99    1.43    83.72146    48.22474    34.45600
   263  H   1.0    0.13    0.99    1.43    89.10595    47.03336    32.79173
   264  H   1.0    0.10    0.99    1.43    90.23159    48.65617    37.02016
   265  H   1.0    0.14    0.99    1.43    88.42704    50.95544    35.40728
   266  H   1.0    0.11    0.99    1.43    87.00199    49.08389    37.76179
   267  H   1.0    0.09    0.99    1.43    89.21220    44.08202    36.47356
   268  H   1.0    0.11    0.99    1.43    85.93519    44.50442    36.90324
   269  H   1.0    0.13    0.99    1.43    87.06783    43.02715    34.14471
   270  N   5.0   -0.47    3.01    1.93    86.63435    49.99055    29.25824
   271  C   4.0    0.08    4.00    3.61    87.05036    52.02143    27.49249
   272  C   4.0    0.27    3.02    3.02    86.25988    51.14691    24.85629
   273  O   6.0   -0.36    1.00    1.80    86.27559    48.92923    24.23754
   274  C   4.0   -0.12    3.99    3.61    89.88020    52.69755    27.36389
   275  C   4.0   -0.02    3.03    3.02    90.90328    53.32584    29.93145
   276  C   4.0   -0.08    3.03    3.02    90.09822    55.48998    31.17575
   277  C   4.0   -0.10    3.03    3.02    92.62823    51.74842    31.11317
   278  C   4.0   -0.10    3.03    3.02    90.97408    56.04727    33.57170
   279  C   4.0   -0.12    3.03    3.02    93.52258    52.31132    33.50345
   280  C   4.0   -0.11    3.03    3.02    92.68562    54.45353    34.74416
   281  H   1.0    0.31    1.00    1.43    87.10027    48.24913    28.61319
   282  H   1.0    0.15    0.99    1.43    85.93839    53.65780    28.09968
   283  H   1.0    0.12    0.99    1.43    90.87620    51.08073    26.56198
   284  H   1.0    0.10    0.99    1.43    90.09038    54.29969    26.08960
   285  H   1.0    0.11    1.00    1.43    88.75006    56.71806    30.26365
   286  H   1.0    0.10    1.00    1.43    93.25687    50.06409    30.15262
   287  H   1.0    0.10    1.00    1.43    90.30679    57.72340    34.52327
   288  H   1.0    0.09    1.00    1.43    94.86288    51.06649    34.39974
   289  H   1.0    0.10    1.00    1.43    93.34850    54.87818    36.62104
   290  N   5.0   -0.48    3.01    1.93    85.68294    53.04435    23.26967
   291  C   4.0    0.08    3.99    3.60    84.98105    52.54405    20.67124
   292  C   4.0    0.28    3.01    3.02    87.42991    52.37462    19.09838
   293  O   6.0   -0.39    1.00    1.80    89.31980    51.41995    20.01372
   294  C   4.0   -0.14    3.98    3.59    82.98064    54.40645    19.74995
   295  C   4.0   -0.12    3.98    3.59    81.19036    53.25692    17.76404
   296  C   4.0    0.27    3.00    3.02    80.82479    55.06033    15.55672
   297  O   6.0   -0.42    1.00    1.80    82.67005    55.90964    14.41974
   298  N   5.0   -0.64    3.00    1.93    78.43129    55.55858    14.92202
   299  H   1.0    0.26    1.00    1.43    85.40262    54.79668    23.96509
   300  H   1.0    0.15    0.99    1.43    84.20467    50.61467    20.67260
   301  H   1.0    0.14    0.99    1.43    81.87637    55.01690    21.38203
   302  H   1.0    0.14    0.99    1.43    83.90171    56.09023    18.98959
   303  H   1.0    0.11    0.99    1.43    82.03200    51.53430    16.98833
   304  H   1.0    0.12    0.99    1.43    79.39080    52.76383    18.63539
   305  H   1.0    0.27    1.00    1.43    76.96837    54.96151    15.99424
   306  H   1.0    0.29    1.00    1.43    78.07597    56.77521    13.49475
   307  N   5.0   -0.50    3.00    1.93    87.36948    53.22536    16.71036
   308  C   4.0    0.09    4.00    3.62    89.55186    52.81487    15.09153
   309  C   4.0    0.29    3.01    3.02    91.49368    54.93131    15.34940
   310  O   6.0   -0.43    1.00    1.80    93.75387    54.54020    15.64247
   311  C   4.0   -0.09    3.98    3.58    88.81100    52.46025    12.34085
   312  C   4.0    0.32    2.99    3.02    91.06088    51.24583    10.81563
   313  O   6.0   -0.38    1.00    1.80    92.22895    49.50686    11.86923
   314  O   6.0   -0.36    1.00    1.80    91.45472    52.11840     8.66770
   315  H   1.0    0.27    1.00    1.43    85.82169    54.06044    15.94641
   316  H   1.0    0.17    0.99    1.43    90.48164    51.07878    15.73708
   317  H   1.0    0.13    0.99    1.43    87.21825    51.15052    12.21739
   318  H   1.0    0.14    0.99    1.43    88.27888    54.23820    11.44824
   319  N   5.0   -0.46    3.01    1.93    90.52726    57.26954    15.28591
   320  C   4.0    0.10    4.00    3.61    92.12596    59.49140    15.42918
   321  C   4.0    0.26    3.01    3.02    92.52455    60.12676    18.23817
   322  O   6.0   -0.43    1.00    1.80    91.01044    61.40399    19.42698
   323  C   4.0    0.04    3.98    3.58    90.90508    61.71965    14.03899
   324  O   6.0   -0.45    1.99    1.82    90.24251    60.85196    11.60247
   325  C   4.0   -0.21    3.98    3.59    92.73599    63.94834    13.93999
   326  H   1.0    0.26    1.00    1.43    88.67321    57.53224    14.93887
   327  H   1.0    0.14    0.99    1.43    93.92317    59.00352    14.52604
   328  H   1.0    0.14    0.99    1.43    89.19823    62.27135    15.09990
   329  H   1.0    0.26    0.99    1.43    89.61053    62.25741    10.62590
   330  H   1.0    0.11    0.99    1.43    91.84369    65.55650    13.02808
   331  H   1.0    0.12    0.99    1.43    93.26886    64.48881    15.84598
   332  H   1.0    0.12    0.99    1.43    94.41707    63.43124    12.88187
   333  N   5.0   -0.48    3.01    1.93    94.65071    59.18138    19.24168
   334  C   4.0    0.08    4.00    3.61    95.11984    59.29113    21.94768
   335  C   4.0    0.27    3.01    3.02    97.44038    60.95723    22.47957
   336  O   6.0   -0.44    1.00    1.80    99.57618    60.31195    21.89632
   337  C   4.0   -0.09    3.98    3.59    95.55380    56.64020    23.06745
   338  C   4.0   -0.23    3.98    3.59    95.55619    56.81381    25.94788
   339  C   4.0   -0.19    3.98    3.59    93.52029    54.81906    22.14642
   340  H   1.0    0.25    1.00    1.43    95.66175    57.91857    18.22203
   341  H   1.0    0.13    0.99    1.43    93.42459    60.13577    22.78564
   342  H   1.0    0.13    0.99    1.43    97.40791    55.97225    22.44348
   343  H   1.0    0.10    0.99    1.43    95.89770    54.96508    26.77074
   344  H   1.0    0.12    0.99    1.43    97.01020    58.11002    26.60005
   345  H   1.0    0.10    0.99    1.43    93.73764    57.48365    26.63053
   346  H   1.0    0.11    0.99    1.43    93.61858    53.04279    23.16536
   347  H   1.0    0.13    0.99    1.43    91.64966    55.62046    22.45135
   348  H   1.0    0.16    0.99    1.43    93.68135    54.40721    20.14223
   349  N   5.0   -0.48    3.01    1.93    96.95072    63.13354    23.68303
   350  C   4.0    0.08    3.99    3.61    98.87935    65.00183    24.24156
   351  C   4.0    0.27    3.01    3.02   100.02977    64.35279    26.81542
   352  O   6.0   -0.47    1.00    1.80    99.17295    65.22314    28.79984
   353  C   4.0    0.04    3.98    3.58    97.62872    67.62977    24.30970
   354  O   6.0   -0.48    1.99    1.82    95.49255    67.53081    25.91165
   355  C   4.0   -0.20    3.98    3.59    96.77602    68.45647    21.68749
   356  H   1.0    0.26    1.00    1.43    95.16804    63.67928    24.10907
   357  H   1.0    0.11    0.99    1.43   100.35926    64.92163    22.79865
   358  H   1.0    0.11    0.99    1.43    99.02538    68.98671    25.04376
   359  H   1.0    0.29    0.99    1.43    96.09632    66.94913    27.54767
   360  H   1.0    0.12    0.99    1.43    95.78367    70.24655    21.84392
   361  H   1.0    0.10    0.99    1.43    98.42131    68.71621    20.48839
   362  H   1.0    0.13    0.99    1.43    95.52396    67.05065    20.86403
   363  N   5.0   -0.50    3.01    1.93   101.86354    62.63711    26.76740
   364  C   4.0    0.07    3.99    3.61   102.92823    61.65548    29.09423
   365  C   4.0    0.07    2.99    3.02   104.30434    63.69171    30.63496
   366  O   6.0   -0.43    1.00    1.80   104.07214    63.71574    32.95361
   367  C   4.0   -0.09    3.98    3.58   104.48975    59.24927    28.61204
   368  C   4.0   -0.22    3.98    3.59   106.89038    59.77356    27.10393
   369  C   4.0   -0.23    3.98    3.59   105.10510    57.95308    31.12060
   370  H   1.0    0.25    1.00    1.43   102.49891    61.98391    25.08903
   371  H   1.0    0.13    0.99    1.43   101.32243    61.13963    30.30849
   372  H   1.0    0.11    0.99    1.43   103.27831    57.98974    27.49802
   373  H   1.0    0.10    0.99    1.43   107.89520    58.01263    26.76414
   374  H   1.0    0.11    0.99    1.43   106.46797    60.64319    25.28828
   375  H   1.0    0.11    0.99    1.43   108.12367    61.05787    28.12818
   376  H   1.0    0.10    0.99    1.43   106.03529    56.15308    30.78618
   377  H   1.0    0.13    0.99    1.43   106.34387    59.13261    32.25485
   378  H   1.0    0.10    0.99    1.43   103.39242    57.61549    32.20196
   379  N   5.0   -0.69    3.00    1.93    99.24571    67.23396    34.00388
   380  C   4.0    0.07    3.98    3.58    98.18929    65.62478    35.95710
   381  C   4.0    0.08    3.00    3.02    99.62958    66.04954    38.42837
   382  O   6.0   -0.41    1.00    1.80    98.57604    66.71332    40.38529
   383  C   4.0   -0.13    3.99    3.60    98.34611    62.87501    35.10224
   384  C   4.0   -0.10    3.98    3.58    97.35919    60.99353    37.06803
   385  C   4.0   -0.22    3.98    3.59    94.51258    61.29115    37.43819
   386  C   4.0   -0.24    3.98    3.59    98.01658    58.31259    36.23165
   387  H   1.0    0.32    1.00    1.43    99.70419    66.44973    32.31981
   388  H   1.0    0.12    0.99    1.43    96.22569    66.19908    36.29111
   389  H   1.0    0.11    0.99    1.43    97.26471    62.69497    33.35177
   390  H   1.0    0.14    0.99    1.43   100.32220    62.46784    34.66866
   391  H   1.0    0.13    0.99    1.43    98.30820    61.37730    38.86811
   392  H   1.0    0.10    0.99    1.43    93.78092    59.76766    38.60421
   393  H   1.0    0.11    0.99    1.43    94.09366    63.07646    38.36192
   394  H   1.0    0.10    0.99    1.43    93.55587    61.24574    35.61941
   395  H   1.0    0.10    0.99    1.43    97.41559    56.95826    37.65091
   396  H   1.0    0.10    0.99    1.43    97.07852    57.86963    34.45712
   397  H   1.0    0.10    0.99    1.43   100.04580    58.11752    35.97048
   398  N   5.0   -0.71    3.00    1.93    90.19053    41.78341    49.30897
   399  C   4.0    0.06    3.98    3.58    90.68513    41.51749    46.62751
   400  C   4.0    0.07    3.00    3.02    93.49664    41.95282    46.06351
   401  O   6.0   -0.43    1.00    1.80    94.31396    43.87961    45.11869
   402  C   4.0   -0.13    3.98    3.59    89.06973    43.35696    45.08676
   403  C   4.0   -0.11    3.98    3.58    88.44403    42.39516    42.42103
   404  C   4.0   -0.21    3.98    3.59    90.82228    41.70605    40.93950
   405  C   4.0   -0.23    3.98    3.59    86.58388    40.18999    42.47270
   406  H   1.0    0.27    1.00    1.43    90.27861    43.55877    50.03026
   407  H   1.0    0.11    0.99    1.43    90.21800    39.55402    46.16590
   408  H   1.0    0.10    0.99    1.43    87.30839    43.70265    46.09991
   409  H   1.0    0.13    0.99    1.43    90.12090    45.12762    44.93425
   410  H   1.0    0.10    0.99    1.43    87.52834    43.96576    41.43319
   411  H   1.0    0.10    0.99    1.43    90.31165    41.10135    39.04502
   412  H   1.0    0.12    0.99    1.43    92.07467    43.32942    40.81982
   413  H   1.0    0.11    0.99    1.43    91.86304    40.16454    41.81621
   414  H   1.0    0.11    0.99    1.43    86.32956    39.43601    40.58241
   415  H   1.0    0.10    0.99    1.43    87.24774    38.66536    43.67936
   416  H   1.0    0.10    0.99    1.43    84.75525    40.80709    43.17153
   417  H   1.0    0.16    1.00    1.43   107.68203    43.27113    31.05767
   418  H   1.0    0.31    1.00    1.43   111.40661    46.85033    33.32108
   419  H   1.0    0.16    1.00    1.43   107.27784    42.32220    39.72561
   420  H   1.0    0.29    1.00    1.43    83.54754    62.88290    34.97272
   421  H   1.0    0.13    1.00    1.43    73.42812    44.52219    23.54783
   422  H   1.0    0.30    1.00    1.43    90.99005    32.30695    30.59548
   423  H   1.0    0.13    1.00    1.43   105.37410    64.97876    29.75737
   424  H   1.0    0.30    1.00    1.43    98.13572    68.46399    33.61981
   425  H   1.0    0.15    1.00    1.43   101.49987    65.78618    38.48923
   426  H   1.0    0.29    1.00    1.43    88.62276    41.22252    49.65546
   427  H   1.0    0.13    1.00    1.43    94.76193    40.61136    46.47653

           ------------------------------------------------- 
          |        Self-Consistent Charge Iterations        |
           ------------------------------------------------- 

          ...................................................
          :                      SETUP                      :
          :.................................................:
          :  # basis functions                1051          :
          :  # atomic orbitals                1050          :
          :  # shells                          634          :
          :  # electrons                      1160          :
          :  max. iterations                   250          :
          :  Hamiltonian                  GFN2-xTB          :
          :  restarted?                      false          :
          :  GBSA solvation                   true          :
          :  PC potential                    false          :
          :  electronic temp.          500.0000000     K    :
          :  accuracy                    0.1000000          :
          :  -> integral cutoff          0.3500000E+02      :
          :  -> integral neglect         0.1000000E-08      :
          :  -> SCF convergence          0.1000000E-06 Eh   :
          :  -> wf. convergence          0.1000000E-04 e    :
          :  Broyden damping             0.4000000          :
          ...................................................

 iter      E             dE          RMSdq      gap      omega  full diag
   1   -663.8599885 -0.663860E+03  0.427E+00    1.99       0.0  T
   2   -665.7308621 -0.187087E+01  0.220E+00    1.48       1.0  T
   3   -665.7974975 -0.666354E-01  0.119E+00    1.81       1.0  T
   4   -665.8163537 -0.188562E-01  0.291E-01    1.23       1.0  T
   5   -665.8347282 -0.183746E-01  0.123E-01    1.34       1.0  T
   6   -665.8355071 -0.778856E-03  0.562E-02    1.28       1.0  T
   7   -665.8356101 -0.103017E-03  0.250E-02    1.26       1.0  T
   8   -665.8356835 -0.733475E-04  0.107E-02    1.25       1.0  T
   9   -665.8356917 -0.824465E-05  0.507E-03    1.24       1.0  T
  10   -665.8356938 -0.207906E-05  0.215E-03    1.24       2.3  T
  11   -665.8356941 -0.288831E-06  0.910E-04    1.23       5.3  T
  12   -665.8356941 -0.584483E-07  0.411E-04    1.23      11.8  T
  13   -665.8356941 -0.163617E-07  0.196E-04    1.23      24.6  T
  14   -665.8356941 -0.255011E-08  0.829E-05    1.23      58.4  T
  15   -665.8356941 -0.599130E-09  0.377E-05    1.23     128.3  T

   *** convergence criteria satisfied after 15 iterations ***

         #    Occupation            Energy/Eh            Energy/eV
      -------------------------------------------------------------
         1        2.0000           -0.7453944             -20.2832
       ...           ...                  ...                  ...
       574        2.0000           -0.3680224             -10.0144
       575        2.0000           -0.3656924              -9.9510
       576        2.0000           -0.3644248              -9.9165
       577        2.0000           -0.3619634              -9.8495
       578        2.0000           -0.3567804              -9.7085
       579        2.0000           -0.3551274              -9.6635
       580        2.0000           -0.3464198              -9.4266 (HOMO)
       581        0.0000           -0.3010793              -8.1928 (LUMO)
       582                         -0.2896677              -7.8823
       583                         -0.2751049              -7.4860
       584                         -0.2746347              -7.4732
       585                         -0.2742329              -7.4623
       ...                                ...                  ...
      1050                          0.6801707              18.5084
      -------------------------------------------------------------
                  HL-Gap            0.0453405 Eh            1.2338 eV
             Fermi-level           -0.3237457 Eh           -8.8096 eV

 SCC (total)                   0 d,  0 h,  0 min, 14.179 sec
 SCC setup                      ...        0 min,  0.171 sec (  1.206%)
 Dispersion                     ...        0 min,  0.182 sec (  1.285%)
 integral evaluation            ...        0 min,  0.738 sec (  5.202%)
 zeroth order Hamiltonian       ...        0 min,  0.023 sec (  0.165%)
 iterations                     ...        0 min, 10.919 sec ( 77.006%)
 molecular gradient             ...        0 min,  2.068 sec ( 14.585%)
 printout                       ...        0 min,  0.078 sec (  0.550%)

         :::::::::::::::::::::::::::::::::::::::::::::::::::::
         ::                     SUMMARY                     ::
         :::::::::::::::::::::::::::::::::::::::::::::::::::::
         :: total energy             -657.886659144471 Eh   ::
         :: total w/o Gsasa/hb       -657.802261029184 Eh   ::
         :: gradient norm               0.518802193076 Eh/α ::
         :: HOMO-LUMO gap               1.233777574221 eV   ::
         ::.................................................::
         :: SCC energy               -665.853140211089 Eh   ::
         :: -> isotropic ES             2.229672014506 Eh   ::
         :: -> anisotropic ES          -0.085816903330 Eh   ::
         :: -> anisotropic XC           0.214843843928 Eh   ::
         :: -> dispersion              -0.549173302211 Eh   ::
         :: -> Gsolv                   -0.636233867482 Eh   ::
         ::    -> Gborn                -0.551835752194 Eh   ::
         ::    -> Gsasa                -0.019303509788 Eh   ::
         ::    -> Ghb                  -0.066952048626 Eh   ::
         ::    -> Gshift                0.001857443127 Eh   ::
         :: repulsion energy            7.917362148778 Eh   ::
         :: add. restraining            0.000000000000 Eh   ::
         :::::::::::::::::::::::::::::::::::::::::::::::::::::

           -------------------------------------------------
          |                Property Printout                |
           -------------------------------------------------

    * Orbital Energies and Occupations

         #    Occupation            Energy/Eh            Energy/eV
      -------------------------------------------------------------
         1        2.0000           -0.7453944             -20.2832
       ...           ...                  ...                  ...
       568        2.0000           -0.3876882             -10.5495
       569        2.0000           -0.3864968             -10.5171
       570        2.0000           -0.3831917             -10.4272
       571        2.0000           -0.3820708             -10.3967
       572        2.0000           -0.3720650             -10.1244
       573        2.0000           -0.3692946             -10.0490
       574        2.0000           -0.3680224             -10.0144
       575        2.0000           -0.3656924              -9.9510
       576        2.0000           -0.3644248              -9.9165
       577        2.0000           -0.3619634              -9.8495
       578        2.0000           -0.3567804              -9.7085
       579        2.0000           -0.3551274              -9.6635
       580        2.0000           -0.3464198              -9.4266 (HOMO)
       581        0.0000           -0.3010793              -8.1928 (LUMO)
       582                         -0.2896677              -7.8823
       583                         -0.2751049              -7.4860
       584                         -0.2746347              -7.4732
       585                         -0.2742329              -7.4623
       586                         -0.2675279              -7.2798
       587                         -0.2601110              -7.0780
       588                         -0.2490902              -6.7781
       589                         -0.2466876              -6.7127
       590                         -0.2447505              -6.6600
       591                         -0.2434171              -6.6237
       ...                                ...                  ...
      1050                          0.6801707              18.5084
      -------------------------------------------------------------
                  HL-Gap            0.0453405 Eh            1.2338 eV
             Fermi-level           -0.3237457 Eh           -8.8096 eV

   #   Z        covCN         q      C6AA      α(0)
   1   7 N      3.482    -0.148    24.202     7.307
   2   6 C      3.780    -0.036    21.247     6.567
   3   6 C      2.757     0.264    22.547     7.776
   4   8 O      0.860    -0.453    22.758     6.396
   5   6 C      3.835    -0.091    22.215     6.706
   6   6 C      3.792    -0.034    21.197     6.557
   7  16 S      1.970    -0.204   149.752    20.596
   8   6 C      3.744    -0.070    21.911     6.677
   9   1 H      0.859     0.313     0.675     1.287
  10   1 H      0.859     0.301     0.711     1.321
  11   1 H      0.859     0.294     0.732     1.340
  12   1 H      0.923     0.163     1.305     1.787
  13   1 H      0.924     0.099     1.792     2.093
  14   1 H      0.924     0.104     1.750     2.068
  15   1 H      0.925     0.073     2.050     2.239
  16   1 H      0.925     0.066     2.132     2.283
  17   1 H      0.925     0.069     2.098     2.265
  18   1 H      0.925     0.067     2.121     2.277
  19   1 H      0.925     0.048     2.342     2.393
  20   7 N      2.686    -0.164    24.551     7.359
  21   6 C      3.798     0.007    20.455     6.440
  22   6 C      2.758     0.279    22.284     7.730
  23   8 O      0.858    -0.455    22.809     6.403
  24   6 C      3.754    -0.136    23.182     6.865
  25   1 H      0.860     0.235     0.942     1.520
  26   1 H      0.924     0.103     1.761     2.075
  27   1 H      0.925     0.062     2.176     2.307
  28   1 H      0.925     0.081     1.971     2.195
  29   1 H      0.925     0.062     2.171     2.304
  30   7 N      2.687    -0.193    25.196     7.455
  31   6 C      3.798     0.020    20.248     6.407
  32   6 C      2.753     0.276    22.327     7.738
  33   8 O      0.858    -0.471    23.154     6.451
  34   6 C      3.808    -0.116    22.709     6.784
  35   6 C      2.744     0.292    22.047     7.688
  36   8 O      0.859    -0.466    23.050     6.437
  37   7 N      2.639    -0.270    27.001     7.717
  38   1 H      0.860     0.217     1.024     1.585
  39   1 H      0.923     0.066     2.129     2.282
  40   1 H      0.924     0.079     1.993     2.208
  41   1 H      0.925     0.103     1.759     2.074
  42   1 H      0.860     0.196     1.126     1.662
  43   1 H      0.860     0.211     1.050     1.605
  44   7 N      2.689    -0.176    24.821     7.399
  45   6 C      3.796     0.002    20.552     6.455
  46   6 C      2.755     0.269    22.454     7.760
  47   8 O      0.858    -0.492    23.603     6.514
  48   6 C      3.806    -0.102    22.446     6.745
  49   6 C      3.804    -0.078    21.983     6.675
  50   6 C      3.802    -0.099    22.383     6.736
  51   6 C      3.733    -0.054    21.635     6.639
  52   7 N      3.482    -0.145    24.123     7.295
  53   1 H      0.860     0.225     0.988     1.557
  54   1 H      0.924     0.089     1.888     2.149
  55   1 H      0.924     0.089     1.885     2.147
  56   1 H      0.924     0.091     1.869     2.138
  57   1 H      0.925     0.078     2.004     2.214
  58   1 H      0.924     0.049     2.333     2.389
  59   1 H      0.924     0.068     2.112     2.272
  60   1 H      0.924     0.087     1.911     2.162
  61   1 H      0.925     0.124     1.580     1.966
  62   1 H      0.924     0.112     1.683     2.029
  63   1 H      0.859     0.302     0.709     1.319
  64   1 H      0.857     0.283     0.766     1.371
  65   1 H      0.859     0.303     0.704     1.315
  66   7 N      2.692    -0.182    24.950     7.418
  67   6 C      3.796     0.021    20.225     6.404
  68   6 C      2.762     0.282    22.229     7.721
  69   8 O      0.858    -0.501    23.806     6.542
  70   6 C      3.757    -0.139    23.239     6.873
  71   1 H      0.860     0.240     0.921     1.504
  72   1 H      0.923     0.073     2.054     2.241
  73   1 H      0.925     0.058     2.226     2.333
  74   1 H      0.925     0.083     1.951     2.184
  75   1 H      0.925     0.075     2.028     2.227
  76   7 N      2.689    -0.182    24.949     7.418
  77   6 C      3.803     0.019    20.260     6.408
  78   6 C      2.769     0.276    22.336     7.740
  79   8 O      0.861    -0.472    23.182     6.455
  80   6 C      3.851    -0.024    20.973     6.514
  81   6 C      3.755    -0.124    22.943     6.830
  82   6 C      3.756    -0.123    22.907     6.824
  83   1 H      0.860     0.223     0.995     1.563
  84   1 H      0.923     0.076     2.022     2.224
  85   1 H      0.924     0.059     2.213     2.326
  86   1 H      0.925     0.047     2.357     2.401
  87   1 H      0.925     0.053     2.288     2.365
  88   1 H      0.925     0.045     2.380     2.413
  89   1 H      0.925     0.055     2.253     2.347
  90   1 H      0.925     0.050     2.325     2.384
  91   1 H      0.925     0.045     2.388     2.417
  92   7 N      2.688    -0.169    24.668     7.376
  93   6 C      3.814     0.041    19.871     6.345
  94   6 C      2.770     0.212    23.519     7.943
  95   8 O      0.856    -0.392    21.529     6.221
  96   6 C      3.812    -0.114    22.670     6.777
  97   6 C      2.748     0.293    22.038     7.687
  98   8 O      0.858    -0.486    23.466     6.495
  99   7 N      2.636    -0.292    27.535     7.793
 100   1 H      0.860     0.241     0.920     1.502
 101   1 H      0.924     0.070     2.089     2.260
 102   1 H      0.924     0.094     1.842     2.123
 103   1 H      0.925     0.102     1.767     2.079
 104   1 H      0.860     0.232     0.957     1.532
 105   1 H      0.860     0.228     0.975     1.547
 106   7 N      2.635    -0.403    30.456     8.196
 107   6 C      3.788     0.042    19.883     6.351
 108   6 C      2.755     0.273    22.379     7.747
 109   8 O      0.858    -0.525    24.354     6.617
 110   6 C      3.812    -0.073    21.883     6.659
 111   6 C      2.968     0.010    27.802     8.649
 112   6 C      2.924    -0.039    28.961     8.825
 113   6 C      2.925    -0.042    29.040     8.837
 114   6 C      2.920    -0.034    28.846     8.807
 115   6 C      2.919    -0.034    28.840     8.807
 116   6 C      2.919    -0.037    28.917     8.818
 117   1 H      0.860     0.183     1.199     1.715
 118   1 H      0.924     0.020     2.732     2.585
 119   1 H      0.924     0.058     2.225     2.333
 120   1 H      0.924     0.058     2.224     2.332
 121   1 H      0.926     0.031     2.572     2.508
 122   1 H      0.926     0.036     2.502     2.474
 123   1 H      0.926     0.031     2.573     2.509
 124   1 H      0.926     0.035     2.513     2.479
 125   1 H      0.926     0.029     2.598     2.521
 126   7 N      2.693    -0.178    24.858     7.405
 127   6 C      3.795     0.029    20.101     6.384
 128   6 C      2.764     0.211    23.526     7.943
 129   8 O      0.856    -0.381    21.314     6.190
 130   6 C      3.854    -0.022    20.937     6.508
 131   6 C      3.805    -0.063    21.702     6.632
 132   6 C      3.754    -0.113    22.714     6.796
 133   6 C      3.751    -0.108    22.619     6.782
 134   1 H      0.860     0.243     0.912     1.496
 135   1 H      0.923     0.069     2.093     2.263
 136   1 H      0.924     0.067     2.121     2.278
 137   1 H      0.924     0.041     2.435     2.440
 138   1 H      0.924     0.046     2.374     2.410
 139   1 H      0.925     0.056     2.252     2.347
 140   1 H      0.925     0.029     2.607     2.525
 141   1 H      0.925     0.050     2.321     2.382
 142   1 H      0.925     0.047     2.352     2.398
 143   1 H      0.925     0.039     2.459     2.452
 144   1 H      0.925     0.042     2.422     2.434
 145   7 N      2.638    -0.398    30.318     8.178
 146   6 C      3.786     0.028    20.114     6.388
 147   6 C      2.761     0.280    22.262     7.727
 148   8 O      0.858    -0.483    23.408     6.487
 149   6 C      3.850    -0.021    20.912     6.504
 150   6 C      3.755    -0.102    22.502     6.764
 151   6 C      3.755    -0.116    22.784     6.806
 152   1 H      0.860     0.171     1.264     1.761
 153   1 H      0.924     0.032     2.563     2.504
 154   1 H      0.924     0.045     2.379     2.412
 155   1 H      0.925     0.048     2.348     2.396
 156   1 H      0.925     0.044     2.392     2.418
 157   1 H      0.925     0.022     2.704     2.572
 158   1 H      0.925     0.054     2.270     2.356
 159   1 H      0.925     0.029     2.606     2.524
 160   1 H      0.925     0.035     2.510     2.477
 161   7 N      2.689    -0.211    25.605     7.515
 162   6 C      3.805     0.054    19.674     6.314
 163   6 C      2.754     0.285    22.178     7.712
 164   8 O      0.858    -0.490    23.565     6.508
 165   6 C      3.805    -0.096    22.323     6.726
 166   6 C      2.684     0.373    20.686     7.443
 167   8 O      0.856    -0.618    26.561     6.910
 168   8 O      0.856    -0.616    26.520     6.904
 169   1 H      0.859     0.223     0.995     1.562
 170   1 H      0.923     0.011     2.871     2.650
 171   1 H      0.924     0.034     2.530     2.487
 172   1 H      0.924     0.029     2.596     2.520
 173   7 N      2.698    -0.165    24.580     7.363
 174   6 C      3.790     0.028    20.118     6.388
 175   6 C      2.763     0.267    22.498     7.768
 176   8 O      0.859    -0.490    23.553     6.507
 177   6 C      3.807    -0.070    21.834     6.652
 178   6 C      3.803    -0.083    22.073     6.689
 179   6 C      3.739    -0.017    20.958     6.532
 180   7 N      2.700    -0.149    24.232     7.311
 181   6 C      2.736     0.230    23.161     7.879
 182   7 N      2.658    -0.264    26.844     7.695
 183   7 N      2.650    -0.259    26.725     7.678
 184   1 H      0.860     0.198     1.118     1.656
 185   1 H      0.924     0.061     2.184     2.311
 186   1 H      0.924     0.051     2.313     2.379
 187   1 H      0.924     0.048     2.344     2.394
 188   1 H      0.924     0.086     1.922     2.168
 189   1 H      0.925     0.060     2.195     2.317
 190   1 H      0.925     0.087     1.912     2.163
 191   1 H      0.924     0.074     2.045     2.237
 192   1 H      0.859     0.240     0.922     1.504
 193   1 H      0.860     0.232     0.958     1.533
 194   1 H      0.860     0.258     0.855     1.448
 195   1 H      0.860     0.239     0.929     1.510
 196   1 H      0.860     0.261     0.841     1.437
 197   7 N      2.689    -0.168    24.632     7.371
 198   6 C      3.792     0.029    20.096     6.384
 199   6 C      2.764     0.195    23.838     7.996
 200   8 O      0.856    -0.374    21.161     6.167
 201   6 C      3.753    -0.133    23.116     6.856
 202   1 H      0.860     0.211     1.050     1.606
 203   1 H      0.924     0.102     1.768     2.080
 204   1 H      0.925     0.087     1.907     2.160
 205   1 H      0.925     0.088     1.898     2.154
 206   1 H      0.925     0.056     2.246     2.344
 207   7 N      2.640    -0.400    30.371     8.185
 208   6 C      3.787     0.038    19.955     6.363
 209   6 C      2.772     0.254    22.739     7.810
 210   8 O      0.859    -0.518    24.185     6.594
 211   6 C      3.805    -0.108    22.556     6.761
 212   6 C      2.744     0.289    22.102     7.698
 213   8 O      0.859    -0.480    23.346     6.478
 214   7 N      2.637    -0.289    27.462     7.783
 215   1 H      0.860     0.163     1.316     1.797
 216   1 H      0.923     0.066     2.129     2.282
 217   1 H      0.925     0.055     2.258     2.350
 218   1 H      0.924     0.069     2.093     2.263
 219   1 H      0.860     0.243     0.911     1.495
 220   1 H      0.860     0.225     0.986     1.555
 221   7 N      2.758    -0.104    23.286     7.167
 222   6 C      3.837     0.023    20.166     6.389
 223   6 C      2.759     0.274    22.368     7.745
 224   8 O      0.860    -0.482    23.393     6.485
 225   6 C      3.831    -0.066    21.747     6.635
 226   6 C      3.834    -0.071    21.824     6.646
 227   6 C      3.772    -0.020    20.959     6.524
 228   1 H      0.923     0.081     1.973     2.197
 229   1 H      0.925     0.059     2.209     2.324
 230   1 H      0.925     0.075     2.029     2.228
 231   1 H      0.925     0.080     1.981     2.201
 232   1 H      0.925     0.063     2.163     2.300
 233   1 H      0.924     0.083     1.946     2.182
 234   1 H      0.925     0.087     1.904     2.158
 235   7 N      2.685    -0.159    24.442     7.343
 236   6 C      3.748    -0.031    21.197     6.567
 237   6 C      2.757     0.282    22.217     7.719
 238   8 O      0.859    -0.477    23.271     6.468
 239   1 H      0.860     0.206     1.075     1.624
 240   1 H      0.924     0.103     1.756     2.073
 241   1 H      0.925     0.087     1.904     2.158
 242   7 N      2.687    -0.213    25.639     7.520
 243   6 C      3.802     0.050    19.741     6.326
 244   6 C      2.759     0.265    22.535     7.774
 245   8 O      0.858    -0.499    23.766     6.536
 246   6 C      3.810    -0.097    22.332     6.727
 247   6 C      2.684     0.371    20.708     7.447
 248   8 O      0.856    -0.626    26.779     6.938
 249   8 O      0.856    -0.627    26.788     6.939
 250   1 H      0.859     0.226     0.984     1.554
 251   1 H      0.923     0.035     2.519     2.482
 252   1 H      0.924     0.038     2.480     2.463
 253   1 H      0.925     0.051     2.308     2.376
 254   7 N      2.688    -0.175    24.779     7.393
 255   6 C      3.798     0.008    20.447     6.438
 256   6 C      2.754     0.272    22.396     7.749
 257   8 O      0.858    -0.480    23.357     6.480
 258   6 C      3.852    -0.020    20.889     6.501
 259   6 C      3.757    -0.125    22.956     6.831
 260   6 C      3.756    -0.115    22.755     6.801
 261   1 H      0.860     0.220     1.009     1.573
 262   1 H      0.924     0.086     1.913     2.163
 263   1 H      0.924     0.047     2.360     2.402
 264   1 H      0.925     0.067     2.122     2.278
 265   1 H      0.925     0.043     2.405     2.425
 266   1 H      0.925     0.062     2.175     2.306
 267   1 H      0.925     0.067     2.117     2.275
 268   1 H      0.925     0.050     2.316     2.380
 269   1 H      0.925     0.020     2.736     2.587
 270   7 N      2.693    -0.182    24.948     7.418
 271   6 C      3.798     0.028    20.106     6.385
 272   6 C      2.762     0.273    22.381     7.747
 273   8 O      0.858    -0.462    22.957     6.424
 274   6 C      3.815    -0.071    21.843     6.652
 275   6 C      2.972     0.013    27.723     8.637
 276   6 C      2.926    -0.033    28.829     8.805
 277   6 C      2.926    -0.044    29.099     8.846
 278   6 C      2.920    -0.029    28.726     8.789
 279   6 C      2.920    -0.034    28.841     8.807
 280   6 C      2.922    -0.034    28.847     8.808
 281   1 H      0.860     0.235     0.942     1.521
 282   1 H      0.924     0.062     2.170     2.304
 283   1 H      0.924     0.057     2.240     2.341
 284   1 H      0.925     0.054     2.273     2.357
 285   1 H      0.926     0.017     2.774     2.604
 286   1 H      0.926     0.043     2.404     2.425
 287   1 H      0.926     0.031     2.567     2.505
 288   1 H      0.926     0.055     2.262     2.352
 289   1 H      0.926     0.051     2.305     2.374
 290   7 N      2.692    -0.185    25.017     7.428
 291   6 C      3.794     0.021    20.228     6.405
 292   6 C      2.758     0.269    22.454     7.760
 293   8 O      0.859    -0.467    23.065     6.439
 294   6 C      3.803    -0.067    21.774     6.643
 295   6 C      3.804    -0.103    22.458     6.747
 296   6 C      2.744     0.287    22.132     7.703
 297   8 O      0.858    -0.506    23.925     6.558
 298   7 N      2.637    -0.280    27.243     7.752
 299   1 H      0.860     0.203     1.093     1.637
 300   1 H      0.923     0.082     1.961     2.190
 301   1 H      0.924     0.051     2.302     2.373
 302   1 H      0.924     0.051     2.311     2.377
 303   1 H      0.924     0.078     1.995     2.209
 304   1 H      0.925     0.065     2.140     2.288
 305   1 H      0.860     0.233     0.950     1.527
 306   1 H      0.860     0.242     0.916     1.499
 307   7 N      2.686    -0.203    25.414     7.487
 308   6 C      3.803     0.034    19.999     6.367
 309   6 C      2.756     0.274    22.361     7.744
 310   8 O      0.859    -0.471    23.160     6.452
 311   6 C      3.800    -0.102    22.441     6.745
 312   6 C      2.682     0.374    20.665     7.439
 313   8 O      0.856    -0.616    26.521     6.905
 314   8 O      0.856    -0.634    26.968     6.962
 315   1 H      0.860     0.210     1.056     1.610
 316   1 H      0.924     0.084     1.933     2.174
 317   1 H      0.924     0.029     2.595     2.519
 318   1 H      0.925     0.024     2.678     2.559
 319   7 N      2.693    -0.169    24.652     7.374
 320   6 C      3.799     0.017    20.299     6.415
 321   6 C      2.757     0.270    22.435     7.756
 322   8 O      0.858    -0.487    23.490     6.498
 323   6 C      3.727     0.121    18.706     6.175
 324   8 O      1.656    -0.494    22.773     6.442
 325   6 C      3.754    -0.139    23.234     6.873
 326   1 H      0.860     0.194     1.138     1.671
 327   1 H      0.924     0.082     1.954     2.186
 328   1 H      0.923     0.024     2.678     2.559
 329   1 H      0.805     0.346     0.598     1.215
 330   1 H      0.925     0.067     2.113     2.273
 331   1 H      0.925     0.052     2.291     2.367
 332   1 H      0.925     0.073     2.053     2.241
 333   7 N      2.688    -0.167    24.603     7.367
 334   6 C      3.800     0.012    20.372     6.426
 335   6 C      2.753     0.267    22.490     7.766
 336   8 O      0.859    -0.451    22.722     6.391
 337   6 C      3.853    -0.019    20.884     6.500
 338   6 C      3.757    -0.119    22.825     6.812
 339   6 C      3.756    -0.108    22.622     6.781
 340   1 H      0.860     0.220     1.008     1.572
 341   1 H      0.924     0.062     2.179     2.308
 342   1 H      0.924     0.068     2.105     2.269
 343   1 H      0.925     0.066     2.130     2.282
 344   1 H      0.925     0.047     2.358     2.401
 345   1 H      0.925     0.037     2.489     2.467
 346   1 H      0.925     0.060     2.204     2.321
 347   1 H      0.925     0.013     2.842     2.637
 348   1 H      0.925     0.045     2.385     2.415
 349   7 N      2.693    -0.169    24.659     7.375
 350   6 C      3.795     0.001    20.571     6.459
 351   6 C      2.761     0.263    22.570     7.780
 352   8 O      0.859    -0.487    23.492     6.498
 353   6 C      3.728     0.120    18.716     6.176
 354   8 O      1.655    -0.486    22.592     6.416
 355   6 C      3.753    -0.131    23.069     6.849
 356   1 H      0.860     0.210     1.055     1.609
 357   1 H      0.924     0.083     1.951     2.184
 358   1 H      0.923     0.033     2.551     2.498
 359   1 H      0.804     0.334     0.628     1.245
 360   1 H      0.925     0.068     2.106     2.270
 361   1 H      0.925     0.064     2.150     2.293
 362   1 H      0.925     0.052     2.294     2.369
 363   7 N      2.689    -0.159    24.443     7.343
 364   6 C      3.797     0.020    20.244     6.407
 365   6 C      2.762     0.203    23.679     7.969
 366   8 O      0.856    -0.351    20.726     6.104
 367   6 C      3.850    -0.019    20.881     6.499
 368   6 C      3.754    -0.128    23.014     6.841
 369   6 C      3.756    -0.116    22.776     6.805
 370   1 H      0.860     0.228     0.973     1.545
 371   1 H      0.923     0.090     1.880     2.144
 372   1 H      0.924     0.068     2.107     2.270
 373   1 H      0.925     0.068     2.110     2.272
 374   1 H      0.925     0.057     2.240     2.341
 375   1 H      0.925     0.047     2.357     2.401
 376   1 H      0.925     0.058     2.224     2.332
 377   1 H      0.925     0.043     2.406     2.426
 378   1 H      0.925     0.047     2.352     2.398
 379   7 N      2.637    -0.396    30.263     8.170
 380   6 C      3.782     0.047    19.804     6.339
 381   6 C      2.766     0.206    23.628     7.961
 382   8 O      0.856    -0.393    21.550     6.224
 383   6 C      3.812    -0.074    21.908     6.662
 384   6 C      3.850    -0.010    20.713     6.473
 385   6 C      3.755    -0.111    22.687     6.791
 386   6 C      3.757    -0.116    22.768     6.803
 387   1 H      0.860     0.177     1.231     1.738
 388   1 H      0.924     0.032     2.556     2.500
 389   1 H      0.924     0.048     2.343     2.394
 390   1 H      0.924     0.066     2.132     2.284
 391   1 H      0.924     0.018     2.763     2.600
 392   1 H      0.925     0.043     2.403     2.424
 393   1 H      0.925     0.029     2.599     2.521
 394   1 H      0.925     0.040     2.449     2.447
 395   1 H      0.925     0.046     2.377     2.411
 396   1 H      0.925     0.047     2.356     2.400
 397   1 H      0.925     0.042     2.426     2.436
 398   7 N      2.635    -0.389    30.077     8.145
 399   6 C      3.782     0.037    19.980     6.367
 400   6 C      2.765     0.206    23.635     7.962
 401   8 O      0.856    -0.362    20.927     6.133
 402   6 C      3.807    -0.081    22.047     6.684
 403   6 C      3.849    -0.017    20.841     6.493
 404   6 C      3.755    -0.109    22.643     6.785
 405   6 C      3.755    -0.115    22.766     6.803
 406   1 H      0.860     0.159     1.342     1.814
 407   1 H      0.924     0.059     2.207     2.323
 408   1 H      0.924     0.045     2.379     2.412
 409   1 H      0.924     0.057     2.239     2.340
 410   1 H      0.924     0.044     2.402     2.424
 411   1 H      0.925     0.036     2.497     2.471
 412   1 H      0.925     0.043     2.408     2.427
 413   1 H      0.925     0.026     2.650     2.546
 414   1 H      0.925     0.033     2.547     2.496
 415   1 H      0.925     0.036     2.507     2.476
 416   1 H      0.925     0.041     2.430     2.438
 417   1 H      0.930     0.078     1.998     2.210
 418   1 H      0.862     0.176     1.234     1.740
 419   1 H      0.930     0.071     2.072     2.251
 420   1 H      0.862     0.187     1.174     1.697
 421   1 H      0.930     0.089     1.887     2.148
 422   1 H      0.862     0.182     1.204     1.719
 423   1 H      0.930     0.079     1.987     2.204
 424   1 H      0.862     0.174     1.247     1.749
 425   1 H      0.930     0.072     2.067     2.248
 426   1 H      0.862     0.191     1.153     1.682
 427   1 H      0.930     0.063     2.167     2.302

 Mol. C6AA /au·bohr⁶  :    1687679.430569
 Mol. C8AA /au·bohr⁸  :   37735025.738829
 Mol. α(0) /au        :       1944.977085


Wiberg/Mayer (AO) data.
largest (>0.10) Wiberg bond orders for each atom
          total WBO             WBO to atom ...
     1  N   3.660        C    2 0.948    H   10 0.894    H   11 0.894    H    9 0.884
     2  C   3.915        C    5 0.978    C    3 0.949    N    1 0.948    H   12 0.927
     3  C   3.954        O    4 1.606    N   20 1.318    C    2 0.949
     4  O   2.010        C    3 1.606    N   20 0.201
     5  C   3.975        C    6 1.014    C    2 0.978    H   14 0.961    H   13 0.958
     6  C   3.977        C    5 1.014    S    7 0.984    H   16 0.974    H   15 0.970
     7  S   2.088        C    8 1.013    C    6 0.984
     8  C   3.975        S    7 1.013    H   19 0.985    H   18 0.982    H   17 0.978
     9  H   0.902        N    1 0.884
    10  H   0.909        N    1 0.894
    11  H   0.914        N    1 0.894
    12  H   0.973        C    2 0.927
    13  H   0.990        C    5 0.958
    14  H   0.989        C    5 0.961
    15  H   0.995        C    6 0.970
    16  H   0.995        C    6 0.974
    17  H   0.995        C    8 0.978
    18  H   0.996        C    8 0.982
    19  H   0.998        C    8 0.985
    20  N   3.485        C    3 1.318    C   21 0.975    H   25 0.912    O    4 0.201
    21  C   3.964        C   24 0.998    N   20 0.975    H   26 0.945    C   22 0.937
    22  C   3.944        O   23 1.663    N   30 1.257    C   21 0.937
    23  O   2.004        C   22 1.663    N   30 0.185
    24  C   3.983        C   21 0.998    H   29 0.981    H   27 0.977    H   28 0.976
    25  H   0.944        N   20 0.912
    26  H   0.989        C   21 0.945
    27  H   0.995        C   24 0.977
    28  H   0.993        C   24 0.976
    29  H   0.996        C   24 0.981
    30  N   3.420        C   22 1.257    C   31 0.981    H   38 0.916    O   23 0.185
    31  C   3.968        N   30 0.981    C   34 0.971    H   39 0.947    C   32 0.930
    32  C   3.954        O   33 1.633    N   44 1.306    C   31 0.930
    33  O   1.992        C   32 1.633    N   44 0.195
    34  C   3.986        C   31 0.971    H   41 0.967    H   40 0.960    C   35 0.959
    35  C   3.942        O   36 1.673    N   37 1.285    C   34 0.959
    36  O   1.979        C   35 1.673    N   37 0.200
    37  N   3.394        C   35 1.285    H   42 0.936    H   43 0.936    O   36 0.200
    38  H   0.953        N   30 0.916
    39  H   0.995        C   31 0.947
    40  H   0.993        C   34 0.960
    41  H   0.989        C   34 0.967
    42  H   0.961        N   37 0.936
    43  H   0.955        N   37 0.936
    44  N   3.455        C   32 1.306    C   45 0.969    H   53 0.892    O   33 0.195
    45  C   3.952        C   48 0.981    N   44 0.969    H   54 0.953    C   46 0.927
    46  C   3.946        O   47 1.625    N   66 1.315    C   45 0.927
    47  O   1.965        C   46 1.625    N   66 0.201
    48  C   3.978        C   49 1.007    C   45 0.981    H   55 0.969    H   56 0.958
    49  C   3.990        C   48 1.007    C   50 1.004    H   58 0.972    H   57 0.970
    50  C   3.986        C   51 1.010    C   49 1.004    H   60 0.971    H   59 0.969
    51  C   3.909        C   50 1.010    H   62 0.965    H   61 0.964    N   52 0.951
    52  N   3.666        C   51 0.951    H   64 0.905    H   63 0.896    H   65 0.894
    53  H   0.949        N   44 0.892
    54  H   0.991        C   45 0.953
    55  H   0.992        C   48 0.969
    56  H   0.991        C   48 0.958
    57  H   0.994        C   49 0.970
    58  H   0.998        C   49 0.972
    59  H   0.995        C   50 0.969
    60  H   0.992        C   50 0.971
    61  H   0.985        C   51 0.964
    62  H   0.988        C   51 0.965
    63  H   0.909        N   52 0.896
    64  H   0.920        N   52 0.905
    65  H   0.908        N   52 0.894
    66  N   3.474        C   46 1.315    C   67 0.981    H   71 0.888    O   47 0.201
    67  C   3.969        C   70 0.995    N   66 0.981    H   72 0.952    C   68 0.940
    68  C   3.942        O   69 1.619    N   76 1.299    C   67 0.940
    69  O   1.955        C   68 1.619    N   76 0.191
    70  C   3.983        C   67 0.995    H   73 0.983    H   74 0.978    H   75 0.977
    71  H   0.942        N   66 0.888
    72  H   0.994        C   67 0.952
    73  H   0.996        C   70 0.983
    74  H   0.993        C   70 0.978
    75  H   0.994        C   70 0.977
    76  N   3.467        C   68 1.299    C   77 0.987    H   83 0.900    O   69 0.191
    77  C   3.966        N   76 0.987    C   80 0.965    H   84 0.943    C   78 0.937
    78  C   3.942        O   79 1.587    N   92 1.328    C   77 0.937
    79  O   2.019        C   78 1.587    N   92 0.195
    80  C   3.989        C   81 1.010    C   82 1.008    C   77 0.965    H   85 0.962
    81  C   3.993        C   80 1.010    H   86 0.982    H   88 0.981    H   87 0.974
    82  C   3.991        C   80 1.008    H   91 0.983    H   89 0.982    H   90 0.981
    83  H   0.950        N   76 0.900
    84  H   0.994        C   77 0.943
    85  H   0.996        C   80 0.962
    86  H   0.998        C   81 0.982
    87  H   0.997        C   81 0.974
    88  H   0.998        C   81 0.981
    89  H   0.996        C   82 0.982
    90  H   0.998        C   82 0.981
    91  H   0.998        C   82 0.983
    92  N   3.480        C   78 1.328    C   93 0.980    H  100 0.877    O   79 0.195
    93  C   3.971        N   92 0.980    C   94 0.965    C   96 0.961    H  101 0.950
    94  C   3.902        O   95 1.856    C   93 0.965    H  417 0.952
    95  O   2.026        C   94 1.856
    96  C   3.981        H  103 0.961    C   93 0.961    C   97 0.958    H  102 0.957
    97  C   3.943        O   98 1.681    N   99 1.273    C   96 0.958
    98  O   1.976        C   97 1.681    N   99 0.191
    99  N   3.350        C   97 1.273    H  104 0.925    H  105 0.924    O   98 0.191
   100  H   0.942        N   92 0.877
   101  H   0.995        C   93 0.950
   102  H   0.991        C   96 0.957
   103  H   0.990        C   96 0.961
   104  H   0.946        N   99 0.925
   105  H   0.948        N   99 0.924
   106  N   2.990        C  107 1.016    H  418 0.958    H  117 0.926
   107  C   3.988        N  106 1.016    C  110 0.965    H  118 0.964    C  108 0.932
   108  C   3.938        O  109 1.623    N  126 1.307    C  107 0.932
   109  O   1.931        C  108 1.623    N  126 0.195
   110  C   3.992        C  111 1.009    H  120 0.966    C  107 0.965    H  119 0.963
   111  C   3.988        C  113 1.415    C  112 1.411    C  110 1.009    C  116 0.110
   112  C   3.992        C  114 1.448    C  111 1.411    H  121 0.969    C  115 0.112
   113  C   3.991        C  115 1.443    C  111 1.415    H  122 0.967    C  114 0.110
   114  C   3.992        C  112 1.448    C  116 1.436    H  123 0.971    C  113 0.110
   115  C   3.992        C  113 1.443    C  116 1.441    H  124 0.971    C  112 0.112
   116  C   3.992        C  115 1.441    C  114 1.436    H  125 0.972    C  111 0.110
   117  H   0.966        N  106 0.926
   118  H   0.999        C  107 0.964
   119  H   0.996        C  110 0.963
   120  H   0.996        C  110 0.966
   121  H   0.999        C  112 0.969
   122  H   0.999        C  113 0.967
   123  H   0.999        C  114 0.971
   124  H   0.998        C  115 0.971
   125  H   0.999        C  116 0.972
   126  N   3.470        C  108 1.307    C  127 0.980    H  134 0.882    O  109 0.195
   127  C   3.968        N  126 0.980    C  128 0.971    C  130 0.955    H  135 0.953
   128  C   3.893        O  129 1.887    C  127 0.971    H  419 0.954
   129  O   2.028        C  128 1.887
   130  C   3.984        C  132 1.008    C  131 0.994    H  136 0.956    C  127 0.955
   131  C   3.994        C  133 1.018    C  130 0.994    H  137 0.976    H  138 0.972
   132  C   3.994        C  130 1.008    H  141 0.985    H  139 0.984    H  140 0.979
   133  C   3.994        C  131 1.018    H  144 0.985    H  143 0.984    H  142 0.980
   134  H   0.941        N  126 0.882
   135  H   0.995        C  127 0.953
   136  H   0.996        C  130 0.956
   137  H   0.998        C  131 0.976
   138  H   0.998        C  131 0.972
   139  H   0.997        C  132 0.984
   140  H   0.999        C  132 0.979
   141  H   0.997        C  132 0.985
   142  H   0.997        C  133 0.980
   143  H   0.998        C  133 0.984
   144  H   0.998        C  133 0.985
   145  N   2.987        C  146 1.025    H  420 0.951    H  152 0.947
   146  C   3.987        N  145 1.025    C  149 0.957    H  153 0.950    C  147 0.945
   147  C   3.938        O  148 1.637    N  161 1.285    C  146 0.945
   148  O   1.967        C  147 1.637    N  161 0.184
   149  C   3.994        C  150 1.010    C  151 1.010    H  154 0.963    C  146 0.957
   150  C   3.996        C  149 1.010    H  155 0.985    H  157 0.985    H  156 0.982
   151  C   3.995        C  149 1.010    H  160 0.985    H  158 0.984    H  159 0.982
   152  H   0.971        N  145 0.947
   153  H   0.999        C  146 0.950
   154  H   0.998        C  149 0.963
   155  H   0.998        C  150 0.985
   156  H   0.998        C  150 0.982
   157  H   1.000        C  150 0.985
   158  H   0.997        C  151 0.984
   159  H   0.999        C  151 0.982
   160  H   0.999        C  151 0.985
   161  N   3.427        C  147 1.285    C  162 0.989    H  169 0.859    O  148 0.184
   162  C   3.980        N  161 0.989    C  165 0.974    H  170 0.951    C  163 0.940
   163  C   3.949        O  164 1.619    N  173 1.296    C  162 0.940
   164  O   1.944        C  163 1.619    N  173 0.189
   165  C   3.984        H  172 0.979    C  162 0.974    H  171 0.970    C  166 0.906
   166  C   3.937        O  167 1.532    O  168 1.474    C  165 0.906
   167  O   1.828        C  166 1.532    O  168 0.217
   168  O   1.850        C  166 1.474    O  167 0.217
   169  H   0.950        N  161 0.859
   170  H   1.000        C  162 0.951
   171  H   0.999        C  165 0.970
   172  H   0.998        C  165 0.979
   173  N   3.474        C  163 1.296    C  174 0.988    H  184 0.923    O  164 0.189
   174  C   3.965        N  173 0.988    C  177 0.964    H  185 0.950    C  175 0.939
   175  C   3.952        O  176 1.635    N  197 1.299    C  174 0.939
   176  O   1.950        C  175 1.635    N  197 0.198
   177  C   3.988        C  178 1.005    H  186 0.973    H  187 0.970    C  174 0.964
   178  C   3.985        C  177 1.005    C  179 1.000    H  189 0.964    H  188 0.956
   179  C   3.962        C  178 1.000    N  180 0.993    H  190 0.960    H  191 0.959
   180  N   3.494        C  181 1.348    C  179 0.993    H  192 0.858    N  182 0.104    N  183 0.103
   181  C   3.976        N  180 1.348    N  183 1.298    N  182 1.294
   182  N   3.367        C  181 1.294    H  193 0.916    H  194 0.913    N  180 0.104
   183  N   3.362        C  181 1.298    H  195 0.915    H  196 0.910    N  180 0.103
   184  H   0.961        N  173 0.923
   185  H   0.996        C  174 0.950
   186  H   0.997        C  177 0.973
   187  H   0.997        C  177 0.970
   188  H   0.993        C  178 0.956
   189  H   0.996        C  178 0.964
   190  H   0.992        C  179 0.960
   191  H   0.994        C  179 0.959
   192  H   0.942        N  180 0.858
   193  H   0.946        N  182 0.916
   194  H   0.933        N  182 0.913
   195  H   0.943        N  183 0.915
   196  H   0.932        N  183 0.910
   197  N   3.473        C  175 1.299    C  198 0.987    H  202 0.908    O  176 0.198
   198  C   3.964        N  197 0.987    C  199 0.977    C  201 0.972    H  203 0.936
   199  C   3.896        O  200 1.896    C  198 0.977    H  421 0.951
   200  O   2.037        C  199 1.896
   201  C   3.978        H  206 0.984    H  204 0.982    C  198 0.972    H  205 0.965
   202  H   0.955        N  197 0.908
   203  H   0.989        C  198 0.936
   204  H   0.992        C  201 0.982
   205  H   0.992        C  201 0.965
   206  H   0.997        C  201 0.984
   207  N   2.991        C  208 1.027    H  422 0.951    H  215 0.942
   208  C   3.985        N  207 1.027    C  211 0.963    C  209 0.951    H  216 0.935
   209  C   3.945        O  210 1.602    N  221 1.291    C  208 0.951
   210  O   1.943        C  209 1.602    N  221 0.189
   211  C   3.994        H  217 0.971    C  208 0.963    C  212 0.963    H  218 0.954
   212  C   3.950        O  213 1.656    N  214 1.305    C  211 0.963
   213  O   1.969        C  212 1.656    N  214 0.199
   214  N   3.386        C  212 1.305    H  220 0.929    H  219 0.919    O  213 0.199
   215  H   0.973        N  207 0.942
   216  H   0.996        C  208 0.935
   217  H   0.997        C  211 0.971
   218  H   0.995        C  211 0.954
   219  H   0.940        N  214 0.919
   220  H   0.949        N  214 0.929
   221  N   3.509        C  209 1.291    C  222 0.974    C  227 0.966    O  210 0.189
   222  C   3.970        N  221 0.974    C  225 0.970    C  223 0.958    H  228 0.936
   223  C   3.941        O  224 1.583    N  235 1.302    C  222 0.958
   224  O   1.985        C  223 1.583    N  235 0.181
   225  C   3.984        C  226 1.003    H  229 0.973    H  230 0.970    C  222 0.970
   226  C   3.989        C  225 1.003    C  227 1.002    H  232 0.976    H  231 0.968
   227  C   3.949        C  226 1.002    N  221 0.966    H  234 0.959    H  233 0.957
   228  H   0.993        C  222 0.936
   229  H   0.996        C  225 0.973
   230  H   0.994        C  225 0.970
   231  H   0.993        C  226 0.968
   232  H   0.996        C  226 0.976
   233  H   0.993        C  227 0.957
   234  H   0.992        C  227 0.959
   235  N   3.472        C  223 1.302    C  236 0.993    H  239 0.924    O  224 0.181
   236  C   3.964        N  235 0.993    H  241 0.958    H  240 0.957    C  237 0.949
   237  C   3.946        O  238 1.631    N  242 1.274    C  236 0.949
   238  O   1.977        C  237 1.631    N  242 0.187
   239  H   0.957        N  235 0.924
   240  H   0.989        C  236 0.957
   241  H   0.992        C  236 0.958
   242  N   3.427        C  237 1.274    C  243 0.986    H  250 0.872    O  238 0.187
   243  C   3.971        N  242 0.986    C  246 0.977    H  251 0.943    C  244 0.940
   244  C   3.955        O  245 1.548    N  254 1.362    C  243 0.940
   245  O   1.941        C  244 1.548    N  254 0.191
   246  C   3.983        C  243 0.977    H  253 0.976    H  252 0.970    C  247 0.913
   247  C   3.935        O  248 1.529    O  249 1.471    C  246 0.913
   248  O   1.822        C  247 1.529    O  249 0.216
   249  O   1.829        C  247 1.471    O  248 0.216
   250  H   0.949        N  242 0.872
   251  H   0.998        C  243 0.943
   252  H   0.999        C  246 0.970
   253  H   0.997        C  246 0.976
   254  N   3.505        C  244 1.362    C  255 0.972    H  261 0.871    O  245 0.191
   255  C   3.949        N  254 0.972    C  258 0.951    H  262 0.950    C  256 0.933
   256  C   3.951        O  257 1.624    N  270 1.313    C  255 0.933
   257  O   1.964        C  256 1.624    N  270 0.201
   258  C   3.986        C  260 1.008    C  259 1.007    H  263 0.963    C  255 0.951
   259  C   3.989        C  258 1.007    H  266 0.984    H  265 0.983    H  264 0.982
   260  C   3.993        C  258 1.008    H  269 0.985    H  268 0.983    H  267 0.976
   261  H   0.951        N  254 0.871
   262  H   0.992        C  255 0.950
   263  H   0.998        C  258 0.963
   264  H   0.994        C  259 0.982
   265  H   0.998        C  259 0.983
   266  H   0.996        C  259 0.984
   267  H   0.995        C  260 0.976
   268  H   0.997        C  260 0.983
   269  H   1.000        C  260 0.985
   270  N   3.479        C  256 1.313    C  271 0.993    H  281 0.880    O  257 0.201
   271  C   3.970        N  270 0.993    H  282 0.952    C  274 0.945    C  272 0.939
   272  C   3.945        O  273 1.659    N  290 1.270    C  271 0.939
   273  O   1.982        C  272 1.659    N  290 0.193
   274  C   3.986        C  275 1.007    H  283 0.972    H  284 0.958    C  271 0.945
   275  C   3.986        C  277 1.416    C  276 1.408    C  274 1.007    C  280 0.110
   276  C   3.991        C  278 1.450    C  275 1.408    H  285 0.967    C  279 0.112
   277  C   3.989        C  279 1.439    C  275 1.416    H  286 0.962    C  278 0.110
   278  C   3.992        C  276 1.450    C  280 1.433    H  287 0.970    C  277 0.110
   279  C   3.990        C  280 1.440    C  277 1.439    H  288 0.963    C  276 0.112
   280  C   3.989        C  279 1.440    C  278 1.433    H  289 0.968    C  275 0.110
   281  H   0.945        N  270 0.880
   282  H   0.996        C  271 0.952
   283  H   0.996        C  274 0.972
   284  H   0.996        C  274 0.958
   285  H   1.000        C  276 0.967
   286  H   0.998        C  277 0.962
   287  H   0.999        C  278 0.970
   288  H   0.997        C  279 0.963
   289  H   0.997        C  280 0.968
   290  N   3.447        C  272 1.270    C  291 0.985    H  299 0.919    O  273 0.193
   291  C   3.966        C  294 0.994    N  290 0.985    H  300 0.933    C  292 0.929
   292  C   3.952        O  293 1.651    N  307 1.293    C  291 0.929
   293  O   1.970        C  292 1.651    N  307 0.199
   294  C   3.993        C  291 0.994    C  295 0.991    H  301 0.972    H  302 0.971
   295  C   3.993        C  294 0.991    H  304 0.976    C  296 0.972    H  303 0.953
   296  C   3.946        O  297 1.615    N  298 1.332    C  295 0.972
   297  O   1.944        C  296 1.615    N  298 0.197
   298  N   3.411        C  296 1.332    H  305 0.926    H  306 0.920    O  297 0.197
   299  H   0.959        N  290 0.919
   300  H   0.993        C  291 0.933
   301  H   0.997        C  294 0.972
   302  H   0.997        C  294 0.971
   303  H   0.994        C  295 0.953
   304  H   0.996        C  295 0.976
   305  H   0.945        N  298 0.926
   306  H   0.941        N  298 0.920
   307  N   3.456        C  292 1.293    C  308 0.968    H  315 0.901    O  293 0.199
   308  C   3.959        C  311 0.984    N  307 0.968    H  316 0.947    C  309 0.939
   309  C   3.948        O  310 1.631    N  319 1.297    C  308 0.939
   310  O   1.950        C  309 1.631    N  319 0.193
   311  C   3.976        C  308 0.984    H  318 0.979    H  317 0.964    C  312 0.890
   312  C   3.940        O  313 1.516    O  314 1.512    C  311 0.890
   313  O   1.816        C  312 1.516    O  314 0.222
   314  O   1.807        C  312 1.512    O  313 0.222
   315  H   0.956        N  307 0.901
   316  H   0.993        C  308 0.947
   317  H   0.999        C  311 0.964
   318  H   0.999        C  311 0.979
   319  N   3.476        C  309 1.297    C  320 0.972    H  326 0.930    O  310 0.193
   320  C   3.959        C  323 0.974    N  319 0.972    H  327 0.951    C  321 0.923
   321  C   3.951        O  322 1.643    N  333 1.305    C  320 0.923
   322  O   1.966        C  321 1.643    N  333 0.202
   323  C   3.954        C  325 0.999    O  324 0.989    C  320 0.974    H  328 0.958
   324  O   1.925        C  323 0.989    H  329 0.864
   325  C   3.989        C  323 0.999    H  332 0.983    H  331 0.983    H  330 0.982
   326  H   0.962        N  319 0.930
   327  H   0.993        C  320 0.951
   328  H   0.999        C  323 0.958
   329  H   0.880        O  324 0.864
   330  H   0.995        C  325 0.982
   331  H   0.997        C  325 0.983
   332  H   0.995        C  325 0.983
   333  N   3.473        C  321 1.305    C  334 0.971    H  340 0.915    O  322 0.202
   334  C   3.956        N  333 0.971    C  337 0.962    H  341 0.955    C  335 0.929
   335  C   3.954        O  336 1.651    N  349 1.294    C  334 0.929
   336  O   1.976        C  335 1.651    N  349 0.201
   337  C   3.988        C  339 1.009    C  338 1.007    C  334 0.962    H  342 0.962
   338  C   3.992        C  337 1.007    H  345 0.985    H  344 0.984    H  343 0.980
   339  C   3.992        C  337 1.009    H  347 0.982    H  346 0.980    H  348 0.979
   340  H   0.951        N  333 0.915
   341  H   0.996        C  334 0.955
   342  H   0.995        C  337 0.962
   343  H   0.995        C  338 0.980
   344  H   0.998        C  338 0.984
   345  H   0.999        C  338 0.985
   346  H   0.996        C  339 0.980
   347  H   1.000        C  339 0.982
   348  H   0.998        C  339 0.979
   349  N   3.477        C  335 1.294    C  350 0.976    H  356 0.915    O  336 0.201
   350  C   3.962        N  349 0.976    C  353 0.964    H  357 0.951    C  351 0.930
   351  C   3.952        O  352 1.601    N  363 1.334    C  350 0.930
   352  O   1.976        C  351 1.601    N  363 0.201
   353  C   3.957        C  355 1.006    O  354 0.996    C  350 0.964    H  358 0.959
   354  O   1.943        C  353 0.996    H  359 0.850
   355  C   3.989        C  353 1.006    H  362 0.984    H  361 0.983    H  360 0.982
   356  H   0.956        N  349 0.915
   357  H   0.993        C  350 0.951
   358  H   0.998        C  353 0.959
   359  H   0.889        O  354 0.850
   360  H   0.995        C  355 0.982
   361  H   0.996        C  355 0.983
   362  H   0.997        C  355 0.984
   363  N   3.498        C  351 1.334    C  364 0.975    H  370 0.908    O  352 0.201
   364  C   3.955        N  363 0.975    C  365 0.973    C  367 0.948    H  371 0.939
   365  C   3.902        O  366 1.903    C  364 0.973    H  423 0.953
   366  O   2.056        C  365 1.903
   367  C   3.983        C  368 1.010    C  369 1.008    H  372 0.960    C  364 0.948
   368  C   3.991        C  367 1.010    H  375 0.985    H  373 0.982    H  374 0.980
   369  C   3.991        C  367 1.008    H  377 0.986    H  378 0.983    H  376 0.982
   370  H   0.948        N  363 0.908
   371  H   0.992        C  364 0.939
   372  H   0.995        C  367 0.960
   373  H   0.995        C  368 0.982
   374  H   0.997        C  368 0.980
   375  H   0.998        C  368 0.985
   376  H   0.996        C  369 0.982
   377  H   0.998        C  369 0.986
   378  H   0.998        C  369 0.983
   379  N   2.996        C  380 1.005    H  424 0.959    H  387 0.932
   380  C   3.984        N  379 1.005    C  381 0.972    C  383 0.971    H  388 0.962
   381  C   3.884        O  382 1.884    C  380 0.972    H  425 0.954
   382  O   2.019        C  381 1.884
   383  C   3.989        C  384 0.994    C  380 0.971    H  389 0.970    H  390 0.963
   384  C   3.996        C  385 1.009    C  386 1.009    C  383 0.994    H  391 0.966
   385  C   3.996        C  384 1.009    H  393 0.986    H  392 0.985    H  394 0.985
   386  C   3.995        C  384 1.009    H  396 0.985    H  397 0.985    H  395 0.984
   387  H   0.969        N  379 0.932
   388  H   0.999        C  380 0.962
   389  H   0.998        C  383 0.970
   390  H   0.996        C  383 0.963
   391  H   1.000        C  384 0.966
   392  H   0.998        C  385 0.985
   393  H   0.999        C  385 0.986
   394  H   0.998        C  385 0.985
   395  H   0.997        C  386 0.984
   396  H   0.998        C  386 0.985
   397  H   0.998        C  386 0.985
   398  N   2.994        C  399 1.003    H  406 0.959    H  426 0.949
   399  C   3.983        N  398 1.003    C  402 0.986    C  400 0.968    H  407 0.944
   400  C   3.892        O  401 1.910    C  399 0.968    H  427 0.955
   401  O   2.050        C  400 1.910
   402  C   3.994        C  403 0.995    C  399 0.986    H  408 0.974    H  409 0.971
   403  C   3.995        C  404 1.010    C  405 1.010    C  402 0.995    H  410 0.966
   404  C   3.996        C  403 1.010    H  412 0.985    H  413 0.981    H  411 0.981
   405  C   3.996        C  403 1.010    H  416 0.987    H  414 0.986    H  415 0.981
   406  H   0.975        N  398 0.959
   407  H   0.996        C  399 0.944
   408  H   0.998        C  402 0.974
   409  H   0.997        C  402 0.971
   410  H   0.998        C  403 0.966
   411  H   0.999        C  404 0.981
   412  H   0.998        C  404 0.985
   413  H   0.999        C  404 0.981
   414  H   0.999        C  405 0.986
   415  H   0.999        C  405 0.981
   416  H   0.998        C  405 0.987
   417  H   0.994        C   94 0.952
   418  H   0.969        N  106 0.958
   419  H   0.995        C  128 0.954
   420  H   0.965        N  145 0.951
   421  H   0.992        C  199 0.951
   422  H   0.967        N  207 0.951
   423  H   0.994        C  365 0.953
   424  H   0.970        N  379 0.959
   425  H   0.995        C  381 0.954
   426  H   0.964        N  398 0.949
   427  H   0.996        C  400 0.955
 
molecular dipole:
                 x           y           z       tot (Debye)
 q only:       46.628     -18.166     -17.261
   full:       43.679     -17.839     -20.532     130.789
molecular quadrupole (traceless):
                xx          xy          yy          xz          yz          zz
 q only:    10241.075     668.023   -5926.867   -1408.293   -1807.319   -4314.207
  q+dip:     9784.503     504.135   -5528.814   -1991.953   -2047.062   -4255.689
   full:     9780.117     506.489   -5525.949   -1991.997   -2050.424   -4254.168


           -------------------------------------------------
          | TOTAL ENERGY             -657.886659144471 Eh   |
          | GRADIENT NORM               0.518802193076 Eh/α |
          | HOMO-LUMO GAP               1.233777574221 eV   |
           -------------------------------------------------

------------------------------------------------------------------------
 * finished run on 2019/05/31 at 06:33:23.599     
------------------------------------------------------------------------
 total:
 * wall-time:     0 d,  0 h,  0 min, 14.662 sec
 *  cpu-time:     0 d,  0 h,  0 min, 28.948 sec
 * ratio c/w:     1.974 speedup
 SCF:
 * wall-time:     0 d,  0 h,  0 min, 14.182 sec
 *  cpu-time:     0 d,  0 h,  0 min, 28.192 sec
 * ratio c/w:     1.988 speedup

