      -----------------------------------------------------------      
     |                   =====================                   |     
     |                           x T B                           |     
     |                   =====================                   |     
     |                         S. Grimme                         |     
     |          Mulliken Center for Theoretical Chemistry        |     
     |                    University of Bonn                     |     
     |                Version 6.1 RC1 (SAW190329)                |     
      -----------------------------------------------------------      

   This program is distributed in the hope that it will be useful,
   but WITHOUT ANY WARRANTY; without even the implied warranty of
   MERCHANTABILITY or FITNESS FOR A PARTICULAR PURPOSE.
   
   FOR NON-COMMERCIAL, ACADEMIA USE ONLY.
   
   Cite this work as:
   S. Grimme, C. Bannwarth, P. Shushkov, J. Comput. Theory Chem., 2017,
   13, 1989-2009. DOI: 10.1021/acs.jctc.7b00118
   C. Bannwarth, S. Ehlert and S. Grimme., J. Comput. Theory Chem., 2019,
   just accepted. DOI: 10.1021/acs.jctc.8b01176
   
   for sTDA-xTB:
   S. Grimme and C. Bannwarth, J. Chem. Phys., 2016, 145, 054103.
   DOI: 10.1063/1.4959605
   
   in the mass-spec context:
   V. Asgeirsson, C. Bauer and S. Grimme, Chem. Sci., 2017, 8, 4879.
   DOI: 10.1039/c7sc00601b
   
   for metadynamics refer to:
   S. Grimme, ChemRxiv, Preprint. DOI: 10.26434/chemrxiv.7660532.v1
   
   with help from (in alphabetical order)
   C. Bannwarth, F. Bohle, G. Brandenburg, E. Caldeweyher, M. Checinski,
   S. Dohm, S. Ehlert, S. Ehrlich, F. März, H. Neugebauer, J. Pisarek,
   P. Pracht, P. Shushkov, and S. Spicher.
   
 * started run on 2019/05/31 at 05:35:18.416     

           -------------------------------------------------
          |                Calculation Setup                |
           -------------------------------------------------

          program call               : /home/lum/install/xtb/xtb-190329/bin/xtb xtb_tmp.xyz --chrg -3 --grad --gfn 2 --etemp 500 --acc 0.1 --gbsa h2o --parallel 2
          hostname                   : cpu02
          coordinate file            : xtb_tmp.xyz
          omp threads                :                     2
          number of atoms            :                   411
          number of electrons        :                  1154
          charge                     :                    -3
          spin                       :                   0.0
          first test random number   :      0.90381415040428


molecular fragmentation (1/2 indicates fragments):
111111111111111111111222222222222222222222222222222222222222222222222222
222222222222222222222222222222222222222222222222222222222222222222222222
222222222222222222222222222222222222222222222222222222222222222222222222
222222222222222222222222222222222222222222222222222222222222222222222222
222222222222222222222222222222222222222222222222222222222222222222222222
222222222222222222222222222222222221122222222222222
# atoms in fragment 1/2:    23   388
 fragment masses (1/2) :      165.19     2764.05
CMA distance (Bohr)    :  22.397
constraining FC (au)   :  0.0500

########################################################################
# WARNING! Please study the warnings concerning your input carefully
#  - XTBPATH is not set, using XTBHOME instead
#  - Process number higher than OMP_NUM_THREADS, I hope you know what you are doing.
########################################################################

           ------------------------------------------------- 
          |                 G F N 2 - x T B                 |
          | Geometry, Frequencies, Noncovalent interactions |
          |            JCTC 2018 parametrisation            |
           ------------------------------------------------- 
 
             k(s)              :                1.8500
             k(p)              :                2.2300
             k(d)              :                2.2300
             k(f)              :                2.0000
             kEN (H0ij)        :               -2.0000
             D4 a1             :                0.5200
             D4 a2             :                5.0000
             D4 s6             :                1.0000
             D4 s8             :                2.7000
             D4 s9             :                5.0000
             alphaj            :                2.0000

  Z AO/shell   Hii/eV     exponent
  1     Wed Apr 25 08:07:45 CEST 2018   EN: 2.200 GM2: 0.406  GM3: 0.0800  RAES: 1.40
     1s    -10.707211    1.230000
  6     Wed Apr 25 08:07:45 CEST 2018   EN: 2.550 GM2: 0.538  GM3: 0.1500  RAES: 3.00
     2s    -13.970922    2.096432
     2p    -10.063292    1.800000
  7     Wed Apr 25 08:07:45 CEST 2018   EN: 3.040 GM2: 0.461  GM3:-0.0640  RAES: 1.90
     2s    -16.686243    2.339881
     2p    -12.523956    2.014332
  8     Wed Apr 25 08:07:45 CEST 2018   EN: 3.440 GM2: 0.452  GM3:-0.0517  RAES: 1.80
     2s    -20.229985    2.439742
     2p    -15.503117    2.137023

 Solvent             : h2o
 Using internal parameter file: .param_gbsa2_h2o
 Gsolv ref. state (COSMO-RS): gsolv [1 M gas/solution]
 temperature (mdtemp)       :    298.150000000000     
 dielectric constant        :    80.2000000000000     
 rho                        :    1.00000000000000     
 mass                       :    18.0000000000000     
 surface tension            :    15.5689454083859     
 probe radius               :   0.975313790000000     
 vdW radii scaling          :    1.00000000000000     
 Gshift (Eh)                :   1.857443126794793E-003
 c1                         :    1.55243817000000     
 soset                      :   0.130326360000000     
 HB correction              :  T
 Number of grid points      :          230

            Z     q(EN)     CN     RAES       Cart. coordinates
     1  N   5.0   -0.70    3.00    1.93   380.52870   139.77874   205.24782
     2  C   4.0    0.06    3.98    3.59   381.29953   137.91556   207.07509
     3  C   4.0    0.05    3.00    3.02   379.84216   138.35500   209.53529
     4  O   6.0   -0.42    1.00    1.80   379.40172   140.50613   210.27494
     5  C   4.0   -0.13    3.99    3.60   384.14364   138.20437   207.68214
     6  C   4.0   -0.05    3.03    3.02   385.74246   137.79838   205.37771
     7  C   4.0   -0.12    3.03    3.02   386.11340   139.73778   203.64338
     8  C   4.0   -0.12    3.03    3.02   386.83562   135.46276   204.90371
     9  C   4.0   -0.07    3.03    3.02   387.50294   139.35341   201.47096
    10  C   4.0   -0.11    3.03    3.02   388.23711   135.05417   202.73546
    11  C   4.0    0.10    3.03    3.02   388.56454   136.99262   200.99087
    12  O   6.0   -0.45    1.99    1.83   389.90885   136.67752   198.82776
    13  H   1.0    0.29    1.00    1.43   380.14154   141.49869   205.98715
    14  H   1.0    0.10    0.99    1.43   380.92429   136.03063   206.32665
    15  H   1.0    0.12    0.99    1.43   384.43436   140.10493   208.44007
    16  H   1.0    0.09    0.99    1.43   384.60575   136.80171   209.12053
    17  H   1.0    0.11    0.99    1.43   385.32728   141.58623   204.01776
    18  H   1.0    0.11    0.99    1.43   386.59321   133.95065   206.25458
    19  H   1.0    0.15    1.00    1.43   387.83758   140.87417   200.15522
    20  H   1.0    0.10    0.99    1.43   389.08012   133.22367   202.40408
    21  H   1.0    0.25    0.99    1.43   390.42343   134.93559   198.66363
    22  N   5.0   -0.71    3.00    1.93   415.81446   143.28004   233.08227
    23  C   4.0    0.07    3.98    3.58   415.34750   145.44377   234.69492
    24  C   4.0    0.07    3.00    3.02   412.79288   146.68791   234.06787
    25  O   6.0   -0.44    1.00    1.80   412.64327   148.80080   233.15265
    26  C   4.0   -0.09    3.98    3.59   417.46036   147.37262   234.39276
    27  C   4.0    0.31    2.99    3.02   420.18308   146.23078   234.40302
    28  O   6.0   -0.42    1.00    1.80   420.68540   144.51839   235.91856
    29  O   6.0   -0.43    1.00    1.80   421.67955   147.25138   232.87441
    30  H   1.0    0.33    1.00    1.43   416.63734   143.62974   231.38878
    31  H   1.0    0.11    0.99    1.43   415.27002   144.70935   236.63256
    32  H   1.0    0.13    0.99    1.43   417.19541   148.35751   232.60440
    33  H   1.0    0.10    0.99    1.43   417.34082   148.73775   235.93368
    34  N   5.0   -0.68    3.00    1.93   404.44080   144.92842   231.95573
    35  C   4.0    0.08    3.98    3.59   402.82970   143.29256   230.46877
    36  C   4.0    0.29    3.02    3.02   404.10787   142.90201   227.91156
    37  O   6.0   -0.44    1.00    1.80   405.80832   144.29433   227.16613
    38  C   4.0   -0.09    3.98    3.59   400.20580   144.42881   230.11855
    39  C   4.0    0.31    2.99    3.02   398.63324   144.54690   232.60076
    40  O   6.0   -0.41    1.00    1.80   399.70453   144.25983   234.65061
    41  O   6.0   -0.39    1.00    1.80   396.31056   144.96334   232.30165
    42  H   1.0    0.28    1.00    1.43   403.72518   146.58613   232.55434
    43  H   1.0    0.11    0.99    1.43   402.68317   141.45377   231.42111
    44  H   1.0    0.13    0.99    1.43   400.35782   146.34958   229.36620
    45  H   1.0    0.14    0.99    1.43   399.12560   143.32135   228.75540
    46  N   5.0   -0.50    3.01    1.93   403.33541   140.90655   226.57839
    47  C   4.0    0.08    4.00    3.62   404.36441   140.45639   224.08187
    48  C   4.0    0.28    3.01    3.02   403.06566   142.21521   222.18554
    49  O   6.0   -0.44    1.00    1.80   400.80969   142.73734   222.32259
    50  C   4.0   -0.14    3.99    3.60   404.07809   137.69289   223.29822
    51  C   4.0   -0.10    3.98    3.58   406.14920   135.97550   224.37633
    52  C   4.0   -0.22    3.98    3.59   406.21242   136.03572   227.26016
    53  C   4.0   -0.24    3.98    3.59   405.72096   133.28278   223.43240
    54  H   1.0    0.25    1.00    1.43   401.74325   139.99276   227.10066
    55  H   1.0    0.13    0.99    1.43   406.36788   140.96478   224.17269
    56  H   1.0    0.11    0.99    1.43   402.22708   137.01968   223.90873
    57  H   1.0    0.11    0.99    1.43   404.14866   137.60028   221.23938
    58  H   1.0    0.11    0.99    1.43   407.97262   136.64490   223.66583
    59  H   1.0    0.09    0.99    1.43   407.53951   134.63747   227.97316
    60  H   1.0    0.12    0.99    1.43   406.77940   137.87986   227.96317
    61  H   1.0    0.10    0.99    1.43   404.35059   135.61750   228.02865
    62  H   1.0    0.09    0.99    1.43   407.18075   132.03570   224.15316
    63  H   1.0    0.10    0.99    1.43   403.90032   132.58548   224.07945
    64  H   1.0    0.10    0.99    1.43   405.74855   133.21042   221.38059
    65  N   5.0   -0.49    3.01    1.93   404.58862   143.12164   220.39008
    66  C   4.0    0.08    3.99    3.61   403.71929   144.90099   218.49381
    67  C   4.0    0.29    3.01    3.02   402.99379   143.35682   216.14818
    68  O   6.0   -0.46    1.00    1.80   404.53174   142.81143   214.49806
    69  C   4.0   -0.14    3.98    3.59   405.75527   146.87493   217.94518
    70  C   4.0   -0.15    3.98    3.59   406.14313   148.76753   220.10237
    71  C   4.0   -0.14    3.98    3.58   407.73917   147.79317   222.31215
    72  C   4.0   -0.05    3.98    3.58   407.69453   149.70114   224.47788
    73  N   5.0   -0.72    3.98    2.81   408.69727   148.56219   226.84611
    74  H   1.0    0.28    1.00    1.43   406.39241   142.47165   220.17665
    75  H   1.0    0.15    0.99    1.43   402.00948   145.82390   219.21357
    76  H   1.0    0.12    0.99    1.43   407.51528   145.89961   217.49525
    77  H   1.0    0.13    0.99    1.43   405.12385   147.92781   216.28805
    78  H   1.0    0.10    0.99    1.43   407.01837   150.45341   219.30230
    79  H   1.0    0.15    0.99    1.43   404.28668   149.33179   220.80873
    80  H   1.0    0.16    0.99    1.43   406.91370   146.04206   223.00351
    81  H   1.0    0.11    0.99    1.43   409.66154   147.43918   221.65503
    82  H   1.0    0.10    0.99    1.43   408.78420   151.38293   224.00781
    83  H   1.0    0.16    0.99    1.43   405.73028   150.24691   224.79728
    84  H   1.0    0.26    1.00    1.43   408.60989   149.82618   228.31513
    85  H   1.0    0.32    0.99    1.43   407.56067   147.00031   227.31673
    86  H   1.0    0.25    1.00    1.43   410.52418   147.94942   226.61824
    87  N   5.0   -0.48    3.01    1.93   400.64941   142.40366   216.20083
    88  C   4.0    0.08    4.00    3.61   399.59960   141.05070   214.06244
    89  C   4.0    0.28    3.01    3.02   399.23236   142.86494   211.83417
    90  O   6.0   -0.43    1.00    1.80   398.73799   145.11820   212.13978
    91  C   4.0   -0.13    3.99    3.60   397.09778   139.81824   214.84780
    92  C   4.0   -0.03    3.03    3.02   395.73034   138.55781   212.69960
    93  C   4.0   -0.08    3.03    3.02   396.22236   136.04768   212.10648
    94  C   4.0   -0.08    3.03    3.02   393.90846   139.84755   211.31314
    95  C   4.0   -0.08    3.03    3.02   394.87891   134.82700   210.22580
    96  C   4.0   -0.09    3.03    3.02   392.56177   138.63264   209.42734
    97  C   4.0   -0.10    3.03    3.02   393.02391   136.11162   208.89888
    98  H   1.0    0.29    1.00    1.43   399.36631   143.14550   217.41850
    99  H   1.0    0.14    0.99    1.43   400.95038   139.59943   213.46112
   100  H   1.0    0.10    0.99    1.43   397.53029   138.42760   216.30807
   101  H   1.0    0.12    0.99    1.43   395.90732   141.28235   215.68325
   102  H   1.0    0.13    1.00    1.43   397.66919   135.04347   213.13566
   103  H   1.0    0.11    0.99    1.43   393.53041   141.82191   211.71622
   104  H   1.0    0.14    1.00    1.43   395.29935   132.87816   209.79830
   105  H   1.0    0.11    0.99    1.43   391.15027   139.66989   208.37161
   106  H   1.0    0.11    1.00    1.43   391.93197   135.18071   207.44948
   107  N   5.0   -0.49    3.01    1.93   399.55082   141.78477   209.57894
   108  C   4.0    0.09    4.00    3.61   399.58617   143.17811   207.22703
   109  C   4.0    0.29    3.02    3.02   397.36357   142.31904   205.61163
   110  O   6.0   -0.43    1.00    1.80   397.11378   140.09285   205.00426
   111  C   4.0   -0.09    3.98    3.59   402.08581   142.66684   205.88541
   112  C   4.0    0.31    3.00    3.02   402.14712   144.23285   203.42865
   113  O   6.0   -0.43    1.00    1.80   400.81957   143.41738   201.63499
   114  O   6.0   -0.45    1.00    1.80   403.49938   146.14167   203.40309
   115  H   1.0    0.29    1.00    1.43   400.09116   139.94951   209.44859
   116  H   1.0    0.15    0.99    1.43   399.36874   145.19327   207.63151
   117  H   1.0    0.12    0.99    1.43   403.64886   143.23333   207.10136
   118  H   1.0    0.13    0.99    1.43   402.21085   140.65167   205.45976
   119  N   5.0   -0.49    3.01    1.93   395.65652   144.08308   205.02425
   120  C   4.0    0.09    4.00    3.61   393.29499   143.42979   203.83205
   121  C   4.0    0.30    3.01    3.02   393.26843   143.88343   200.97911
   122  O   6.0   -0.42    1.00    1.80   391.28263   143.94831   199.79192
   123  C   4.0   -0.10    3.98    3.59   391.09343   144.73804   205.13291
   124  C   4.0    0.32    2.99    3.02   391.13111   147.66734   204.75581
   125  O   6.0   -0.36    1.00    1.80   393.02819   148.59086   203.70908
   126  O   6.0   -0.38    1.00    1.80   389.23249   148.82007   205.54030
   127  H   1.0    0.29    1.00    1.43   395.93367   145.94781   205.33170
   128  H   1.0    0.14    0.99    1.43   393.09572   141.36508   204.03872
   129  H   1.0    0.12    0.99    1.43   389.31159   144.03486   204.37925
   130  H   1.0    0.10    0.99    1.43   391.14061   144.39154   207.17001
   131  N   5.0   -0.46    3.01    1.93   395.54052   143.88590   199.87250
   132  C   4.0    0.08    3.99    3.60   395.83829   143.61759   197.17801
   133  C   4.0    0.07    3.00    3.02   396.73018   140.93859   196.51165
   134  O   6.0   -0.43    1.00    1.80   396.17444   139.93063   194.51350
   135  C   4.0    0.04    3.98    3.58   397.68827   145.62433   196.13560
   136  O   6.0   -0.47    1.99    1.82   397.01215   148.05715   196.97771
   137  C   4.0   -0.22    3.98    3.59   397.82987   145.47997   193.25709
   138  H   1.0    0.30    1.00    1.43   397.12133   144.10924   200.92383
   139  H   1.0    0.15    0.99    1.43   393.96645   143.88662   196.32728
   140  H   1.0    0.14    0.99    1.43   399.54738   145.29587   196.99429
   141  H   1.0    0.26    0.99    1.43   395.29158   148.40568   196.47913
   142  H   1.0    0.10    0.99    1.43   399.16104   146.87407   192.55537
   143  H   1.0    0.12    0.99    1.43   398.42384   143.60513   192.67877
   144  H   1.0    0.10    0.99    1.43   395.97404   145.84996   192.45593
   145  N   5.0   -0.71    3.00    1.92   398.03751   135.91264   201.86422
   146  C   4.0    0.02    3.98    3.59   397.56789   134.04768   203.78759
   147  C   4.0    0.27    3.00    3.02   399.86983   133.41032   205.42357
   148  O   6.0   -0.42    1.00    1.80   399.72254   131.83872   207.10711
   149  H   1.0    0.33    1.00    1.43   397.89040   137.73207   202.42784
   150  H   1.0    0.13    0.99    1.43   396.08252   134.73459   205.04386
   151  H   1.0    0.11    0.99    1.43   396.95739   132.29462   202.87844
   152  N   5.0   -0.47    3.01    1.93   402.02099   134.58027   204.79512
   153  C   4.0    0.07    4.00    3.61   404.31410   134.26615   206.24511
   154  C   4.0    0.28    3.01    3.02   404.08691   135.57159   208.81779
   155  O   6.0   -0.43    1.00    1.80   402.40951   137.09112   209.30553
   156  C   4.0   -0.15    3.99    3.60   406.52687   135.37530   204.75484
   157  C   4.0   -0.16    3.98    3.58   407.19370   133.76861   202.45145
   158  C   4.0   -0.15    3.98    3.59   409.02371   135.21756   200.75551
   159  C   4.0   -0.07    3.98    3.58   410.08780   133.66906   198.57599
   160  N   5.0   -0.71    3.96    2.76   411.54310   131.46027   199.50114
   161  H   1.0    0.23    1.00    1.43   401.99955   136.00657   203.51468
   162  H   1.0    0.12    0.99    1.43   404.57655   132.23726   206.58300
   163  H   1.0    0.11    0.99    1.43   405.99693   137.27309   204.13984
   164  H   1.0    0.12    0.99    1.43   408.17875   135.55930   205.97788
   165  H   1.0    0.10    0.99    1.43   408.04550   132.01653   203.12156
   166  H   1.0    0.11    0.99    1.43   405.46663   133.32556   201.41594
   167  H   1.0    0.10    0.99    1.43   408.04636   136.86037   199.98803
   168  H   1.0    0.12    0.99    1.43   410.57619   135.93165   201.90123
   169  H   1.0    0.09    0.99    1.43   408.55754   133.02656   197.35317
   170  H   1.0    0.09    0.99    1.43   411.35625   134.88072   197.49838
   171  H   1.0    0.21    1.00    1.43   412.89806   130.93389   198.23157
   172  H   1.0    0.19    0.97    1.43   412.48719   131.86780   201.36035
   173  H   1.0    0.22    1.00    1.43   410.37823   129.95723   199.84014
   174  N   5.0   -0.49    3.01    1.93   405.88984   134.92465   210.47246
   175  C   4.0    0.08    4.00    3.61   406.14285   136.10875   212.90919
   176  C   4.0    0.26    3.02    3.02   408.78953   137.22174   213.16730
   177  O   6.0   -0.43    1.00    1.80   410.65239   136.15177   212.30104
   178  C   4.0   -0.12    3.99    3.61   405.87016   134.15982   215.06232
   179  C   4.0   -0.03    3.03    3.02   403.36428   132.83564   215.07553
   180  C   4.0   -0.09    3.04    3.02   402.88848   130.90240   213.36155
   181  C   4.0   -0.12    3.03    3.02   401.51549   133.44037   216.83368
   182  C   4.0   -0.07    3.03    3.02   400.64161   129.58280   213.40475
   183  C   4.0   -0.12    3.03    3.02   399.27286   132.09713   216.92829
   184  C   4.0    0.09    3.03    3.02   398.83824   130.15198   215.22416
   185  O   6.0   -0.47    1.99    1.83   396.66969   128.74346   215.29833
   186  H   1.0    0.23    1.00    1.43   407.30295   133.72551   210.01308
   187  H   1.0    0.14    0.99    1.43   404.70799   137.58921   213.04185
   188  H   1.0    0.11    0.99    1.43   407.36909   132.76723   214.78739
   189  H   1.0    0.10    0.99    1.43   406.17930   135.13540   216.85212
   190  H   1.0    0.12    1.00    1.43   404.32249   130.40314   212.00412
   191  H   1.0    0.10    1.00    1.43   401.83421   134.94328   218.17647
   192  H   1.0    0.13    1.00    1.43   400.29871   128.11229   212.04440
   193  H   1.0    0.10    0.99    1.43   397.88067   132.55876   218.35104
   194  H   1.0    0.24    0.99    1.43   395.64226   129.29219   216.70476
   195  N   5.0   -0.48    3.01    1.93   408.90186   139.31064   214.57947
   196  C   4.0    0.08    4.00    3.62   411.25685   140.56853   215.13744
   197  C   4.0    0.26    3.01    3.02   411.39912   141.09448   217.96746
   198  O   6.0   -0.47    1.00    1.80   409.53267   141.36590   219.29673
   199  C   4.0   -0.13    3.99    3.60   411.48366   143.06951   213.65148
   200  C   4.0   -0.03    3.03    3.02   411.65936   142.45808   210.88976
   201  C   4.0   -0.09    3.03    3.02   409.49239   142.30102   209.41861
   202  C   4.0   -0.10    3.03    3.02   413.96964   141.83367   209.81321
   203  C   4.0   -0.07    3.03    3.02   409.61535   141.50314   206.93741
   204  C   4.0   -0.10    3.03    3.02   414.10751   141.00487   207.34658
   205  C   4.0    0.10    3.03    3.02   411.92534   140.79144   205.89781
   206  O   6.0   -0.49    1.99    1.83   411.99934   139.92999   203.48300
   207  H   1.0    0.28    1.00    1.43   407.31300   140.34642   214.87536
   208  H   1.0    0.13    0.99    1.43   412.77533   139.28203   214.56659
   209  H   1.0    0.11    0.99    1.43   409.80363   144.20555   214.01215
   210  H   1.0    0.09    0.99    1.43   413.16295   144.08504   214.27664
   211  H   1.0    0.13    0.99    1.43   407.67816   142.78530   210.22301
   212  H   1.0    0.11    1.00    1.43   415.67982   141.99772   210.91529
   213  H   1.0    0.13    0.99    1.43   407.93181   141.39556   205.78739
   214  H   1.0    0.10    1.00    1.43   415.89212   140.48750   206.50685
   215  H   1.0    0.23    0.99    1.43   413.47289   138.82450   203.28102
   216  N   5.0   -0.50    3.01    1.93   413.75295   141.32357   218.85185
   217  C   4.0    0.07    3.99    3.61   414.24277   141.68632   221.51347
   218  C   4.0    0.26    3.02    3.02   416.45971   143.49846   221.85254
   219  O   6.0   -0.45    1.00    1.80   418.33557   143.36246   220.51525
   220  C   4.0   -0.20    3.99    3.60   414.94073   139.16986   222.76440
   221  H   1.0    0.24    1.00    1.43   415.24276   140.88964   217.73237
   222  H   1.0    0.13    0.99    1.43   412.49837   142.43480   222.33208
   223  H   1.0    0.11    0.99    1.43   415.41937   139.44863   224.73864
   224  H   1.0    0.11    0.99    1.43   413.35702   137.87356   222.60851
   225  H   1.0    0.12    0.99    1.43   416.56254   138.34639   221.80763
   226  N   5.0   -0.49    3.01    1.93   416.15040   145.22945   223.70373
   227  C   4.0    0.06    4.00    3.61   418.35337   146.53465   224.71386
   228  C   4.0    0.07    3.00    3.02   419.60275   144.68465   226.55461
   229  O   6.0   -0.44    1.00    1.80   418.32106   143.57256   228.14477
   230  C   4.0   -0.14    3.98    3.59   417.71813   149.01449   226.04815
   231  C   4.0   -0.17    3.98    3.59   420.18303   150.46106   226.49220
   232  C   4.0   -0.15    3.98    3.58   419.81768   153.11426   227.57077
   233  C   4.0   -0.06    3.98    3.58   418.87111   153.03198   230.29493
   234  N   5.0   -0.74    3.98    2.82   419.31381   155.51165   231.55548
   235  H   1.0    0.24    1.00    1.43   414.79654   144.85850   225.00402
   236  H   1.0    0.12    0.99    1.43   419.62872   146.89928   223.13715
   237  H   1.0    0.12    0.99    1.43   416.48977   150.12097   224.82482
   238  H   1.0    0.13    0.99    1.43   416.78996   148.60506   227.84232
   239  H   1.0    0.12    0.99    1.43   421.39887   149.37288   227.75806
   240  H   1.0    0.10    0.99    1.43   421.17092   150.60959   224.68898
   241  H   1.0    0.10    0.99    1.43   421.66475   154.02801   227.52419
   242  H   1.0    0.12    0.99    1.43   418.53562   154.18007   226.36122
   243  H   1.0    0.11    0.99    1.43   416.85370   152.62472   230.36460
   244  H   1.0    0.12    0.99    1.43   419.89877   151.56104   231.31888
   245  H   1.0    0.23    1.00    1.43   418.62105   155.49194   233.37306
   246  H   1.0    0.22    1.00    1.43   421.22533   155.87339   231.63095
   247  H   1.0    0.23    1.00    1.43   418.44694   156.93533   230.54304
   248  N   5.0   -0.70    3.00    1.93   424.23991   148.09612   217.93403
   249  C   4.0    0.07    3.98    3.59   422.15396   146.46085   217.28910
   250  C   4.0    0.06    3.00    3.02   423.04238   144.29508   215.59900
   251  O   6.0   -0.42    1.00    1.80   424.78047   144.50818   214.08563
   252  C   4.0   -0.13    3.99    3.60   420.01012   147.88837   215.92717
   253  C   4.0   -0.05    3.03    3.02   418.86807   149.87795   217.59402
   254  C   4.0   -0.13    3.03    3.02   420.10197   152.16182   218.00527
   255  C   4.0   -0.11    3.03    3.02   416.56500   149.46797   218.77804
   256  C   4.0   -0.10    3.03    3.02   419.09676   153.96147   219.60204
   257  C   4.0   -0.12    3.03    3.02   415.50639   151.28484   220.33243
   258  C   4.0    0.09    3.03    3.02   416.78764   153.53470   220.78626
   259  O   6.0   -0.50    1.99    1.83   415.89977   155.32066   222.39237
   260  H   1.0    0.27    1.00    1.43   425.33790   148.69394   216.49365
   261  H   1.0    0.15    0.99    1.43   421.43280   145.68862   219.06442
   262  H   1.0    0.11    0.99    1.43   420.75896   148.71359   214.19445
   263  H   1.0    0.10    0.99    1.43   418.58026   146.50096   215.39751
   264  H   1.0    0.10    1.00    1.43   421.86532   152.53665   217.05067
   265  H   1.0    0.12    1.00    1.43   415.59476   147.70093   218.46679
   266  H   1.0    0.11    1.00    1.43   420.06230   155.72504   219.92871
   267  H   1.0    0.10    1.00    1.43   413.67299   150.95220   221.16290
   268  H   1.0    0.24    0.99    1.43   414.16462   154.96860   222.85696
   269  N   5.0   -0.71    3.00    1.93   418.07658   153.23672   210.53635
   270  C   4.0    0.06    3.98    3.58   415.46752   152.38897   210.61202
   271  C   4.0    0.06    3.00    3.02   414.02038   153.37858   208.31432
   272  O   6.0   -0.44    1.00    1.80   413.81550   155.65987   207.93609
   273  C   4.0   -0.13    3.99    3.60   414.22551   153.44257   213.01557
   274  C   4.0   -0.10    3.98    3.58   411.48667   152.57802   213.41069
   275  C   4.0   -0.24    3.98    3.59   411.34496   149.79298   214.14321
   276  C   4.0   -0.23    3.99    3.59   410.25799   154.16481   215.48746
   277  H   1.0    0.26    1.00    1.43   418.38995   155.12400   210.44649
   278  H   1.0    0.10    0.99    1.43   415.53676   150.33039   210.62093
   279  H   1.0    0.11    0.99    1.43   415.37298   152.88916   214.63821
   280  H   1.0    0.12    0.99    1.43   414.25897   155.49996   212.85462
   281  H   1.0    0.12    0.99    1.43   410.43230   152.87172   211.65124
   282  H   1.0    0.10    0.99    1.43   409.38651   149.26746   214.46142
   283  H   1.0    0.09    0.99    1.43   412.08891   148.58951   212.65630
   284  H   1.0    0.10    0.99    1.43   412.42491   149.47577   215.85827
   285  H   1.0    0.11    0.99    1.43   408.30033   153.58877   215.73245
   286  H   1.0    0.10    0.99    1.43   411.28092   153.91186   217.24887
   287  H   1.0    0.10    0.99    1.43   410.28037   156.15704   214.98773
   288  N   5.0   -0.72    3.00    1.93   408.36995   155.99644   204.45242
   289  C   4.0    0.07    3.98    3.59   406.30511   157.54755   205.37991
   290  C   4.0    0.27    3.01    3.02   403.82138   156.07661   205.58015
   291  O   6.0   -0.44    1.00    1.80   402.22538   156.64689   207.14330
   292  C   4.0   -0.22    3.99    3.60   405.91435   159.81716   203.64911
   293  H   1.0    0.26    1.00    1.43   409.51985   156.79386   203.15635
   294  H   1.0    0.11    0.99    1.43   406.74116   158.18724   207.30573
   295  H   1.0    0.10    0.99    1.43   404.33607   160.92899   204.34644
   296  H   1.0    0.09    0.99    1.43   407.60003   160.98961   203.63345
   297  H   1.0    0.10    0.99    1.43   405.48607   159.18973   201.74082
   298  N   5.0   -0.48    3.01    1.93   403.49279   154.25688   203.85007
   299  C   4.0    0.09    3.99    3.60   401.29008   152.66933   203.69450
   300  C   4.0    0.29    3.00    3.02   401.03144   150.75880   205.85695
   301  O   6.0   -0.42    1.00    1.80   399.19784   149.32804   205.94670
   302  C   4.0    0.05    3.98    3.59   401.36096   151.34422   201.08360
   303  O   6.0   -0.48    1.99    1.82   403.81213   150.38627   200.65346
   304  C   4.0   -0.20    3.98    3.59   400.71880   153.20662   198.98071
   305  H   1.0    0.28    1.00    1.43   404.90850   153.70827   202.68262
   306  H   1.0    0.13    0.99    1.43   399.57126   153.82434   203.81884
   307  H   1.0    0.15    0.99    1.43   399.95228   149.81835   201.10845
   308  H   1.0    0.33    0.99    1.43   403.92913   148.74734   201.51086
   309  H   1.0    0.12    0.99    1.43   400.78785   152.21997   197.18449
   310  H   1.0    0.10    0.99    1.43   398.82301   153.93252   199.26627
   311  H   1.0    0.11    0.99    1.43   402.07119   154.74966   198.96804
   312  N   5.0   -0.46    3.01    1.93   402.78358   150.86714   207.66589
   313  C   4.0    0.07    3.99    3.61   402.69416   149.34837   209.93736
   314  C   4.0    0.28    3.01    3.02   401.83057   150.96054   212.19025
   315  O   6.0   -0.43    1.00    1.80   403.01837   151.09484   214.16145
   316  C   4.0   -0.20    3.98    3.59   405.24656   148.10920   210.38776
   317  H   1.0    0.26    1.00    1.43   404.38066   151.91057   207.44972
   318  H   1.0    0.16    0.99    1.43   401.22629   147.90938   209.67570
   319  H   1.0    0.13    0.99    1.43   405.12275   146.80164   211.96470
   320  H   1.0    0.12    0.99    1.43   405.77946   147.06713   208.69785
   321  H   1.0    0.11    0.99    1.43   406.65649   149.55142   210.76652
   322  N   5.0   -0.47    3.01    1.93   399.64930   152.18780   211.80914
   323  C   4.0    0.09    3.99    3.60   398.42951   153.71220   213.70169
   324  C   4.0    0.28    3.02    3.02   397.01007   152.20931   215.70249
   325  O   6.0   -0.42    1.00    1.80   396.22978   153.23698   217.63040
   326  C   4.0    0.04    3.98    3.59   396.43300   155.42970   212.37544
   327  O   6.0   -0.46    1.99    1.82   395.14495   154.00671   210.51831
   328  C   4.0   -0.20    3.98    3.59   397.68772   157.71490   211.15158
   329  H   1.0    0.29    1.00    1.43   398.62026   151.94010   210.21493
   330  H   1.0    0.13    0.99    1.43   399.83774   154.87663   214.67137
   331  H   1.0    0.13    0.99    1.43   395.09345   156.05655   213.83522
   332  H   1.0    0.32    0.99    1.43   393.64225   153.24254   211.30233
   333  H   1.0    0.11    0.99    1.43   396.25212   158.78431   210.15054
   334  H   1.0    0.09    0.99    1.43   398.53909   158.88263   212.60467
   335  H   1.0    0.16    0.99    1.43   399.11625   157.10673   209.81035
   336  N   5.0   -0.46    3.01    1.93   396.60037   149.76376   215.21687
   337  C   4.0    0.09    4.00    3.62   394.67663   148.38246   216.58004
   338  C   4.0    0.29    3.01    3.02   395.83661   147.01222   218.84956
   339  O   6.0   -0.45    1.00    1.80   396.35795   144.75458   218.78132
   340  C   4.0   -0.13    3.98    3.59   393.33120   146.53132   214.83288
   341  C   4.0   -0.10    3.98    3.58   392.10678   147.86308   212.58773
   342  C   4.0    0.32    2.99    3.02   390.40858   150.05896   213.54246
   343  O   6.0   -0.38    1.00    1.80   388.42583   149.46306   214.64748
   344  O   6.0   -0.42    1.00    1.80   391.18535   152.26643   213.18159
   345  H   1.0    0.28    1.00    1.43   397.27886   148.95168   213.62992
   346  H   1.0    0.16    0.99    1.43   393.31282   149.77349   217.30386
   347  H   1.0    0.14    0.99    1.43   394.71244   145.15143   214.16887
   348  H   1.0    0.12    0.99    1.43   391.87137   145.56898   215.93117
   349  H   1.0    0.14    0.99    1.43   393.52039   148.61516   211.28158
   350  H   1.0    0.11    0.99    1.43   390.90785   146.54465   211.54357
   351  N   5.0   -0.46    3.01    1.93   396.23754   148.44961   220.87309
   352  C   4.0    0.09    4.00    3.62   396.88919   147.31651   223.29056
   353  C   4.0    0.28    3.01    3.02   394.87379   145.33523   223.90665
   354  O   6.0   -0.40    1.00    1.80   392.62154   145.89107   223.93667
   355  C   4.0   -0.09    3.98    3.59   396.92690   149.29246   225.36707
   356  C   4.0    0.31    2.99    3.02   399.43395   150.87681   225.38921
   357  O   6.0   -0.42    1.00    1.80   401.39969   149.76240   224.76764
   358  O   6.0   -0.39    1.00    1.80   399.24235   153.10408   226.10818
   359  H   1.0    0.28    1.00    1.43   395.84166   150.31684   220.78671
   360  H   1.0    0.17    0.99    1.43   398.75628   146.42772   223.14672
   361  H   1.0    0.13    0.99    1.43   395.30662   150.55797   225.19663
   362  H   1.0    0.12    0.99    1.43   396.79855   148.35126   227.20595
   363  N   5.0   -0.47    3.01    1.93   395.76604   143.04582   224.48052
   364  C   4.0    0.07    3.99    3.61   394.12248   140.93050   224.99062
   365  C   4.0    0.06    3.00    3.02   394.91484   139.54597   227.39870
   366  O   6.0   -0.44    1.00    1.80   397.11677   139.08494   227.91351
   367  C   4.0   -0.08    3.98    3.59   394.10433   138.98622   222.80095
   368  C   4.0   -0.21    3.98    3.59   392.69745   140.06233   220.52937
   369  C   4.0   -0.21    3.98    3.59   396.78002   138.20787   222.06710
   370  H   1.0    0.29    1.00    1.43   397.60575   142.66981   224.11427
   371  H   1.0    0.13    0.99    1.43   392.22158   141.72603   225.20093
   372  H   1.0    0.10    0.99    1.43   393.07697   137.31450   223.45735
   373  H   1.0    0.10    0.99    1.43   392.74535   138.72468   218.97444
   374  H   1.0    0.12    0.99    1.43   390.72647   140.44563   220.98193
   375  H   1.0    0.16    0.99    1.43   393.56710   141.82131   219.91744
   376  H   1.0    0.09    0.99    1.43   396.69273   136.58365   220.81754
   377  H   1.0    0.14    0.99    1.43   397.71743   139.76112   221.10511
   378  H   1.0    0.13    0.99    1.43   397.85406   137.70856   223.74526
   379  N   5.0   -0.68    3.00    1.93   388.53766   131.13994   216.67433
   380  C   4.0    0.06    3.98    3.58   386.69107   132.10891   214.89680
   381  C   4.0    0.05    3.00    3.02   386.23308   130.08525   212.84816
   382  O   6.0   -0.40    1.00    1.80   387.95156   128.68922   212.20249
   383  C   4.0   -0.14    3.99    3.60   387.76516   134.44096   213.54275
   384  C   4.0   -0.13    3.98    3.59   388.45922   136.60873   215.32926
   385  C   4.0    0.26    3.00    3.02   386.19245   137.94528   216.46451
   386  O   6.0   -0.42    1.00    1.80   385.84258   138.06779   218.74337
   387  N   5.0   -0.65    3.00    1.93   384.57370   138.96748   214.78347
   388  H   1.0    0.27    1.00    1.43   390.32839   131.10708   216.01224
   389  H   1.0    0.11    0.99    1.43   384.94196   132.55993   215.89608
   390  H   1.0    0.12    0.99    1.43   389.46957   133.88336   212.51789
   391  H   1.0    0.10    0.99    1.43   386.36495   135.09298   212.18047
   392  H   1.0    0.10    0.99    1.43   389.58725   135.92251   216.91267
   393  H   1.0    0.10    0.99    1.43   389.56498   138.01517   214.29912
   394  H   1.0    0.25    1.00    1.43   384.99541   139.13684   212.93909
   395  H   1.0    0.29    1.00    1.43   383.05854   139.92702   215.42015
   396  H   1.0    0.30    1.00    1.43   381.76817   139.99919   204.10429
   397  H   1.0    0.11    1.00    1.43   379.24088   136.88095   210.55348
   398  H   1.0    0.32    1.00    1.43   416.84764   142.18981   233.88008
   399  H   1.0    0.13    1.00    1.43   411.18162   145.76143   234.40926
   400  H   1.0    0.30    1.00    1.43   404.91949   144.11845   233.37255
   401  H   1.0    0.15    1.00    1.43   397.79857   139.96775   197.73111
   402  H   1.0    0.30    1.00    1.43   399.61763   135.72382   201.26411
   403  H   1.0    0.12    1.00    1.43   421.46523   144.37725   226.46674
   404  H   1.0    0.29    1.00    1.43   423.64705   149.50620   218.67750
   405  H   1.0    0.12    1.00    1.43   422.19468   142.60916   215.69966
   406  H   1.0    0.28    1.00    1.43   418.88448   152.71329   211.93845
   407  H   1.0    0.11    1.00    1.43   413.22911   152.16463   207.10135
   408  H   1.0    0.31    1.00    1.43   409.37383   155.55179   205.75130
   409  H   1.0    0.12    1.00    1.43   393.60455   138.97471   228.63477
   410  H   1.0    0.29    1.00    1.43   388.54379   132.10948   218.07166
   411  H   1.0    0.10    1.00    1.43   384.52848   129.91783   212.04982

           ------------------------------------------------- 
          |        Self-Consistent Charge Iterations        |
           ------------------------------------------------- 

          ...................................................
          :                      SETUP                      :
          :.................................................:
          :  # basis functions                1032          :
          :  # atomic orbitals                1032          :
          :  # shells                          618          :
          :  # electrons                      1154          :
          :  max. iterations                   250          :
          :  Hamiltonian                  GFN2-xTB          :
          :  restarted?                      false          :
          :  GBSA solvation                   true          :
          :  PC potential                    false          :
          :  electronic temp.          500.0000000     K    :
          :  accuracy                    0.1000000          :
          :  -> integral cutoff          0.3500000E+02      :
          :  -> integral neglect         0.1000000E-08      :
          :  -> SCF convergence          0.1000000E-06 Eh   :
          :  -> wf. convergence          0.1000000E-04 e    :
          :  Broyden damping             0.4000000          :
          ...................................................

 iter      E             dE          RMSdq      gap      omega  full diag
   1   -663.9867397 -0.663987E+03  0.447E+00    2.12       0.0  T
   2   -665.7960824 -0.180934E+01  0.229E+00    1.79       1.0  T
   3   -665.8725110 -0.764286E-01  0.126E+00    2.12       1.0  T
   4   -665.9148830 -0.423720E-01  0.332E-01    1.21       1.0  T
   5   -665.9355428 -0.206597E-01  0.142E-01    1.30       1.0  T
   6   -665.9366508 -0.110806E-02  0.746E-02    1.30       1.0  T
   7   -665.9369719 -0.321068E-03  0.364E-02    1.28       1.0  T
   8   -665.9371461 -0.174170E-03  0.161E-02    1.26       1.0  T
   9   -665.9371673 -0.212556E-04  0.824E-03    1.24       1.0  T
  10   -665.9371749 -0.761527E-05  0.332E-03    1.24       1.5  T
  11   -665.9371759 -0.100334E-05  0.153E-03    1.23       3.2  T
  12   -665.9371762 -0.230750E-06  0.743E-04    1.23       6.6  T
  13   -665.9371762 -0.677062E-07  0.337E-04    1.23      14.6  T
  14   -665.9371762 -0.840453E-08  0.145E-04    1.23      34.1  T
  15   -665.9371762 -0.217506E-08  0.703E-05    1.23      70.2  T
  16   -665.9371762 -0.493060E-09  0.358E-05    1.23     137.8  T

   *** convergence criteria satisfied after 16 iterations ***

         #    Occupation            Energy/Eh            Energy/eV
      -------------------------------------------------------------
         1        2.0000           -0.7488019             -20.3759
       ...           ...                  ...                  ...
       571        2.0000           -0.3697318             -10.0609
       572        2.0000           -0.3678157             -10.0088
       573        2.0000           -0.3644630              -9.9175
       574        2.0000           -0.3604949              -9.8096
       575        2.0000           -0.3594556              -9.7813
       576        2.0000           -0.3591086              -9.7718
       577        2.0000           -0.3498979              -9.5212 (HOMO)
       578        0.0000           -0.3045527              -8.2873 (LUMO)
       579                         -0.2961813              -8.0595
       580                         -0.2942955              -8.0082
       581                         -0.2939864              -7.9998
       582                         -0.2872173              -7.8156
       ...                                ...                  ...
      1032                          0.6641434              18.0723
      -------------------------------------------------------------
                  HL-Gap            0.0453452 Eh            1.2339 eV
             Fermi-level           -0.3272262 Eh           -8.9043 eV

 SCC (total)                   0 d,  0 h,  0 min,  6.498 sec
 SCC setup                      ...        0 min,  0.112 sec (  1.724%)
 Dispersion                     ...        0 min,  0.105 sec (  1.615%)
 integral evaluation            ...        0 min,  0.242 sec (  3.717%)
 zeroth order Hamiltonian       ...        0 min,  0.007 sec (  0.113%)
 iterations                     ...        0 min,  5.010 sec ( 77.101%)
 molecular gradient             ...        0 min,  0.988 sec ( 15.207%)
 printout                       ...        0 min,  0.034 sec (  0.522%)

         :::::::::::::::::::::::::::::::::::::::::::::::::::::
         ::                     SUMMARY                     ::
         :::::::::::::::::::::::::::::::::::::::::::::::::::::
         :: total energy             -657.885913268042 Eh   ::
         :: total w/o Gsasa/hb       -657.806279389112 Eh   ::
         :: gradient norm               0.639634408938 Eh/α ::
         :: HOMO-LUMO gap               1.233905717592 eV   ::
         ::.................................................::
         :: SCC energy               -665.946856180333 Eh   ::
         :: -> isotropic ES             3.053324487869 Eh   ::
         :: -> anisotropic ES          -0.219260352601 Eh   ::
         :: -> anisotropic XC           0.191405383095 Eh   ::
         :: -> dispersion              -0.554971634149 Eh   ::
         :: -> Gsolv                   -1.195830063455 Eh   ::
         ::    -> Gborn                -1.116196184526 Eh   ::
         ::    -> Gsasa                -0.011537374236 Eh   ::
         ::    -> Ghb                  -0.069953947820 Eh   ::
         ::    -> Gshift                0.001857443127 Eh   ::
         :: repulsion energy            8.001243564256 Eh   ::
         :: add. restraining            0.000000000000 Eh   ::
         :::::::::::::::::::::::::::::::::::::::::::::::::::::

           -------------------------------------------------
          |                Property Printout                |
           -------------------------------------------------

    * Orbital Energies and Occupations

         #    Occupation            Energy/Eh            Energy/eV
      -------------------------------------------------------------
         1        2.0000           -0.7488019             -20.3759
       ...           ...                  ...                  ...
       565        2.0000           -0.3778982             -10.2831
       566        2.0000           -0.3773135             -10.2672
       567        2.0000           -0.3748648             -10.2006
       568        2.0000           -0.3746896             -10.1958
       569        2.0000           -0.3710946             -10.0980
       570        2.0000           -0.3709462             -10.0940
       571        2.0000           -0.3697318             -10.0609
       572        2.0000           -0.3678157             -10.0088
       573        2.0000           -0.3644630              -9.9175
       574        2.0000           -0.3604949              -9.8096
       575        2.0000           -0.3594556              -9.7813
       576        2.0000           -0.3591086              -9.7718
       577        2.0000           -0.3498979              -9.5212 (HOMO)
       578        0.0000           -0.3045527              -8.2873 (LUMO)
       579                         -0.2961813              -8.0595
       580                         -0.2942955              -8.0082
       581                         -0.2939864              -7.9998
       582                         -0.2872173              -7.8156
       583                         -0.2860238              -7.7831
       584                         -0.2825266              -7.6879
       585                         -0.2734348              -7.4405
       586                         -0.2541621              -6.9161
       587                         -0.2509281              -6.8281
       588                         -0.2473483              -6.7307
       ...                                ...                  ...
      1032                          0.6641434              18.0723
      -------------------------------------------------------------
                  HL-Gap            0.0453452 Eh            1.2339 eV
             Fermi-level           -0.3272262 Eh           -8.9043 eV

   #   Z        covCN         q      C6AA      α(0)
   1   7 N      2.638    -0.375    29.672     8.090
   2   6 C      3.783     0.037    19.974     6.366
   3   6 C      2.770     0.195    23.829     7.995
   4   8 O      0.856    -0.383    21.336     6.193
   5   6 C      3.813    -0.058    21.615     6.617
   6   6 C      2.969    -0.004    28.128     8.699
   7   6 C      2.925    -0.039    28.960     8.825
   8   6 C      2.924    -0.044    29.102     8.847
   9   6 C      2.918    -0.058    29.439     8.897
  10   6 C      2.917    -0.076    29.906     8.968
  11   6 C      2.846     0.147    24.793     8.161
  12   8 O      1.660    -0.439    21.612     6.276
  13   1 H      0.860     0.155     1.365     1.830
  14   1 H      0.924     0.080     1.983     2.202
  15   1 H      0.924     0.019     2.746     2.591
  16   1 H      0.924     0.043     2.414     2.430
  17   1 H      0.925     0.006     2.964     2.692
  18   1 H      0.926     0.061     2.191     2.315
  19   1 H      0.926     0.035     2.518     2.481
  20   1 H      0.926     0.070     2.087     2.259
  21   1 H      0.805     0.368     0.547     1.162
  22   7 N      2.635    -0.388    30.050     8.141
  23   6 C      3.781     0.049    19.781     6.336
  24   6 C      2.765     0.193    23.875     8.002
  25   8 O      0.856    -0.351    20.721     6.103
  26   6 C      3.804    -0.106    22.513     6.755
  27   6 C      2.682     0.374    20.670     7.440
  28   8 O      0.856    -0.653    27.471     7.027
  29   8 O      0.856    -0.643    27.198     6.992
  30   1 H      0.860     0.176     1.235     1.741
  31   1 H      0.924     0.039     2.456     2.451
  32   1 H      0.925     0.051     2.312     2.378
  33   1 H      0.924     0.022     2.699     2.569
  34   7 N      2.639    -0.364    29.377     8.050
  35   6 C      3.786     0.048    19.783     6.335
  36   6 C      2.765     0.260    22.625     7.790
  37   8 O      0.859    -0.455    22.808     6.403
  38   6 C      3.802    -0.077    21.975     6.674
  39   6 C      2.684     0.373    20.682     7.442
  40   8 O      0.856    -0.608    26.310     6.877
  41   8 O      0.856    -0.683    28.245     7.125
  42   1 H      0.860     0.147     1.425     1.870
  43   1 H      0.923     0.026     2.637     2.540
  44   1 H      0.924     0.002     3.027     2.721
  45   1 H      0.924    -0.002     3.085     2.747
  46   7 N      2.691    -0.157    24.400     7.336
  47   6 C      3.803     0.016    20.306     6.415
  48   6 C      2.756     0.275    22.347     7.741
  49   8 O      0.858    -0.517    24.170     6.591
  50   6 C      3.810    -0.069    21.821     6.649
  51   6 C      3.850    -0.014    20.789     6.485
  52   6 C      3.755    -0.122    22.896     6.823
  53   6 C      3.758    -0.122    22.892     6.821
  54   1 H      0.860     0.189     1.163     1.689
  55   1 H      0.924     0.100     1.783     2.088
  56   1 H      0.924     0.051     2.311     2.377
  57   1 H      0.924     0.045     2.388     2.417
  58   1 H      0.924     0.050     2.316     2.380
  59   1 H      0.925     0.063     2.169     2.303
  60   1 H      0.925     0.038     2.479     2.462
  61   1 H      0.925     0.032     2.552     2.498
  62   1 H      0.925     0.063     2.163     2.300
  63   1 H      0.925     0.043     2.413     2.429
  64   1 H      0.925     0.043     2.410     2.428
  65   7 N      2.693    -0.186    25.033     7.431
  66   6 C      3.796     0.037    19.965     6.363
  67   6 C      2.758     0.269    22.461     7.761
  68   8 O      0.858    -0.481    23.358     6.480
  69   6 C      3.803    -0.070    21.830     6.652
  70   6 C      3.803    -0.065    21.739     6.638
  71   6 C      3.801    -0.091    22.235     6.714
  72   6 C      3.732    -0.042    21.413     6.605
  73   7 N      3.481    -0.151    24.258     7.315
  74   1 H      0.860     0.259     0.851     1.445
  75   1 H      0.924     0.025     2.664     2.552
  76   1 H      0.924     0.081     1.970     2.195
  77   1 H      0.924     0.046     2.366     2.406
  78   1 H      0.924     0.066     2.135     2.285
  79   1 H      0.924     0.024     2.676     2.558
  80   1 H      0.925     0.071     2.079     2.255
  81   1 H      0.924     0.090     1.874     2.141
  82   1 H      0.925     0.117     1.639     2.002
  83   1 H      0.924     0.095     1.830     2.116
  84   1 H      0.859     0.289     0.747     1.354
  85   1 H      0.857     0.299     0.718     1.327
  86   1 H      0.859     0.287     0.753     1.359
  87   7 N      2.691    -0.184    24.979     7.423
  88   6 C      3.798     0.043    19.855     6.345
  89   6 C      2.754     0.288    22.116     7.701
  90   8 O      0.858    -0.545    24.812     6.678
  91   6 C      3.812    -0.074    21.908     6.662
  92   6 C      2.968     0.006    27.879     8.661
  93   6 C      2.925    -0.037    28.909     8.817
  94   6 C      2.924    -0.034    28.856     8.809
  95   6 C      2.918    -0.026    28.663     8.779
  96   6 C      2.918    -0.027    28.674     8.781
  97   6 C      2.920    -0.031    28.781     8.798
  98   1 H      0.860     0.207     1.069     1.620
  99   1 H      0.924     0.074     2.044     2.236
 100   1 H      0.924     0.080     1.980     2.200
 101   1 H      0.924     0.044     2.399     2.422
 102   1 H      0.926     0.059     2.208     2.324
 103   1 H      0.925    -0.030     3.629     2.979
 104   1 H      0.926     0.080     1.983     2.202
 105   1 H      0.925     0.004     2.992     2.705
 106   1 H      0.926     0.057     2.230     2.335
 107   7 N      2.695    -0.197    25.288     7.469
 108   6 C      3.799     0.065    19.493     6.286
 109   6 C      2.761     0.281    22.250     7.725
 110   8 O      0.859    -0.470    23.128     6.448
 111   6 C      3.807    -0.080    22.017     6.680
 112   6 C      2.689     0.372    20.702     7.446
 113   8 O      0.856    -0.630    26.858     6.948
 114   8 O      0.857    -0.593    25.952     6.830
 115   1 H      0.860     0.241     0.917     1.500
 116   1 H      0.924     0.020     2.727     2.582
 117   1 H      0.925     0.033     2.543     2.494
 118   1 H      0.924     0.048     2.346     2.395
 119   7 N      2.689    -0.185    25.015     7.428
 120   6 C      3.799     0.057    19.631     6.308
 121   6 C      2.755     0.283    22.208     7.717
 122   8 O      0.859    -0.493    23.632     6.518
 123   6 C      3.802    -0.080    22.018     6.681
 124   6 C      2.683     0.376    20.636     7.434
 125   8 O      0.856    -0.636    27.012     6.968
 126   8 O      0.856    -0.650    27.391     7.017
 127   1 H      0.860     0.177     1.233     1.739
 128   1 H      0.923     0.064     2.153     2.295
 129   1 H      0.925     0.046     2.367     2.406
 130   1 H      0.924    -0.002     3.096     2.752
 131   7 N      2.690    -0.175    24.787     7.394
 132   6 C      3.792     0.017    20.293     6.415
 133   6 C      2.764     0.201    23.722     7.976
 134   8 O      0.856    -0.324    20.213     6.028
 135   6 C      3.726     0.122    18.685     6.172
 136   8 O      1.655    -0.477    22.408     6.390
 137   6 C      3.753    -0.143    23.320     6.886
 138   1 H      0.860     0.196     1.127     1.663
 139   1 H      0.924     0.095     1.831     2.116
 140   1 H      0.924     0.053     2.285     2.364
 141   1 H      0.805     0.322     0.658     1.274
 142   1 H      0.925     0.085     1.933     2.174
 143   1 H      0.925     0.073     2.049     2.239
 144   1 H      0.925     0.067     2.116     2.275
 145   7 N      2.632    -0.390    30.091     8.147
 146   6 C      3.735    -0.018    20.985     6.538
 147   6 C      2.752     0.267    22.491     7.766
 148   8 O      0.859    -0.493    23.633     6.518
 149   1 H      0.860     0.147     1.419     1.866
 150   1 H      0.924     0.046     2.369     2.407
 151   1 H      0.924     0.084     1.941     2.179
 152   7 N      2.691    -0.172    24.718     7.384
 153   6 C      3.799     0.014    20.335     6.421
 154   6 C      2.756     0.279    22.280     7.729
 155   8 O      0.858    -0.520    24.224     6.599
 156   6 C      3.810    -0.074    21.914     6.664
 157   6 C      3.802    -0.088    22.174     6.704
 158   6 C      3.805    -0.095    22.305     6.723
 159   6 C      3.731    -0.052    21.598     6.634
 160   7 N      3.465    -0.144    24.113     7.293
 161   1 H      0.860     0.184     1.190     1.709
 162   1 H      0.924     0.096     1.826     2.113
 163   1 H      0.924     0.032     2.552     2.498
 164   1 H      0.924     0.069     2.096     2.264
 165   1 H      0.925     0.084     1.936     2.176
 166   1 H      0.924     0.059     2.207     2.323
 167   1 H      0.925     0.068     2.113     2.273
 168   1 H      0.925     0.087     1.911     2.162
 169   1 H      0.924     0.120     1.611     1.985
 170   1 H      0.925     0.126     1.563     1.955
 171   1 H      0.860     0.308     0.689     1.300
 172   1 H      0.839     0.306     0.698     1.310
 173   1 H      0.859     0.293     0.736     1.344
 174   7 N      2.692    -0.171    24.696     7.381
 175   6 C      3.798     0.025    20.156     6.392
 176   6 C      2.763     0.265    22.527     7.773
 177   8 O      0.858    -0.462    22.970     6.426
 178   6 C      3.816    -0.076    21.947     6.668
 179   6 C      2.968    -0.002    28.073     8.691
 180   6 C      2.928    -0.041    29.017     8.834
 181   6 C      2.925    -0.045    29.110     8.848
 182   6 C      2.918    -0.053    29.321     8.880
 183   6 C      2.918    -0.075    29.877     8.963
 184   6 C      2.848     0.144    24.853     8.171
 185   8 O      1.659    -0.426    21.349     6.237
 186   1 H      0.860     0.233     0.951     1.528
 187   1 H      0.924     0.041     2.438     2.442
 188   1 H      0.924     0.084     1.937     2.176
 189   1 H      0.924     0.052     2.296     2.370
 190   1 H      0.926     0.059     2.210     2.325
 191   1 H      0.926     0.026     2.637     2.539
 192   1 H      0.926     0.066     2.125     2.280
 193   1 H      0.925     0.029     2.598     2.520
 194   1 H      0.805     0.333     0.631     1.247
 195   7 N      2.693    -0.170    24.672     7.377
 196   6 C      3.803     0.012    20.372     6.426
 197   6 C      2.760     0.269    22.466     7.762
 198   8 O      0.859    -0.476    23.257     6.466
 199   6 C      3.812    -0.078    21.980     6.673
 200   6 C      2.974     0.002    27.982     8.677
 201   6 C      2.925    -0.039    28.968     8.826
 202   6 C      2.925    -0.043    29.067     8.841
 203   6 C      2.918    -0.057    29.427     8.896
 204   6 C      2.919    -0.076    29.888     8.965
 205   6 C      2.847     0.140    24.940     8.185
 206   8 O      1.658    -0.431    21.463     6.254
 207   1 H      0.860     0.200     1.107     1.648
 208   1 H      0.924     0.097     1.808     2.103
 209   1 H      0.925     0.051     2.311     2.377
 210   1 H      0.925     0.074     2.039     2.233
 211   1 H      0.926     0.002     3.029     2.722
 212   1 H      0.926     0.065     2.138     2.286
 213   1 H      0.926     0.008     2.918     2.671
 214   1 H      0.926     0.076     2.017     2.221
 215   1 H      0.803     0.367     0.550     1.165
 216   7 N      2.694    -0.158    24.421     7.340
 217   6 C      3.798     0.010    20.414     6.433
 218   6 C      2.762     0.268    22.482     7.765
 219   8 O      0.858    -0.449    22.676     6.384
 220   6 C      3.758    -0.128    23.010     6.839
 221   1 H      0.860     0.220     1.009     1.573
 222   1 H      0.924     0.084     1.934     2.175
 223   1 H      0.925     0.065     2.140     2.288
 224   1 H      0.925     0.068     2.107     2.270
 225   1 H      0.925     0.071     2.072     2.251
 226   7 N      2.692    -0.172    24.732     7.386
 227   6 C      3.799     0.020    20.235     6.405
 228   6 C      2.770     0.205    23.638     7.963
 229   8 O      0.856    -0.373    21.141     6.165
 230   6 C      3.804    -0.085    22.124     6.696
 231   6 C      3.806    -0.075    21.928     6.666
 232   6 C      3.802    -0.095    22.319     6.726
 233   6 C      3.731    -0.047    21.510     6.620
 234   7 N      3.483    -0.149    24.223     7.310
 235   1 H      0.860     0.209     1.061     1.614
 236   1 H      0.924     0.095     1.829     2.115
 237   1 H      0.925     0.091     1.865     2.136
 238   1 H      0.924     0.062     2.176     2.307
 239   1 H      0.924     0.050     2.317     2.380
 240   1 H      0.924     0.063     2.160     2.298
 241   1 H      0.924     0.086     1.914     2.163
 242   1 H      0.925     0.093     1.850     2.127
 243   1 H      0.925     0.110     1.694     2.035
 244   1 H      0.924     0.106     1.729     2.057
 245   1 H      0.859     0.294     0.731     1.340
 246   1 H      0.859     0.297     0.721     1.330
 247   1 H      0.859     0.306     0.694     1.305
 248   7 N      2.635    -0.385    29.970     8.131
 249   6 C      3.784     0.035    20.005     6.371
 250   6 C      2.767     0.200    23.734     7.979
 251   8 O      0.856    -0.382    21.323     6.191
 252   6 C      3.812    -0.067    21.781     6.643
 253   6 C      2.969    -0.003    28.088     8.693
 254   6 C      2.925    -0.046    29.149     8.854
 255   6 C      2.925    -0.042    29.040     8.837
 256   6 C      2.918    -0.062    29.544     8.913
 257   6 C      2.917    -0.082    30.045     8.988
 258   6 C      2.846     0.144    24.865     8.172
 259   8 O      1.660    -0.417    21.172     6.212
 260   1 H      0.860     0.160     1.334     1.809
 261   1 H      0.924     0.081     1.967     2.193
 262   1 H      0.925     0.048     2.350     2.397
 263   1 H      0.924     0.041     2.430     2.438
 264   1 H      0.926     0.046     2.372     2.408
 265   1 H      0.926     0.035     2.522     2.484
 266   1 H      0.926     0.062     2.175     2.306
 267   1 H      0.926     0.048     2.348     2.396
 268   1 H      0.805     0.341     0.609     1.225
 269   7 N      2.636    -0.379    29.781     8.105
 270   6 C      3.782     0.036    19.990     6.369
 271   6 C      2.767     0.203    23.678     7.969
 272   8 O      0.856    -0.374    21.167     6.168
 273   6 C      3.812    -0.075    21.929     6.666
 274   6 C      3.849    -0.008    20.687     6.469
 275   6 C      3.757    -0.126    22.972     6.834
 276   6 C      3.758    -0.114    22.740     6.799
 277   1 H      0.860     0.164     1.307     1.791
 278   1 H      0.925     0.059     2.207     2.323
 279   1 H      0.924     0.064     2.154     2.295
 280   1 H      0.924     0.051     2.303     2.373
 281   1 H      0.924    -0.006     3.167     2.783
 282   1 H      0.925     0.029     2.598     2.521
 283   1 H      0.925     0.040     2.449     2.447
 284   1 H      0.925     0.068     2.111     2.272
 285   1 H      0.925     0.023     2.686     2.563
 286   1 H      0.925     0.061     2.185     2.312
 287   1 H      0.925     0.033     2.550     2.497
 288   7 N      2.635    -0.397    30.285     8.173
 289   6 C      3.785     0.035    19.997     6.370
 290   6 C      2.754     0.266    22.504     7.768
 291   8 O      0.859    -0.517    24.170     6.592
 292   6 C      3.758    -0.124    22.935     6.828
 293   1 H      0.860     0.189     1.162     1.688
 294   1 H      0.923     0.034     2.525     2.485
 295   1 H      0.925     0.049     2.334     2.389
 296   1 H      0.925     0.079     1.990     2.206
 297   1 H      0.925     0.062     2.179     2.309
 298   7 N      2.691    -0.184    24.991     7.425
 299   6 C      3.792     0.021    20.227     6.405
 300   6 C      2.751     0.291    22.062     7.691
 301   8 O      0.858    -0.551    24.944     6.696
 302   6 C      3.728     0.131    18.543     6.148
 303   8 O      1.654    -0.465    22.163     6.355
 304   6 C      3.754    -0.130    23.058     6.847
 305   1 H      0.860     0.245     0.904     1.490
 306   1 H      0.924     0.052     2.298     2.371
 307   1 H      0.923    -0.000     3.064     2.737
 308   1 H      0.803     0.326     0.648     1.264
 309   1 H      0.925     0.083     1.951     2.185
 310   1 H      0.925     0.041     2.441     2.443
 311   1 H      0.925     0.080     1.983     2.202
 312   7 N      2.690    -0.181    24.912     7.413
 313   6 C      3.795     0.043    19.862     6.346
 314   6 C      2.753     0.269    22.451     7.759
 315   8 O      0.859    -0.458    22.878     6.413
 316   6 C      3.756    -0.112    22.705     6.794
 317   1 H      0.860     0.215     1.032     1.591
 318   1 H      0.924     0.044     2.400     2.423
 319   1 H      0.925     0.064     2.158     2.297
 320   1 H      0.925     0.065     2.142     2.289
 321   1 H      0.925     0.081     1.968     2.194
 322   7 N      2.691    -0.176    24.814     7.398
 323   6 C      3.793     0.020    20.243     6.407
 324   6 C      2.762     0.283    22.208     7.717
 325   8 O      0.859    -0.508    23.953     6.562
 326   6 C      3.729     0.135    18.482     6.137
 327   8 O      1.653    -0.499    22.866     6.455
 328   6 C      3.753    -0.138    23.210     6.870
 329   1 H      0.860     0.185     1.184     1.704
 330   1 H      0.924     0.090     1.883     2.146
 331   1 H      0.923     0.015     2.805     2.619
 332   1 H      0.802     0.305     0.707     1.321
 333   1 H      0.925     0.072     2.062     2.245
 334   1 H      0.925     0.073     2.053     2.241
 335   1 H      0.925     0.086     1.923     2.168
 336   7 N      2.690    -0.188    25.067     7.436
 337   6 C      3.801     0.060    19.572     6.299
 338   6 C      2.759     0.273    22.392     7.749
 339   8 O      0.859    -0.475    23.241     6.464
 340   6 C      3.808    -0.031    21.126     6.543
 341   6 C      3.799    -0.066    21.774     6.644
 342   6 C      2.686     0.374    20.658     7.438
 343   8 O      0.856    -0.618    26.564     6.910
 344   8 O      0.856    -0.634    26.976     6.964
 345   1 H      0.860     0.197     1.122     1.659
 346   1 H      0.923     0.025     2.665     2.553
 347   1 H      0.924     0.046     2.365     2.405
 348   1 H      0.924     0.035     2.514     2.480
 349   1 H      0.924    -0.010     3.229     2.810
 350   1 H      0.924     0.006     2.960     2.691
 351   7 N      2.693    -0.175    24.779     7.393
 352   6 C      3.800     0.051    19.727     6.324
 353   6 C      2.761     0.283    22.209     7.717
 354   8 O      0.858    -0.525    24.343     6.615
 355   6 C      3.803    -0.085    22.125     6.697
 356   6 C      2.682     0.368    20.764     7.457
 357   8 O      0.856    -0.595    25.991     6.835
 358   8 O      0.856    -0.628    26.812     6.942
 359   1 H      0.860     0.193     1.142     1.674
 360   1 H      0.924     0.073     2.054     2.241
 361   1 H      0.924     0.013     2.843     2.637
 362   1 H      0.924     0.019     2.747     2.592
 363   7 N      2.689    -0.175    24.790     7.395
 364   6 C      3.795     0.031    20.061     6.378
 365   6 C      2.767     0.202    23.698     7.972
 366   8 O      0.856    -0.356    20.818     6.117
 367   6 C      3.853    -0.010    20.723     6.475
 368   6 C      3.756    -0.104    22.551     6.771
 369   6 C      3.755    -0.119    22.832     6.813
 370   1 H      0.860     0.233     0.953     1.529
 371   1 H      0.924     0.070     2.081     2.256
 372   1 H      0.924     0.063     2.167     2.302
 373   1 H      0.925     0.055     2.253     2.347
 374   1 H      0.925     0.033     2.542     2.493
 375   1 H      0.925     0.026     2.640     2.541
 376   1 H      0.925     0.064     2.152     2.294
 377   1 H      0.925     0.052     2.296     2.370
 378   1 H      0.925     0.059     2.210     2.325
 379   7 N      2.637    -0.368    29.510     8.068
 380   6 C      3.781     0.034    20.018     6.374
 381   6 C      2.768     0.196    23.828     7.994
 382   8 O      0.856    -0.339    20.496     6.070
 383   6 C      3.808    -0.063    21.702     6.631
 384   6 C      3.805    -0.089    22.195     6.707
 385   6 C      2.743     0.290    22.081     7.694
 386   8 O      0.859    -0.492    23.610     6.515
 387   7 N      2.638    -0.281    27.262     7.755
 388   1 H      0.860     0.164     1.309     1.792
 389   1 H      0.924     0.059     2.216     2.328
 390   1 H      0.924     0.060     2.197     2.318
 391   1 H      0.925     0.040     2.450     2.448
 392   1 H      0.924     0.070     2.090     2.261
 393   1 H      0.924     0.041     2.436     2.441
 394   1 H      0.860     0.197     1.123     1.660
 395   1 H      0.860     0.219     1.015     1.578
 396   1 H      0.862     0.180     1.214     1.726
 397   1 H      0.930     0.085     1.926     2.170
 398   1 H      0.862     0.170     1.274     1.768
 399   1 H      0.930     0.065     2.144     2.290
 400   1 H      0.862     0.188     1.170     1.694
 401   1 H      0.930     0.077     2.005     2.214
 402   1 H      0.862     0.185     1.188     1.707
 403   1 H      0.930     0.075     2.031     2.228
 404   1 H      0.862     0.187     1.173     1.696
 405   1 H      0.930     0.064     2.153     2.294
 406   1 H      0.862     0.188     1.170     1.695
 407   1 H      0.930     0.059     2.214     2.326
 408   1 H      0.862     0.170     1.271     1.766
 409   1 H      0.930     0.082     1.955     2.186
 410   1 H      0.862     0.178     1.223     1.732
 411   1 H      0.930     0.080     1.980     2.200

 Mol. C6AA /au·bohr⁶  :    1647455.281251
 Mol. C8AA /au·bohr⁸  :   36923239.909776
 Mol. α(0) /au        :       1930.063460


Wiberg/Mayer (AO) data.
largest (>0.10) Wiberg bond orders for each atom
          total WBO             WBO to atom ...
     1  N   3.006        C    2 1.026    H   13 0.954    H  396 0.941
     2  C   3.983        N    1 1.026    C    3 0.986    H   14 0.954    C    5 0.924
     3  C   3.893        O    4 1.883    C    2 0.986    H  397 0.952
     4  O   2.035        C    3 1.883
     5  C   3.995        C    6 1.012    H   15 0.971    H   16 0.962    C    2 0.924
     6  C   3.986        C    8 1.406    C    7 1.392    C    5 1.012
     7  C   3.991        C    9 1.460    C    6 1.392    H   17 0.964    C   10 0.102
     8  C   3.987        C   10 1.452    C    6 1.406    H   18 0.966    C    9 0.107
     9  C   3.989        C    7 1.460    C   11 1.359    H   19 0.967    C    8 0.107
    10  C   3.982        C    8 1.452    C   11 1.367    H   20 0.963    C    7 0.102
    11  C   3.939        C   10 1.367    C    9 1.359    O   12 1.085
    12  O   2.091        C   11 1.085    H   21 0.844
    13  H   0.976        N    1 0.954
    14  H   0.994        C    2 0.954
    15  H   0.999        C    5 0.971
    16  H   0.998        C    5 0.962
    17  H   1.000        C    7 0.964
    18  H   0.996        C    8 0.966
    19  H   0.998        C    9 0.967
    20  H   0.995        C   10 0.963
    21  H   0.864        O   12 0.844
    22  N   2.996        C   23 1.003    H  398 0.957    H   30 0.931
    23  C   3.984        N   22 1.003    C   26 0.990    C   24 0.968    H   31 0.946
    24  C   3.895        O   25 1.908    C   23 0.968    H  399 0.956
    25  O   2.042        C   24 1.908
    26  C   3.987        C   23 0.990    H   32 0.970    H   33 0.966    C   27 0.911
    27  C   3.933        O   28 1.513    O   29 1.487    C   26 0.911
    28  O   1.804        C   27 1.513    O   29 0.216
    29  O   1.782        C   27 1.487    O   28 0.216
    30  H   0.969        N   22 0.931
    31  H   0.998        C   23 0.946
    32  H   0.997        C   26 0.970
    33  H   0.999        C   26 0.966
    34  N   2.997        C   35 1.022    H   42 0.961    H  400 0.954
    35  C   3.990        N   34 1.022    C   38 0.980    H   43 0.956    C   36 0.944
    36  C   3.948        O   37 1.600    N   46 1.307    C   35 0.944
    37  O   1.982        C   36 1.600    N   46 0.181
    38  C   3.983        C   35 0.980    H   45 0.966    H   44 0.964    C   39 0.908
    39  C   3.935        O   40 1.528    O   41 1.472    C   38 0.908
    40  O   1.824        C   39 1.528    O   41 0.216
    41  O   1.761        C   39 1.472    O   40 0.216
    42  H   0.978        N   34 0.961
    43  H   0.999        C   35 0.956
    44  H   1.000        C   38 0.964
    45  H   1.000        C   38 0.966
    46  N   3.474        C   36 1.307    C   47 0.977    H   54 0.926    O   37 0.181
    47  C   3.957        N   46 0.977    C   50 0.976    H   55 0.945    C   48 0.931
    48  C   3.937        O   49 1.601    N   65 1.312    C   47 0.931
    49  O   1.964        C   48 1.601    N   65 0.190
    50  C   3.982        C   51 0.990    C   47 0.976    H   57 0.970    H   56 0.968
    51  C   3.991        C   52 1.010    C   53 1.007    C   50 0.990    H   58 0.967
    52  C   3.994        C   51 1.010    H   61 0.986    H   60 0.985    H   59 0.983
    53  C   3.992        C   51 1.007    H   63 0.986    H   64 0.984    H   62 0.983
    54  H   0.964        N   46 0.926
    55  H   0.990        C   47 0.945
    56  H   0.997        C   50 0.968
    57  H   0.997        C   50 0.970
    58  H   0.997        C   51 0.967
    59  H   0.996        C   52 0.983
    60  H   0.999        C   52 0.985
    61  H   0.999        C   52 0.986
    62  H   0.995        C   53 0.983
    63  H   0.998        C   53 0.986
    64  H   0.998        C   53 0.984
    65  N   3.468        C   48 1.312    C   66 0.977    H   74 0.862    O   49 0.190
    66  C   3.968        C   69 0.984    N   65 0.977    H   75 0.956    C   67 0.930
    67  C   3.938        O   68 1.609    N   87 1.305    C   66 0.930
    68  O   1.942        C   67 1.609    N   87 0.185
    69  C   3.982        C   70 1.003    C   66 0.984    H   76 0.965    H   77 0.964
    70  C   3.989        C   71 1.004    C   69 1.003    H   79 0.974    H   78 0.972
    71  C   3.985        C   72 1.008    C   70 1.004    H   81 0.970    H   80 0.965
    72  C   3.922        C   71 1.008    H   82 0.965    H   83 0.963    N   73 0.962
    73  N   3.657        C   72 0.962    H   86 0.903    H   84 0.903    H   85 0.834
    74  H   0.933        N   65 0.862
    75  H   0.999        C   66 0.956
    76  H   0.993        C   69 0.965
    77  H   0.997        C   69 0.964
    78  H   0.995        C   70 0.972
    79  H   0.999        C   70 0.974
    80  H   0.995        C   71 0.965
    81  H   0.992        C   71 0.970
    82  H   0.986        C   72 0.965
    83  H   0.991        C   72 0.963
    84  H   0.916        N   73 0.903
    85  H   0.911        N   73 0.834
    86  H   0.918        N   73 0.903
    87  N   3.464        C   67 1.305    C   88 0.984    H   98 0.898    O   68 0.185
    88  C   3.968        N   87 0.984    C   91 0.963    H   99 0.947    C   89 0.932
    89  C   3.933        O   90 1.592    N  107 1.322    C   88 0.932
    90  O   1.920        C   89 1.592    N  107 0.192
    91  C   3.986        C   92 1.008    H  101 0.964    C   88 0.963    H  100 0.962
    92  C   3.985        C   93 1.413    C   94 1.411    C   91 1.008    C   97 0.109
    93  C   3.987        C   95 1.443    C   92 1.413    H  102 0.962    C   96 0.111
    94  C   3.989        C   96 1.444    C   92 1.411    H  103 0.966    C   95 0.111
    95  C   3.987        C   93 1.443    C   97 1.437    H  104 0.965    C   94 0.111
    96  C   3.990        C   94 1.444    C   97 1.434    H  105 0.970    C   93 0.111
    97  C   3.988        C   95 1.437    C   96 1.434    H  106 0.966    C   92 0.109
    98  H   0.957        N   87 0.898
    99  H   0.994        C   88 0.947
   100  H   0.993        C   91 0.962
   101  H   0.998        C   91 0.964
   102  H   0.996        C   93 0.962
   103  H   0.999        C   94 0.966
   104  H   0.993        C   95 0.965
   105  H   1.000        C   96 0.970
   106  H   0.996        C   97 0.966
   107  N   3.473        C   89 1.322    C  108 0.972    H  115 0.885    O   90 0.192
   108  C   3.965        N  107 0.972    C  111 0.966    H  116 0.952    C  109 0.938
   109  C   3.944        O  110 1.609    N  119 1.300    C  108 0.938
   110  O   1.947        C  109 1.609    N  119 0.191
   111  C   3.979        H  117 0.974    H  118 0.969    C  108 0.966    C  112 0.917
   112  C   3.938        O  114 1.507    O  113 1.481    C  111 0.917
   113  O   1.804        C  112 1.481    O  114 0.215
   114  O   1.871        C  112 1.507    O  113 0.215
   115  H   0.942        N  107 0.885
   116  H   0.999        C  108 0.952
   117  H   0.998        C  111 0.974
   118  H   0.998        C  111 0.969
   119  N   3.480        C  109 1.300    C  120 0.979    H  127 0.927    O  110 0.191
   120  C   3.961        C  123 0.992    N  119 0.979    C  121 0.936    H  128 0.934
   121  C   3.954        O  122 1.621    N  131 1.309    C  120 0.936
   122  O   1.935        C  121 1.621    N  131 0.191
   123  C   3.985        C  120 0.992    H  130 0.967    H  129 0.966    C  124 0.909
   124  C   3.934        O  126 1.502    O  125 1.501    C  123 0.909
   125  O   1.813        C  124 1.501    O  126 0.216
   126  O   1.792        C  124 1.502    O  125 0.216
   127  H   0.969        N  119 0.927
   128  H   0.995        C  120 0.934
   129  H   0.997        C  123 0.966
   130  H   0.999        C  123 0.967
   131  N   3.473        C  121 1.309    C  132 0.978    H  138 0.905    O  122 0.191
   132  C   3.950        N  131 0.978    C  133 0.977    H  139 0.941    C  135 0.926
   133  C   3.913        O  134 1.911    C  132 0.977    H  401 0.952
   134  O   2.059        C  133 1.911
   135  C   3.940        C  137 0.996    O  136 0.994    H  140 0.960    C  132 0.926
   136  O   1.960        C  135 0.994    H  141 0.878
   137  C   3.983        C  135 0.996    H  144 0.982    H  143 0.980    H  142 0.980
   138  H   0.962        N  131 0.905
   139  H   0.991        C  132 0.941
   140  H   0.997        C  135 0.960
   141  H   0.896        O  136 0.878
   142  H   0.992        C  137 0.980
   143  H   0.995        C  137 0.980
   144  H   0.995        C  137 0.982
   145  N   3.006        C  146 1.035    H  149 0.942    H  402 0.941
   146  C   3.982        N  145 1.035    H  150 0.957    C  147 0.952    H  151 0.949
   147  C   3.945        O  148 1.644    N  152 1.278    C  146 0.952
   148  O   1.943        C  147 1.644    N  152 0.185
   149  H   0.978        N  145 0.942
   150  H   0.998        C  146 0.957
   151  H   0.992        C  146 0.949
   152  N   3.446        C  147 1.278    C  153 0.985    H  161 0.912    O  148 0.185
   153  C   3.961        N  152 0.985    C  156 0.976    H  162 0.942    C  154 0.935
   154  C   3.934        O  155 1.616    N  174 1.297    C  153 0.935
   155  O   1.965        C  154 1.616    N  174 0.191
   156  C   3.980        C  157 1.000    C  153 0.976    H  163 0.971    H  164 0.969
   157  C   3.985        C  158 1.005    C  156 1.000    H  166 0.974    H  165 0.970
   158  C   3.985        C  159 1.013    C  157 1.005    H  167 0.968    H  168 0.961
   159  C   3.922        C  158 1.013    N  160 0.965    H  170 0.963    H  169 0.961
   160  N   3.665        C  159 0.965    H  173 0.901    H  171 0.894    H  172 0.883
   161  H   0.966        N  152 0.912
   162  H   0.991        C  153 0.942
   163  H   0.999        C  156 0.971
   164  H   0.995        C  156 0.969
   165  H   0.993        C  157 0.970
   166  H   0.996        C  157 0.974
   167  H   0.995        C  158 0.968
   168  H   0.992        C  158 0.961
   169  H   0.985        C  159 0.961
   170  H   0.984        C  159 0.963
   171  H   0.905        N  160 0.894
   172  H   0.906        N  160 0.883
   173  H   0.914        N  160 0.901
   174  N   3.468        C  154 1.297    C  175 0.991    H  186 0.911    O  155 0.191
   175  C   3.967        N  174 0.991    H  187 0.954    C  178 0.947    C  176 0.937
   176  C   3.955        O  177 1.635    N  195 1.303    C  175 0.937
   177  O   1.956        C  176 1.635    N  195 0.198
   178  C   3.986        C  179 1.011    H  189 0.970    H  188 0.963    C  175 0.947
   179  C   3.988        C  181 1.415    C  180 1.397    C  178 1.011
   180  C   3.989        C  182 1.465    C  179 1.397    H  190 0.966    C  183 0.105
   181  C   3.991        C  183 1.442    C  179 1.415    H  191 0.967    C  182 0.108
   182  C   3.987        C  180 1.465    C  184 1.362    H  192 0.966    C  181 0.108
   183  C   3.987        C  181 1.442    C  184 1.376    H  193 0.965    C  180 0.105
   184  C   3.938        C  183 1.376    C  182 1.362    O  185 1.068
   185  O   2.094        C  184 1.068    H  194 0.869
   186  H   0.945        N  174 0.911
   187  H   0.998        C  175 0.954
   188  H   0.992        C  178 0.963
   189  H   0.996        C  178 0.970
   190  H   0.996        C  180 0.966
   191  H   0.999        C  181 0.967
   192  H   0.995        C  182 0.966
   193  H   0.999        C  183 0.965
   194  H   0.889        O  185 0.869
   195  N   3.477        C  176 1.303    C  196 0.987    H  207 0.905    O  177 0.198
   196  C   3.958        N  195 0.987    H  208 0.946    C  199 0.946    C  197 0.940
   197  C   3.951        O  198 1.618    N  216 1.309    C  196 0.940
   198  O   1.992        C  197 1.618    N  216 0.198
   199  C   3.987        C  200 1.010    H  209 0.969    H  210 0.965    C  196 0.946
   200  C   3.985        C  201 1.406    C  202 1.404    C  199 1.010
   201  C   3.991        C  203 1.454    C  200 1.406    H  211 0.968    C  204 0.105
   202  C   3.987        C  204 1.457    C  200 1.404    H  212 0.966    C  203 0.107
   203  C   3.990        C  201 1.454    C  205 1.371    H  213 0.968    C  202 0.107
   204  C   3.983        C  202 1.457    C  205 1.369    H  214 0.962    C  201 0.105
   205  C   3.948        C  203 1.371    C  204 1.369    O  206 1.076
   206  O   2.075        C  205 1.076    H  215 0.842
   207  H   0.960        N  195 0.905
   208  H   0.990        C  196 0.946
   209  H   0.997        C  199 0.969
   210  H   0.993        C  199 0.965
   211  H   1.000        C  201 0.968
   212  H   0.996        C  202 0.966
   213  H   1.000        C  203 0.968
   214  H   0.994        C  204 0.962
   215  H   0.865        O  206 0.842
   216  N   3.479        C  197 1.309    C  217 0.980    H  221 0.918    O  198 0.198
   217  C   3.961        N  216 0.980    C  220 0.976    H  222 0.952    C  218 0.943
   218  C   3.953        O  219 1.671    N  226 1.264    C  217 0.943
   219  O   1.994        C  218 1.671    N  226 0.190
   220  C   3.984        H  225 0.983    H  223 0.981    H  224 0.980    C  217 0.976
   221  H   0.951        N  216 0.918
   222  H   0.993        C  217 0.952
   223  H   0.995        C  220 0.981
   224  H   0.995        C  220 0.980
   225  H   0.995        C  220 0.983
   226  N   3.432        C  218 1.264    C  227 0.969    H  235 0.922    O  219 0.190
   227  C   3.958        N  226 0.969    C  228 0.968    C  230 0.965    H  236 0.950
   228  C   3.889        O  229 1.885    C  227 0.968    H  403 0.954
   229  O   2.050        C  228 1.885
   230  C   3.979        C  231 1.003    H  238 0.972    C  227 0.965    H  237 0.958
   231  C   3.991        C  232 1.006    C  230 1.003    H  239 0.973    H  240 0.972
   232  C   3.983        C  233 1.008    C  231 1.006    H  242 0.968    H  241 0.967
   233  C   3.914        C  232 1.008    H  243 0.966    H  244 0.962    N  234 0.955
   234  N   3.664        C  233 0.955    H  245 0.900    H  246 0.896    H  247 0.892
   235  H   0.956        N  226 0.922
   236  H   0.991        C  227 0.950
   237  H   0.992        C  230 0.958
   238  H   0.996        C  230 0.972
   239  H   0.997        C  231 0.973
   240  H   0.996        C  231 0.972
   241  H   0.992        C  232 0.967
   242  H   0.991        C  232 0.968
   243  H   0.988        C  233 0.966
   244  H   0.989        C  233 0.962
   245  H   0.913        N  234 0.900
   246  H   0.911        N  234 0.896
   247  H   0.906        N  234 0.892
   248  N   3.005        C  249 1.029    H  260 0.955    H  404 0.941
   249  C   3.982        N  248 1.029    C  250 0.989    H  261 0.939    C  252 0.925
   250  C   3.897        O  251 1.881    C  249 0.989    H  405 0.956
   251  O   2.027        C  250 1.881
   252  C   3.993        C  253 1.012    H  263 0.972    H  262 0.968    C  249 0.925
   253  C   3.988        C  255 1.407    C  254 1.394    C  252 1.012
   254  C   3.991        C  256 1.460    C  253 1.394    H  264 0.964    C  257 0.103
   255  C   3.990        C  257 1.445    C  253 1.407    H  265 0.965    C  256 0.107
   256  C   3.987        C  254 1.460    C  258 1.361    H  266 0.967    C  255 0.107
   257  C   3.986        C  255 1.445    C  258 1.368    H  267 0.963    C  254 0.103
   258  C   3.941        C  257 1.368    C  256 1.361    O  259 1.080
   259  O   2.105        C  258 1.080    H  268 0.862
   260  H   0.974        N  248 0.955
   261  H   0.993        C  249 0.939
   262  H   0.997        C  252 0.968
   263  H   0.998        C  252 0.972
   264  H   0.998        C  254 0.964
   265  H   0.999        C  255 0.965
   266  H   0.996        C  256 0.967
   267  H   0.997        C  257 0.963
   268  H   0.883        O  259 0.862
   269  N   2.990        C  270 1.008    H  277 0.956    H  406 0.949
   270  C   3.985        N  269 1.008    C  271 0.980    H  278 0.963    C  273 0.959
   271  C   3.892        O  272 1.895    C  270 0.980    H  407 0.957
   272  O   2.034        C  271 1.895
   273  C   3.992        C  274 0.994    H  280 0.973    H  279 0.968    C  270 0.959
   274  C   3.995        C  275 1.009    C  276 1.007    C  273 0.994    H  281 0.966
   275  C   3.993        C  274 1.009    H  283 0.983    H  282 0.982    H  284 0.978
   276  C   3.995        C  274 1.007    H  287 0.987    H  285 0.986    H  286 0.983
   277  H   0.973        N  269 0.956
   278  H   0.996        C  270 0.963
   279  H   0.996        C  273 0.968
   280  H   0.997        C  273 0.973
   281  H   1.000        C  274 0.966
   282  H   0.999        C  275 0.982
   283  H   0.998        C  275 0.983
   284  H   0.995        C  275 0.978
   285  H   0.999        C  276 0.986
   286  H   0.996        C  276 0.983
   287  H   0.999        C  276 0.987
   288  N   2.995        C  289 1.018    H  408 0.960    H  293 0.947
   289  C   3.985        N  288 1.018    C  292 0.989    H  294 0.960    C  290 0.935
   290  C   3.929        O  291 1.626    N  298 1.281    C  289 0.935
   291  O   1.944        C  290 1.626    N  298 0.191
   292  C   3.987        C  289 0.989    H  295 0.985    H  297 0.984    H  296 0.979
   293  H   0.964        N  288 0.947
   294  H   0.999        C  289 0.960
   295  H   0.998        C  292 0.985
   296  H   0.993        C  292 0.979
   297  H   0.996        C  292 0.984
   298  N   3.459        C  290 1.281    C  299 1.007    H  305 0.892    O  291 0.191
   299  C   3.974        N  298 1.007    C  302 0.942    H  306 0.940    C  300 0.938
   300  C   3.931        O  301 1.599    N  312 1.303    C  299 0.938
   301  O   1.920        C  300 1.599    N  312 0.185
   302  C   3.960        O  303 1.009    C  304 1.002    H  307 0.964    C  299 0.942
   303  O   1.957        C  302 1.009    H  308 0.823
   304  C   3.986        C  302 1.002    H  310 0.986    H  311 0.981    H  309 0.980
   305  H   0.940        N  298 0.892
   306  H   0.997        C  299 0.940
   307  H   0.999        C  302 0.964
   308  H   0.894        O  303 0.823
   309  H   0.993        C  304 0.980
   310  H   0.998        C  304 0.986
   311  H   0.994        C  304 0.981
   312  N   3.462        C  300 1.303    C  313 0.975    H  317 0.914    O  301 0.185
   313  C   3.960        C  316 1.000    N  312 0.975    H  318 0.934    C  314 0.928
   314  C   3.943        O  315 1.649    N  322 1.280    C  313 0.928
   315  O   1.968        C  314 1.649    N  322 0.194
   316  C   3.982        C  313 1.000    H  320 0.980    H  321 0.978    H  319 0.977
   317  H   0.954        N  312 0.914
   318  H   0.998        C  313 0.934
   319  H   0.995        C  316 0.977
   320  H   0.995        C  316 0.980
   321  H   0.993        C  316 0.978
   322  N   3.470        C  314 1.280    C  323 0.996    H  329 0.920    O  315 0.194
   323  C   3.966        N  322 0.996    C  324 0.947    H  330 0.946    C  326 0.929
   324  C   3.940        O  325 1.612    N  336 1.291    C  323 0.947
   325  O   1.934        C  324 1.612    N  336 0.183
   326  C   3.941        C  328 0.998    O  327 0.994    H  331 0.965    C  323 0.929
   327  O   1.952        C  326 0.994    H  332 0.829
   328  C   3.980        C  326 0.998    H  334 0.983    H  333 0.981    H  335 0.973
   329  H   0.966        N  322 0.920
   330  H   0.992        C  323 0.946
   331  H   0.999        C  326 0.965
   332  H   0.907        O  327 0.829
   333  H   0.994        C  328 0.981
   334  H   0.995        C  328 0.983
   335  H   0.993        C  328 0.973
   336  N   3.457        C  324 1.291    C  337 0.973    H  345 0.917    O  325 0.183
   337  C   3.966        C  340 0.992    N  336 0.973    H  346 0.952    C  338 0.929
   338  C   3.953        O  339 1.594    N  351 1.338    C  337 0.929
   339  O   1.948        C  338 1.594    N  351 0.197
   340  C   3.995        C  341 1.000    C  337 0.992    H  348 0.975    H  347 0.962
   341  C   3.988        C  340 1.000    H  349 0.979    H  350 0.972    C  342 0.918
   342  C   3.934        O  343 1.528    O  344 1.462    C  341 0.918
   343  O   1.815        C  342 1.528    O  344 0.211
   344  O   1.832        C  342 1.462    O  343 0.211
   345  H   0.961        N  336 0.917
   346  H   0.999        C  337 0.952
   347  H   0.998        C  340 0.962
   348  H   0.998        C  340 0.975
   349  H   1.000        C  341 0.979
   350  H   1.000        C  341 0.972
   351  N   3.492        C  338 1.338    C  352 0.959    H  359 0.922    O  339 0.197
   352  C   3.950        C  355 0.989    N  351 0.959    H  360 0.941    C  353 0.931
   353  C   3.949        O  354 1.613    N  363 1.317    C  352 0.931
   354  O   1.922        C  353 1.613    N  363 0.195
   355  C   3.968        C  352 0.989    H  361 0.975    H  362 0.961    C  356 0.889
   356  C   3.943        O  357 1.517    O  358 1.512    C  355 0.889
   357  O   1.830        C  356 1.517    O  358 0.223
   358  O   1.808        C  356 1.512    O  357 0.223
   359  H   0.962        N  351 0.922
   360  H   0.995        C  352 0.941
   361  H   1.000        C  355 0.975
   362  H   0.999        C  355 0.961
   363  N   3.473        C  353 1.317    C  364 0.981    H  370 0.885    O  354 0.195
   364  C   3.959        C  365 0.984    N  363 0.981    H  371 0.953    C  367 0.925
   365  C   3.902        O  366 1.889    C  364 0.984    H  409 0.952
   366  O   2.046        C  365 1.889
   367  C   3.983        C  369 1.009    C  368 1.006    H  372 0.963    C  364 0.925
   368  C   3.994        C  367 1.006    H  374 0.986    H  373 0.979    H  375 0.978
   369  C   3.990        C  367 1.009    H  376 0.980    H  377 0.978    H  378 0.976
   370  H   0.946        N  363 0.885
   371  H   0.995        C  364 0.953
   372  H   0.995        C  367 0.963
   373  H   0.997        C  368 0.979
   374  H   0.999        C  368 0.986
   375  H   0.999        C  368 0.978
   376  H   0.996        C  369 0.980
   377  H   0.997        C  369 0.978
   378  H   0.996        C  369 0.976
   379  N   3.003        C  380 1.025    H  388 0.956    H  410 0.953
   380  C   3.989        N  379 1.025    C  381 0.970    H  389 0.959    C  383 0.956
   381  C   3.905        O  382 1.923    C  380 0.970    H  411 0.953
   382  O   2.060        C  381 1.923
   383  C   3.991        C  384 0.990    H  390 0.971    H  391 0.964    C  380 0.956
   384  C   3.993        C  383 0.990    C  385 0.971    H  392 0.967    H  393 0.956
   385  C   3.939        O  386 1.659    N  387 1.281    C  384 0.971
   386  O   1.953        C  385 1.659    N  387 0.194
   387  N   3.380        C  385 1.281    H  394 0.936    H  395 0.931    O  386 0.194
   388  H   0.973        N  379 0.956
   389  H   0.997        C  380 0.959
   390  H   0.996        C  383 0.971
   391  H   0.998        C  383 0.964
   392  H   0.995        C  384 0.967
   393  H   0.998        C  384 0.956
   394  H   0.961        N  387 0.936
   395  H   0.952        N  387 0.931
   396  H   0.968        N    1 0.941
   397  H   0.993        C    3 0.952
   398  H   0.971        N   22 0.957
   399  H   0.995        C   24 0.956
   400  H   0.965        N   34 0.954
   401  H   0.994        C  133 0.952
   402  H   0.966        N  145 0.941
   403  H   0.994        C  228 0.954
   404  H   0.965        N  248 0.941
   405  H   0.996        C  250 0.956
   406  H   0.965        N  269 0.949
   407  H   0.997        C  271 0.957
   408  H   0.971        N  288 0.960
   409  H   0.993        C  365 0.952
   410  H   0.968        N  379 0.953
   411  H   0.994        C  381 0.953
 
molecular dipole:
                 x           y           z       tot (Debye)
 q only:    -1154.011    -454.515    -659.455
   full:    -1157.325    -452.383    -657.504    3573.343
molecular quadrupole (traceless):
                xx          xy          yy          xz          yz          zz
 q only:  -336358.286 -262473.446  225734.726 -381150.681 -149180.431  110623.560
  q+dip:  -339743.835 -261950.599  227252.135 -381058.711 -148086.127  112491.700
   full:  -339748.774 -261949.669  227252.658 -381055.819 -148088.905  112496.117


           -------------------------------------------------
          | TOTAL ENERGY             -657.885913268042 Eh   |
          | GRADIENT NORM               0.639634408938 Eh/α |
          | HOMO-LUMO GAP               1.233905717592 eV   |
           -------------------------------------------------

------------------------------------------------------------------------
 * finished run on 2019/05/31 at 05:35:25.560     
------------------------------------------------------------------------
 total:
 * wall-time:     0 d,  0 h,  0 min,  7.143 sec
 *  cpu-time:     0 d,  0 h,  0 min, 13.545 sec
 * ratio c/w:     1.896 speedup
 SCF:
 * wall-time:     0 d,  0 h,  0 min,  6.499 sec
 *  cpu-time:     0 d,  0 h,  0 min, 12.623 sec
 * ratio c/w:     1.942 speedup

