      -----------------------------------------------------------      
     |                   =====================                   |     
     |                           x T B                           |     
     |                   =====================                   |     
     |                         S. Grimme                         |     
     |          Mulliken Center for Theoretical Chemistry        |     
     |                    University of Bonn                     |     
     |                Version 6.1 RC1 (SAW190329)                |     
      -----------------------------------------------------------      

   This program is distributed in the hope that it will be useful,
   but WITHOUT ANY WARRANTY; without even the implied warranty of
   MERCHANTABILITY or FITNESS FOR A PARTICULAR PURPOSE.
   
   FOR NON-COMMERCIAL, ACADEMIA USE ONLY.
   
   Cite this work as:
   S. Grimme, C. Bannwarth, P. Shushkov, J. Comput. Theory Chem., 2017,
   13, 1989-2009. DOI: 10.1021/acs.jctc.7b00118
   C. Bannwarth, S. Ehlert and S. Grimme., J. Comput. Theory Chem., 2019,
   just accepted. DOI: 10.1021/acs.jctc.8b01176
   
   for sTDA-xTB:
   S. Grimme and C. Bannwarth, J. Chem. Phys., 2016, 145, 054103.
   DOI: 10.1063/1.4959605
   
   in the mass-spec context:
   V. Asgeirsson, C. Bauer and S. Grimme, Chem. Sci., 2017, 8, 4879.
   DOI: 10.1039/c7sc00601b
   
   for metadynamics refer to:
   S. Grimme, ChemRxiv, Preprint. DOI: 10.26434/chemrxiv.7660532.v1
   
   with help from (in alphabetical order)
   C. Bannwarth, F. Bohle, G. Brandenburg, E. Caldeweyher, M. Checinski,
   S. Dohm, S. Ehlert, S. Ehrlich, F. März, H. Neugebauer, J. Pisarek,
   P. Pracht, P. Shushkov, and S. Spicher.
   
 * started run on 2019/05/31 at 02:07:03.867     

           -------------------------------------------------
          |                Calculation Setup                |
           -------------------------------------------------

          program call               : /home/lum/qr/xtb-190329/bin/xtb xtb_tmp.xyz --chrg 1 --grad --gfn 2 --etemp 500 --acc 0.1 --gbsa h2o --parallel 4
          hostname                   : cu39
          coordinate file            : xtb_tmp.xyz
          omp threads                :                     4
          number of atoms            :                   439
          number of electrons        :                  1190
          charge                     :                     1
          spin                       :                   0.0
          first test random number   :      0.11006451880349


molecular fragmentation (1/2 indicates fragments):
111111111111111111111111111111111111111111111111111111111111111122222222
222222222222222222222222222222222222222222222222222222222222222222222222
222222222222222222222222222222222222222222222222222222222222222222222222
222222222222222222222222222222222222222222222222222222222222222222222222
222222222222222222222222222222222222222222222222222222222222222222222222
222222222222222222222222222222222222222222222222222222222222222222212222
2222222
# atoms in fragment 1/2:    65   374
 fragment masses (1/2) :      453.51     2573.07
CMA distance (Bohr)    :  13.739
constraining FC (au)   :  0.0500

########################################################################
# WARNING! Please study the warnings concerning your input carefully
#  - XTBPATH is not set, using XTBHOME instead
#  - Process number higher than OMP_NUM_THREADS, I hope you know what you are doing.
########################################################################

           ------------------------------------------------- 
          |                 G F N 2 - x T B                 |
          | Geometry, Frequencies, Noncovalent interactions |
          |            JCTC 2018 parametrisation            |
           ------------------------------------------------- 
 
             k(s)              :                1.8500
             k(p)              :                2.2300
             k(d)              :                2.2300
             k(f)              :                2.0000
             kEN (H0ij)        :               -2.0000
             D4 a1             :                0.5200
             D4 a2             :                5.0000
             D4 s6             :                1.0000
             D4 s8             :                2.7000
             D4 s9             :                5.0000
             alphaj            :                2.0000

  Z AO/shell   Hii/eV     exponent
  1     Wed Apr 25 08:07:45 CEST 2018   EN: 2.200 GM2: 0.406  GM3: 0.0800  RAES: 1.40
     1s    -10.707211    1.230000
  6     Wed Apr 25 08:07:45 CEST 2018   EN: 2.550 GM2: 0.538  GM3: 0.1500  RAES: 3.00
     2s    -13.970922    2.096432
     2p    -10.063292    1.800000
  7     Wed Apr 25 08:07:45 CEST 2018   EN: 3.040 GM2: 0.461  GM3:-0.0640  RAES: 1.90
     2s    -16.686243    2.339881
     2p    -12.523956    2.014332
  8     Wed Apr 25 08:07:45 CEST 2018   EN: 3.440 GM2: 0.452  GM3:-0.0517  RAES: 1.80
     2s    -20.229985    2.439742
     2p    -15.503117    2.137023

 Solvent             : h2o
 Using internal parameter file: .param_gbsa2_h2o
 Gsolv ref. state (COSMO-RS): gsolv [1 M gas/solution]
 temperature (mdtemp)       :    298.150000000000     
 dielectric constant        :    80.2000000000000     
 rho                        :    1.00000000000000     
 mass                       :    18.0000000000000     
 surface tension            :    15.5689454083859     
 probe radius               :   0.975313790000000     
 vdW radii scaling          :    1.00000000000000     
 Gshift (Eh)                :   1.857443126794793E-003
 c1                         :    1.55243817000000     
 soset                      :   0.130326360000000     
 HB correction              :  T
 Number of grid points      :          230

            Z     q(EN)     CN     RAES       Cart. coordinates
     1  N   5.0   -0.69    3.98    2.82    21.87759    13.36702    43.43932
     2  C   4.0    0.08    3.98    3.59    21.23663    16.05142    43.84977
     3  C   4.0    0.30    3.01    3.02    21.37649    16.61914    46.70319
     4  O   6.0   -0.43    1.00    1.80    21.57905    14.90243    48.23341
     5  C   4.0   -0.01    3.98    3.58    18.53444    16.53630    42.89201
     6  O   6.0   -0.44    1.99    1.83    16.96896    14.63219    43.89873
     7  H   1.0    0.27    1.00    1.43    20.72869    12.56031    42.10145
     8  H   1.0    0.26    1.00    1.43    23.77348    13.11119    42.99212
     9  H   1.0    0.33    0.99    1.43    21.54037    12.31070    45.10150
    10  H   1.0    0.13    0.99    1.43    22.55651    17.29113    42.85624
    11  H   1.0    0.12    0.99    1.43    17.94243    18.42656    43.47816
    12  H   1.0    0.10    0.99    1.43    18.52461    16.45237    40.81623
    13  H   1.0    0.26    0.99    1.43    15.22254    15.13266    43.82558
    14  N   5.0   -0.48    3.01    1.93    21.25903    19.06774    47.24668
    15  C   4.0    0.08    3.99    3.60    20.91188    20.06005    49.76739
    16  C   4.0    0.27    3.01    3.02    18.13286    20.82760    50.14617
    17  O   6.0   -0.43    1.00    1.80    16.91279    21.85143    48.47608
    18  C   4.0   -0.12    3.99    3.61    22.47931    22.48009    50.15144
    19  C   4.0   -0.04    3.02    3.02    25.27553    22.05559    50.43190
    20  C   4.0   -0.10    3.03    3.02    26.19955    20.70012    52.48296
    21  C   4.0   -0.10    3.03    3.02    26.99990    23.10787    48.75508
    22  C   4.0   -0.10    3.03    3.02    28.76429    20.39372    52.85537
    23  C   4.0   -0.09    3.03    3.02    29.57279    22.86080    49.13698
    24  C   4.0    0.09    3.03    3.02    30.48506    21.49482    51.19701
    25  O   6.0   -0.53    1.99    1.82    33.01812    21.26827    51.52853
    26  H   1.0    0.28    1.00    1.43    21.21637    20.32493    45.78691
    27  H   1.0    0.16    0.99    1.43    21.43626    18.60165    51.13209
    28  H   1.0    0.11    0.99    1.43    22.12444    23.73104    48.55233
    29  H   1.0    0.10    0.99    1.43    21.76739    23.40216    51.86010
    30  H   1.0    0.15    1.00    1.43    24.89487    19.87249    53.81209
    31  H   1.0    0.15    1.00    1.43    26.35262    24.13348    47.11576
    32  H   1.0    0.14    1.00    1.43    29.44009    19.32801    54.45940
    33  H   1.0    0.13    1.00    1.43    30.87228    23.73764    47.83191
    34  H   1.0    0.31    0.99    1.43    33.38544    20.03657    52.90988
    35  N   5.0   -0.48    3.01    1.93    17.23914    20.41642    52.48303
    36  C   4.0    0.08    3.99    3.60    14.74589    21.21199    53.27389
    37  C   4.0    0.27    3.01    3.02    14.97425    23.55442    54.97016
    38  O   6.0   -0.44    1.00    1.80    16.13248    23.45052    56.98169
    39  C   4.0   -0.00    3.98    3.59    13.46493    19.09838    54.81205
    40  O   6.0   -0.46    1.99    1.82    14.92494    18.37746    56.90327
    41  H   1.0    0.28    1.00    1.43    18.28563    19.45087    53.75694
    42  H   1.0    0.13    0.99    1.43    13.66418    21.63791    51.56658
    43  H   1.0    0.12    0.99    1.43    11.59372    19.77379    55.41430
    44  H   1.0    0.14    0.99    1.43    13.22950    17.42024    53.63231
    45  H   1.0    0.30    0.99    1.43    15.48284    19.93054    57.71945
    46  N   5.0   -0.48    3.01    1.93    13.87375    25.65283    54.10772
    47  C   4.0    0.07    3.99    3.61    13.73006    27.95513    55.59290
    48  C   4.0    0.07    3.00    3.02    11.53961    27.73904    57.48155
    49  O   6.0   -0.38    1.00    1.80     9.45448    26.95592    56.84864
    50  C   4.0   -0.08    3.98    3.59    13.31959    30.25709    53.86677
    51  C   4.0   -0.16    3.98    3.59    15.63850    30.64664    52.17348
    52  C   4.0   -0.22    3.98    3.59    12.76246    32.60277    55.45491
    53  C   4.0   -0.24    3.98    3.58    15.08342    32.32153    49.89785
    54  H   1.0    0.24    1.00    1.43    12.77860    25.57757    52.54790
    55  H   1.0    0.12    0.99    1.43    15.50385    28.14981    56.63266
    56  H   1.0    0.13    0.99    1.43    11.66852    29.85842    52.68303
    57  H   1.0    0.10    0.99    1.43    17.15072    31.48288    53.29949
    58  H   1.0    0.12    0.99    1.43    16.30633    28.81047    51.50791
    59  H   1.0    0.10    0.99    1.43    12.69728    34.27342    54.26430
    60  H   1.0    0.12    0.99    1.43    10.94935    32.42579    56.40732
    61  H   1.0    0.10    0.99    1.43    14.21463    32.86534    56.88303
    62  H   1.0    0.09    0.99    1.43    16.76396    32.49153    48.73185
    63  H   1.0    0.11    0.99    1.43    13.57574    31.51254    48.76231
    64  H   1.0    0.10    0.99    1.43    14.51466    34.20624    50.47855
    65  N   5.0   -0.72    3.00    1.93    27.91868    40.61911    53.54981
    66  C   4.0    0.08    3.98    3.59    29.99595    38.88312    53.20375
    67  C   4.0    0.27    3.01    3.02    30.23767    37.90913    50.48339
    68  O   6.0   -0.48    1.00    1.80    32.25123    37.04184    49.73224
    69  C   4.0   -0.13    3.99    3.60    29.69817    36.62336    54.99289
    70  C   4.0   -0.04    3.03    3.02    30.35622    37.33617    57.66281
    71  C   4.0   -0.10    3.03    3.02    32.85590    37.61735    58.41356
    72  C   4.0   -0.09    3.03    3.02    28.45813    37.76863    59.41863
    73  C   4.0   -0.09    3.03    3.02    33.44027    38.26786    60.87704
    74  C   4.0   -0.09    3.03    3.02    29.03499    38.43586    61.87998
    75  C   4.0   -0.09    3.03    3.02    31.53252    38.67458    62.62103
    76  H   1.0    0.25    1.00    1.43    26.42664    40.00703    54.58146
    77  H   1.0    0.12    0.99    1.43    31.76777    39.88048    53.62651
    78  H   1.0    0.10    0.99    1.43    27.74829    35.96226    54.88736
    79  H   1.0    0.10    0.99    1.43    30.93006    35.10852    54.33284
    80  H   1.0    0.10    1.00    1.43    34.36543    37.33726    57.06906
    81  H   1.0    0.11    1.00    1.43    26.51758    37.57504    58.82871
    82  H   1.0    0.12    1.00    1.43    35.39276    38.47147    61.42838
    83  H   1.0    0.12    1.00    1.43    27.53994    38.77633    63.22342
    84  H   1.0    0.12    1.00    1.43    31.98855    39.17589    64.54583
    85  N   5.0   -0.49    3.01    1.93    28.14287    37.99945    49.09130
    86  C   4.0    0.07    3.99    3.60    27.95428    37.07129    46.53702
    87  C   4.0    0.07    3.00    3.02    28.06585    39.19979    44.57364
    88  O   6.0   -0.42    1.00    1.80    27.26139    38.91461    42.42923
    89  C   4.0   -0.12    3.99    3.60    25.48687    35.58693    46.22693
    90  C   4.0   -0.10    3.98    3.58    25.10761    33.50661    48.21065
    91  C   4.0   -0.24    3.98    3.59    22.67777    32.05309    47.64779
    92  C   4.0   -0.22    3.98    3.59    27.34313    31.68714    48.30439
    93  H   1.0    0.25    1.00    1.43    26.54722    38.84111    49.74658
    94  H   1.0    0.16    0.99    1.43    29.58921    35.85098    46.16024
    95  H   1.0    0.11    0.99    1.43    23.92532    36.93128    46.35395
    96  H   1.0    0.12    0.99    1.43    25.48947    34.78296    44.33103
    97  H   1.0    0.11    0.99    1.43    24.91881    34.40657    50.06617
    98  H   1.0    0.09    0.99    1.43    22.26088    30.74216    49.17453
    99  H   1.0    0.09    0.99    1.43    21.10055    33.35061    47.43640
   100  H   1.0    0.11    0.99    1.43    22.88179    30.97218    45.91277
   101  H   1.0    0.09    0.99    1.43    26.92940    30.08942    49.52862
   102  H   1.0    0.12    0.99    1.43    27.76244    30.95136    46.43255
   103  H   1.0    0.12    0.99    1.43    29.02672    32.62421    49.01909
   104  N   5.0   -0.67    3.00    1.93    42.49266    43.41667    44.74118
   105  C   4.0    0.07    3.98    3.59    44.57674    41.76188    45.39892
   106  C   4.0    0.07    3.00    3.02    46.89263    42.24747    43.73833
   107  O   6.0   -0.36    1.00    1.80    46.71646    42.49410    41.44848
   108  C   4.0   -0.13    3.99    3.60    43.69169    39.00363    45.02533
   109  C   4.0   -0.04    3.12    3.03    41.53236    38.45007    46.75449
   110  C   4.0    0.01    3.22    3.04    39.00711    38.52228    46.20092
   111  C   4.0    0.01    3.18    3.03    41.71798    37.83732    49.37632
   112  N   5.0   -0.48    3.10    1.94    37.61431    37.96564    48.30164
   113  C   4.0    0.12    3.23    3.04    39.21545    37.51626    50.26482
   114  C   4.0   -0.11    3.02    3.02    43.72741    37.51730    51.04965
   115  C   4.0   -0.10    3.02    3.02    38.71555    36.85547    52.75545
   116  C   4.0   -0.11    3.03    3.02    43.22007    36.80748    53.49858
   117  C   4.0   -0.12    3.03    3.02    40.73793    36.48030    54.34975
   118  H   1.0    0.28    1.00    1.43    41.70881    43.13444    43.00622
   119  H   1.0    0.11    0.99    1.43    45.01922    42.10166    47.38661
   120  H   1.0    0.13    0.99    1.43    43.10246    38.78652    43.06066
   121  H   1.0    0.10    0.99    1.43    45.26438    37.74199    45.44379
   122  H   1.0    0.11    1.00    1.43    38.10681    38.93101    44.42812
   123  H   1.0    0.28    1.00    1.43    35.71564    37.81851    48.40479
   124  H   1.0    0.11    1.00    1.43    45.64295    37.85157    50.45349
   125  H   1.0    0.11    1.00    1.43    36.79051    36.65088    53.38744
   126  H   1.0    0.11    0.99    1.43    44.77254    36.49971    54.79144
   127  H   1.0    0.11    0.99    1.43    40.41671    35.96375    56.29891
   128  N   5.0   -0.50    3.03    1.93    38.14902    41.02639    36.39529
   129  C   4.0    0.06    4.01    3.64    36.67984    38.99169    37.52441
   130  C   4.0    0.27    3.01    3.02    38.44404    36.77122    38.04753
   131  O   6.0   -0.38    1.00    1.80    40.34364    36.40462    36.80513
   132  C   4.0   -0.12    4.01    3.63    34.73714    38.26083    35.49431
   133  C   4.0   -0.14    4.01    3.64    34.62247    40.59566    33.79951
   134  C   4.0   -0.02    4.01    3.64    37.34635    41.54513    33.82449
   135  H   1.0    0.10    0.99    1.43    35.78108    39.61776    39.28232
   136  H   1.0    0.13    0.99    1.43    35.41718    36.63179    34.42657
   137  H   1.0    0.11    0.99    1.43    32.92302    37.77909    36.32747
   138  H   1.0    0.11    0.99    1.43    33.96342    40.15820    31.90539
   139  H   1.0    0.11    0.99    1.43    33.38185    42.01526    34.62726
   140  H   1.0    0.14    0.99    1.43    38.49206    40.46773    32.48419
   141  H   1.0    0.11    0.99    1.43    37.46112    43.55992    33.42196
   142  N   5.0   -0.52    3.01    1.93    37.71023    35.21993    39.92267
   143  C   4.0    0.10    3.99    3.61    38.91834    32.76897    40.20633
   144  C   4.0    0.28    3.02    3.02    36.88291    30.89943    41.04653
   145  O   6.0   -0.42    1.01    1.80    35.82148    29.62326    39.41530
   146  C   4.0   -0.01    3.97    3.58    41.34373    32.95218    41.80038
   147  O   6.0   -0.49    1.99    1.82    41.83767    30.58412    42.91906
   148  H   1.0    0.25    1.00    1.43    36.07442    35.53201    40.85042
   149  H   1.0    0.15    0.99    1.43    39.44939    32.13981    38.30137
   150  H   1.0    0.13    0.99    1.43    42.87246    33.49832    40.51144
   151  H   1.0    0.11    0.99    1.43    41.12003    34.44456    43.22019
   152  H   1.0    0.24    0.99    1.43    43.28009    30.74839    44.02570
   153  N   5.0   -0.32    3.04    1.93    36.20026    30.72883    43.46238
   154  C   4.0    0.08    4.05    3.70    34.04996    29.11479    44.04514
   155  C   4.0    0.27    3.01    3.02    31.70419    30.37171    42.92003
   156  O   6.0   -0.43    1.00    1.80    31.45523    32.67467    42.90388
   157  C   4.0   -0.14    4.01    3.63    33.91661    29.00453    46.94288
   158  C   4.0   -0.14    4.01    3.64    36.32200    30.34303    47.81572
   159  C   4.0   -0.03    4.03    3.67    36.83758    32.19967    45.67824
   160  H   1.0    0.15    0.99    1.43    34.31861    27.26318    43.17553
   161  H   1.0    0.11    0.99    1.43    32.25482    30.01538    47.61071
   162  H   1.0    0.11    0.99    1.43    33.81207    27.06595    47.60753
   163  H   1.0    0.11    0.99    1.43    36.08815    31.28730    49.62565
   164  H   1.0    0.11    0.99    1.43    37.88064    29.00580    47.93049
   165  H   1.0    0.14    0.99    1.43    35.54427    33.81068    45.80692
   166  H   1.0    0.12    0.99    1.43    38.77580    32.84774    45.66118
   167  N   5.0   -0.49    3.01    1.93    29.99039    28.75170    42.03764
   168  C   4.0    0.06    3.99    3.60    27.56858    29.50078    41.03332
   169  C   4.0    0.25    3.02    3.02    25.69331    27.45884    41.82064
   170  O   6.0   -0.42    1.00    1.80    26.42540    25.40898    42.60255
   171  C   4.0   -0.13    3.98    3.59    27.59661    29.75764    38.12856
   172  C   4.0   -0.10    3.98    3.59    29.59773    31.67164    37.27933
   173  C   4.0    0.27    3.00    3.02    29.41713    32.09464    34.44613
   174  O   6.0   -0.40    1.00    1.80    30.21411    30.58296    32.90050
   175  N   5.0   -0.66    3.00    1.93    28.22503    34.23152    33.75805
   176  H   1.0    0.30    1.00    1.43    30.32534    26.85371    42.18129
   177  H   1.0    0.12    0.99    1.43    27.07629    31.33781    41.85835
   178  H   1.0    0.13    0.99    1.43    28.00091    27.93283    37.25730
   179  H   1.0    0.11    0.99    1.43    25.74140    30.39054    37.49127
   180  H   1.0    0.13    0.99    1.43    29.35214    33.44728    38.29680
   181  H   1.0    0.16    0.99    1.43    31.47797    30.93174    37.70100
   182  H   1.0    0.26    1.00    1.43    27.66684    35.52515    35.03269
   183  H   1.0    0.29    1.00    1.43    28.08763    34.65591    31.90718
   184  N   5.0   -0.52    3.01    1.93    23.22957    27.93757    41.52045
   185  C   4.0    0.08    4.00    3.62    21.39561    26.00778    42.21834
   186  C   4.0    0.29    3.01    3.02    22.27113    23.42361    41.24427
   187  O   6.0   -0.48    1.00    1.80    22.04583    21.50035    42.50249
   188  C   4.0   -0.10    3.98    3.58    18.74750    26.66744    41.20556
   189  C   4.0   -0.22    3.98    3.59    16.95013    24.43287    41.54871
   190  C   4.0   -0.23    3.98    3.59    17.69424    28.96938    42.59193
   191  H   1.0    0.22    1.00    1.43    22.59260    29.63225    40.92081
   192  H   1.0    0.12    0.99    1.43    21.30366    25.85560    44.28747
   193  H   1.0    0.11    0.99    1.43    18.91210    27.09477    39.18770
   194  H   1.0    0.10    0.99    1.43    15.06255    24.95961    40.93607
   195  H   1.0    0.11    0.99    1.43    17.56023    22.81025    40.44838
   196  H   1.0    0.13    0.99    1.43    16.86346    23.87652    43.52663
   197  H   1.0    0.10    0.99    1.43    15.85485    29.45616    41.82028
   198  H   1.0    0.10    0.99    1.43    17.47139    28.53733    44.58726
   199  H   1.0    0.10    0.99    1.43    18.91741    30.60825    42.41569
   200  N   5.0   -0.47    3.01    1.93    23.13163    23.40483    38.86448
   201  C   4.0    0.10    3.99    3.60    23.82155    21.15687    37.49635
   202  C   4.0    0.27    3.01    3.02    26.63846    20.42333    37.56436
   203  O   6.0   -0.44    1.00    1.80    27.31924    18.51576    36.45208
   204  C   4.0    0.04    3.98    3.59    23.11488    21.57575    34.69234
   205  O   6.0   -0.49    1.99    1.82    24.21404    23.92653    34.02606
   206  C   4.0   -0.22    3.98    3.58    20.25504    21.57161    34.30438
   207  H   1.0    0.27    1.00    1.43    23.32783    25.01372    37.85163
   208  H   1.0    0.12    0.99    1.43    22.75667    19.55468    38.25605
   209  H   1.0    0.13    0.99    1.43    23.97930    20.04501    33.58907
   210  H   1.0    0.26    0.99    1.43    23.83207    24.29185    32.28225
   211  H   1.0    0.11    0.99    1.43    19.80626    21.96293    32.33797
   212  H   1.0    0.10    0.99    1.43    19.48076    19.73154    34.77512
   213  H   1.0    0.11    0.99    1.43    19.37072    22.99939    35.48714
   214  N   5.0   -0.48    3.01    1.93    28.20782    21.95795    38.80872
   215  C   4.0    0.07    4.00    3.61    30.93297    21.66370    38.70125
   216  C   4.0    0.27    3.01    3.02    31.94652    21.74503    41.40661
   217  O   6.0   -0.45    1.00    1.80    31.79012    23.65544    42.70700
   218  C   4.0   -0.08    3.98    3.58    32.18420    23.77680    37.12406
   219  C   4.0   -0.21    3.98    3.59    35.00874    23.24736    36.87374
   220  C   4.0   -0.19    3.98    3.59    30.96346    24.00231    34.52249
   221  H   1.0    0.31    1.00    1.43    27.53887    23.34089    39.95432
   222  H   1.0    0.13    0.99    1.43    31.29817    19.83336    37.81122
   223  H   1.0    0.14    0.99    1.43    31.95657    25.56431    38.14130
   224  H   1.0    0.13    0.99    1.43    35.92000    24.83369    35.94048
   225  H   1.0    0.15    0.99    1.43    35.88733    23.01419    38.71843
   226  H   1.0    0.11    0.99    1.43    35.33322    21.55213    35.75765
   227  H   1.0    0.13    0.99    1.43    31.68966    25.65783    33.54606
   228  H   1.0    0.12    0.99    1.43    31.37324    22.33606    33.39102
   229  H   1.0    0.15    0.99    1.43    28.92155    24.19321    34.66141
   230  N   5.0   -0.49    3.01    1.93    32.90501    19.58385    42.28763
   231  C   4.0    0.07    3.99    3.61    33.86989    19.39395    44.84881
   232  C   4.0    0.29    3.01    3.02    36.35186    20.87424    45.08531
   233  O   6.0   -0.38    1.00    1.80    37.81521    21.10237    43.30826
   234  C   4.0   -0.15    3.98    3.59    34.27766    16.60976    45.53719
   235  C   4.0   -0.14    3.98    3.59    34.63595    16.26185    48.38018
   236  C   4.0   -0.03    3.99    3.60    34.47514    13.49283    49.15858
   237  N   5.0   -0.47    3.02    1.93    34.70031    13.32121    51.88936
   238  C   4.0    0.37    3.01    3.02    34.68824    11.16850    53.16163
   239  N   5.0   -0.64    3.01    1.93    34.70283     8.94643    51.93513
   240  N   5.0   -0.64    3.02    1.93    34.96419    11.21123    55.66034
   241  H   1.0    0.23    1.00    1.43    33.19547    18.11222    41.11285
   242  H   1.0    0.13    0.99    1.43    32.45705    20.23520    46.10061
   243  H   1.0    0.12    0.99    1.43    32.60190    15.57237    44.93408
   244  H   1.0    0.13    0.99    1.43    35.91435    15.89545    44.51032
   245  H   1.0    0.15    0.99    1.43    36.45267    17.03637    48.95604
   246  H   1.0    0.13    0.99    1.43    33.14422    17.27906    49.36344
   247  H   1.0    0.12    0.99    1.43    32.65205    12.72617    48.54478
   248  H   1.0    0.14    0.99    1.43    36.00306    12.42373    48.27277
   249  H   1.0    0.30    1.00    1.43    34.50934    14.96635    52.92856
   250  H   1.0    0.26    1.00    1.43    34.17487     8.88655    50.10936
   251  H   1.0    0.27    1.00    1.43    34.53757     7.33010    52.92772
   252  H   1.0    0.33    1.00    1.43    34.84180    12.88239    56.66899
   253  H   1.0    0.27    1.00    1.43    34.80765     9.59953    56.65319
   254  N   5.0   -0.50    3.01    1.93    36.84660    21.80062    47.39266
   255  C   4.0    0.07    4.00    3.61    39.32038    22.86983    47.90316
   256  C   4.0    0.30    3.02    3.02    41.28576    20.93022    47.00273
   257  O   6.0   -0.44    1.00    1.80    40.92710    18.67121    47.43845
   258  C   4.0   -0.13    3.99    3.60    39.59468    23.31799    50.76253
   259  C   4.0   -0.05    3.03    3.02    41.70027    25.12966    51.36929
   260  C   4.0   -0.10    3.03    3.02    44.20604    24.33956    51.34073
   261  C   4.0   -0.10    3.03    3.02    41.16824    27.63791    51.92602
   262  C   4.0   -0.11    3.03    3.02    46.13750    26.03237    51.83258
   263  C   4.0   -0.11    3.03    3.02    43.09569    29.32360    52.46321
   264  C   4.0   -0.11    3.03    3.02    45.58617    28.52385    52.41566
   265  H   1.0    0.26    1.00    1.43    35.59039    21.66041    48.83376
   266  H   1.0    0.12    0.99    1.43    39.52887    24.63829    46.85662
   267  H   1.0    0.11    0.99    1.43    37.82269    24.10827    51.45832
   268  H   1.0    0.12    0.99    1.43    39.94563    21.49548    51.66058
   269  H   1.0    0.16    1.00    1.43    44.66824    22.40462    50.90079
   270  H   1.0    0.11    1.00    1.43    39.23614    28.27444    51.98769
   271  H   1.0    0.11    0.99    1.43    48.07810    25.40138    51.73779
   272  H   1.0    0.12    1.00    1.43    42.64798    31.26354    52.91051
   273  H   1.0    0.11    1.00    1.43    47.10880    29.80704    52.85150
   274  N   5.0   -0.32    3.03    1.93    43.37256    21.78077    45.88392
   275  C   4.0    0.06    4.02    3.66    45.46786    20.10641    45.24968
   276  C   4.0    0.08    3.00    3.02    46.06152    18.21520    47.33622
   277  O   6.0   -0.43    1.00    1.80    45.69743    18.64968    49.57004
   278  C   4.0   -0.14    4.01    3.64    47.68272    21.93429    44.90790
   279  C   4.0   -0.14    4.01    3.64    46.40690    24.21766    43.69517
   280  C   4.0   -0.05    4.01    3.65    43.87702    24.36948    45.08642
   281  H   1.0    0.11    0.99    1.43    45.07360    19.09145    43.48451
   282  H   1.0    0.12    0.99    1.43    48.43826    22.42675    46.76677
   283  H   1.0    0.10    0.99    1.43    49.21135    21.12907    43.78765
   284  H   1.0    0.10    0.99    1.43    47.52042    25.92730    43.92229
   285  H   1.0    0.12    0.99    1.43    46.11490    23.86595    41.68776
   286  H   1.0    0.12    0.99    1.43    44.04134    25.59440    46.74187
   287  H   1.0    0.13    0.99    1.43    42.37259    25.04377    43.84400
   288  N   5.0   -0.72    3.00    1.93    46.08490    21.23224    56.44138
   289  C   4.0    0.06    3.98    3.58    43.53873    20.20561    56.30864
   290  C   4.0    0.07    3.00    3.02    42.37098    20.07145    58.94764
   291  O   6.0   -0.47    1.00    1.80    40.25187    20.87617    59.39591
   292  C   4.0   -0.13    3.98    3.59    43.60830    17.57417    55.11377
   293  C   4.0   -0.14    3.98    3.59    41.01999    16.28733    55.10715
   294  C   4.0   -0.03    3.99    3.60    41.10157    13.80523    53.64553
   295  N   5.0   -0.46    3.02    1.93    41.08611    14.29317    50.94318
   296  C   4.0    0.38    3.01    3.02    41.15686    12.53408    49.16545
   297  N   5.0   -0.64    3.01    1.93    41.19729    10.08216    49.75590
   298  N   5.0   -0.65    3.02    1.93    40.93063    13.24610    46.75755
   299  H   1.0    0.27    1.00    1.43    47.32352    20.65714    55.10968
   300  H   1.0    0.12    0.99    1.43    42.34495    21.48145    55.19029
   301  H   1.0    0.15    0.99    1.43    44.30707    17.78040    53.18665
   302  H   1.0    0.12    0.99    1.43    44.95590    16.40431    56.14649
   303  H   1.0    0.13    0.99    1.43    40.41943    15.90720    57.04166
   304  H   1.0    0.13    0.99    1.43    39.60137    17.52779    54.27122
   305  H   1.0    0.11    0.99    1.43    42.82704    12.78763    54.16620
   306  H   1.0    0.15    0.99    1.43    39.44318    12.67668    54.13793
   307  H   1.0    0.28    1.00    1.43    41.10081    16.11730    50.34826
   308  H   1.0    0.27    1.00    1.43    41.56335     9.52813    51.53991
   309  H   1.0    0.27    1.00    1.43    41.39367     8.78178    48.37592
   310  H   1.0    0.31    1.00    1.43    40.96102    15.12085    46.36329
   311  H   1.0    0.26    1.00    1.43    41.26432    12.02691    45.33512
   312  N   5.0   -0.69    3.00    1.93    41.39608    26.39247    62.49446
   313  C   4.0    0.08    3.99    3.60    39.42440    27.68534    61.09860
   314  C   4.0    0.30    3.02    3.02    36.81245    26.66772    61.79382
   315  O   6.0   -0.39    1.00    1.80    35.10461    28.10694    62.46868
   316  C   4.0   -0.13    3.99    3.61    39.83446    27.33074    58.25247
   317  C   4.0   -0.03    3.03    3.02    37.52264    28.11628    56.79920
   318  C   4.0   -0.09    3.03    3.02    36.91166    30.64945    56.51152
   319  C   4.0   -0.09    3.04    3.02    35.94824    26.30939    55.73360
   320  C   4.0   -0.10    3.03    3.02    34.77921    31.34309    55.17150
   321  C   4.0   -0.10    3.03    3.02    33.79662    27.00033    54.41900
   322  C   4.0   -0.11    3.03    3.02    33.20917    29.53058    54.12912
   323  H   1.0    0.27    1.00    1.43    42.77606    25.53062    61.46953
   324  H   1.0    0.11    0.99    1.43    39.42029    29.70051    61.59590
   325  H   1.0    0.10    0.99    1.43    41.46870    28.43751    57.65530
   326  H   1.0    0.13    0.99    1.43    40.23353    25.33989    57.90230
   327  H   1.0    0.11    1.00    1.43    38.12325    32.08087    57.31129
   328  H   1.0    0.12    1.00    1.43    36.44799    24.34118    55.91814
   329  H   1.0    0.11    1.00    1.43    34.35387    33.31785    54.92461
   330  H   1.0    0.13    1.00    1.43    32.58948    25.57433    53.60845
   331  H   1.0    0.10    1.00    1.43    31.55097    30.08591    53.08123
   332  N   5.0   -0.49    3.01    1.93    36.47803    24.19706    61.56010
   333  C   4.0    0.07    4.00    3.62    34.04302    23.07026    62.12637
   334  C   4.0    0.10    3.00    3.02    33.35243    23.58897    64.88409
   335  O   6.0   -0.42    1.00    1.80    31.22520    24.28700    65.48411
   336  C   4.0   -0.13    3.98    3.59    34.03031    20.27360    61.37900
   337  C   4.0   -0.10    3.98    3.59    33.66538    20.10597    58.52498
   338  C   4.0    0.31    2.99    3.02    34.09518    17.54098    57.24215
   339  O   6.0   -0.44    1.00    1.80    34.50945    15.59959    58.48606
   340  O   6.0   -0.53    1.00    1.80    33.98532    17.59184    54.86163
   341  H   1.0    0.29    1.00    1.43    37.89509    23.03583    60.97828
   342  H   1.0    0.15    0.99    1.43    32.57172    24.03060    61.01769
   343  H   1.0    0.14    0.99    1.43    35.80032    19.38670    61.95415
   344  H   1.0    0.14    0.99    1.43    32.47161    19.31882    62.32873
   345  H   1.0    0.13    0.99    1.43    31.73698    20.70197    58.07928
   346  H   1.0    0.12    0.99    1.43    34.95327    21.41664    57.59454
   347  N   5.0   -0.71    3.00    1.92    27.39522    27.93709    65.81486
   348  C   4.0    0.04    3.98    3.59    25.38393    26.22143    66.44453
   349  C   4.0    0.27    3.01    3.02    24.19409    24.94479    64.14131
   350  O   6.0   -0.41    1.00    1.80    22.23665    23.72020    64.33631
   351  H   1.0    0.33    1.00    1.43    29.14877    27.16798    65.77078
   352  H   1.0    0.14    0.99    1.43    26.13461    24.75382    67.68437
   353  H   1.0    0.13    0.99    1.43    23.89023    27.23700    67.44789
   354  N   5.0   -0.47    3.01    1.93    25.35575    25.31919    61.93330
   355  C   4.0    0.07    4.00    3.62    24.41319    24.10802    59.67079
   356  C   4.0    0.28    3.01    3.02    25.20240    21.31908    59.68861
   357  O   6.0   -0.42    1.00    1.80    27.38683    20.65091    60.01474
   358  C   4.0   -0.14    3.99    3.60    25.42846    25.45399    57.33515
   359  C   4.0   -0.10    3.98    3.58    24.20801    28.05486    56.95856
   360  C   4.0   -0.24    3.99    3.59    25.81337    29.58765    55.11991
   361  C   4.0   -0.22    3.98    3.59    21.50997    27.82119    55.96487
   362  H   1.0    0.24    1.00    1.43    27.08093    26.14794    61.82347
   363  H   1.0    0.13    0.99    1.43    22.34728    24.20661    59.74117
   364  H   1.0    0.12    0.99    1.43    27.47053    25.66206    57.55285
   365  H   1.0    0.11    0.99    1.43    25.10759    24.27942    55.66989
   366  H   1.0    0.12    0.99    1.43    24.16557    29.02124    58.78838
   367  H   1.0    0.09    0.99    1.43    24.97506    31.42901    54.76087
   368  H   1.0    0.10    0.99    1.43    27.70426    29.85797    55.87397
   369  H   1.0    0.10    0.99    1.43    25.96958    28.57132    53.33935
   370  H   1.0    0.09    0.99    1.43    20.65024    29.67761    55.78689
   371  H   1.0    0.10    0.99    1.43    21.51598    26.93168    54.11073
   372  H   1.0    0.12    0.99    1.43    20.32547    26.70062    57.21417
   373  N   5.0   -0.49    3.01    1.93    23.26974    19.71340    59.37096
   374  C   4.0    0.08    3.99    3.61    23.53195    16.99148    59.31415
   375  C   4.0    0.27    3.01    3.02    23.26516    16.16498    56.55257
   376  O   6.0   -0.44    1.00    1.80    21.61791    17.05865    55.19332
   377  C   4.0   -0.08    3.98    3.58    21.49864    15.70550    60.94867
   378  C   4.0   -0.21    3.98    3.59    21.79718    12.83540    60.84992
   379  C   4.0   -0.20    3.98    3.59    21.66836    16.63511    63.67504
   380  H   1.0    0.25    1.00    1.43    21.50160    20.37920    59.11698
   381  H   1.0    0.13    0.99    1.43    25.42076    16.55270    60.03272
   382  H   1.0    0.14    0.99    1.43    19.65125    16.21347    60.16198
   383  H   1.0    0.11    0.99    1.43    20.32949    11.94735    61.97705
   384  H   1.0    0.14    0.99    1.43    21.63486    12.11915    58.92934
   385  H   1.0    0.11    0.99    1.43    23.62155    12.27242    61.61215
   386  H   1.0    0.11    0.99    1.43    20.16634    15.79844    64.79622
   387  H   1.0    0.12    0.99    1.43    23.47239    16.09298    64.49877
   388  H   1.0    0.15    0.99    1.43    21.49868    18.68103    63.79223
   389  N   5.0   -0.50    3.01    1.93    25.04575    14.56426    55.74461
   390  C   4.0    0.08    4.00    3.61    25.06918    13.48209    53.23481
   391  C   4.0    0.28    3.01    3.02    23.80859    10.86842    53.24972
   392  O   6.0   -0.41    1.00    1.80    24.33535     9.29249    54.86888
   393  C   4.0   -0.12    3.99    3.60    27.81270    13.14158    52.33446
   394  C   4.0   -0.03    3.12    3.03    27.85643    12.15202    49.69614
   395  C   4.0    0.05    3.22    3.04    27.87198     9.67426    48.96829
   396  C   4.0    0.02    3.18    3.03    27.75370    13.61093    47.42737
   397  N   5.0   -0.46    3.10    1.94    27.87130     9.49004    46.39578
   398  C   4.0    0.12    3.22    3.04    27.75052    11.85844    45.39513
   399  C   4.0   -0.10    3.02    3.02    27.65832    16.19701    46.92430
   400  C   4.0   -0.12    3.01    3.02    27.68321    12.66784    42.88795
   401  C   4.0   -0.09    3.03    3.02    27.57567    16.98512    44.44374
   402  C   4.0   -0.11    3.03    3.02    27.60799    15.24841    42.44595
   403  H   1.0    0.24    1.00    1.43    26.17463    13.71191    57.02348
   404  H   1.0    0.15    0.99    1.43    24.03213    14.75302    51.98391
   405  H   1.0    0.12    0.99    1.43    28.77408    14.96079    52.43765
   406  H   1.0    0.13    0.99    1.43    28.72979    11.80649    53.61383
   407  H   1.0    0.14    1.00    1.43    27.87424     8.01066    50.12643
   408  H   1.0    0.27    1.00    1.43    27.57535     7.86196    45.45691
   409  H   1.0    0.13    1.00    1.43    27.63937    17.54492    48.45059
   410  H   1.0    0.13    1.00    1.43    27.74270    11.33160    41.34823
   411  H   1.0    0.15    1.00    1.43    27.49155    18.97912    44.02707
   412  H   1.0    0.15    1.00    1.43    27.57458    15.92990    40.52341
   413  N   5.0   -0.48    3.01    1.93    22.23378    10.49427    51.32725
   414  C   4.0    0.08    3.98    3.59    21.18165     8.07727    50.63366
   415  C   4.0    0.33    3.00    3.02    22.02522     7.52768    47.85435
   416  O   6.0   -0.45    1.00    1.80    21.38120     9.16882    46.26060
   417  C   4.0    0.05    3.98    3.58    18.27139     8.08464    50.75802
   418  O   6.0   -0.43    1.99    1.82    17.24307     9.89332    49.09752
   419  C   4.0   -0.18    3.98    3.59    17.33155     8.63248    53.42937
   420  O   6.0   -0.39    1.00    1.80    23.25129     5.59624    47.43036
   421  H   1.0    0.31    1.00    1.43    21.83135    11.93274    50.12642
   422  H   1.0    0.14    0.99    1.43    21.94483     6.63184    51.89810
   423  H   1.0    0.12    0.99    1.43    17.63493     6.17215    50.18734
   424  H   1.0    0.32    0.99    1.43    18.36753     9.97304    47.62811
   425  H   1.0    0.13    0.99    1.43    15.28227     8.53980    53.46897
   426  H   1.0    0.11    0.99    1.43    18.10496     7.26648    54.75175
   427  H   1.0    0.15    0.99    1.43    17.91873    10.52206    53.98142
   428  H   1.0    0.13    1.00    1.43    11.79338    28.24439    59.28468
   429  H   1.0    0.30    1.00    1.43    28.47365    42.01767    54.34265
   430  H   1.0    0.14    1.00    1.43    28.81150    40.87353    45.03591
   431  H   1.0    0.30    1.00    1.43    41.23313    43.21820    45.86668
   432  H   1.0    0.13    1.00    1.43    48.60790    42.37082    44.52172
   433  H   1.0    0.27    1.00    1.43    38.05809    42.40799    37.38295
   434  H   1.0    0.13    1.00    1.43    46.78525    16.52462    46.90124
   435  H   1.0    0.30    1.00    1.43    46.02193    22.92622    56.30339
   436  H   1.0    0.14    1.00    1.43    43.34590    19.30687    60.37452
   437  H   1.0    0.30    1.00    1.43    42.20267    27.50333    63.49844
   438  H   1.0    0.15    1.00    1.43    34.64720    23.36043    66.24144
   439  H   1.0    0.31    1.00    1.43    27.11947    28.59262    64.26992

           ------------------------------------------------- 
          |        Self-Consistent Charge Iterations        |
           ------------------------------------------------- 

          ...................................................
          :                      SETUP                      :
          :.................................................:
          :  # basis functions                1087          :
          :  # atomic orbitals                1087          :
          :  # shells                          655          :
          :  # electrons                      1190          :
          :  max. iterations                   250          :
          :  Hamiltonian                  GFN2-xTB          :
          :  restarted?                      false          :
          :  GBSA solvation                   true          :
          :  PC potential                    false          :
          :  electronic temp.          500.0000000     K    :
          :  accuracy                    0.1000000          :
          :  -> integral cutoff          0.3500000E+02      :
          :  -> integral neglect         0.1000000E-08      :
          :  -> SCF convergence          0.1000000E-06 Eh   :
          :  -> wf. convergence          0.1000000E-04 e    :
          :  Broyden damping             0.4000000          :
          ...................................................

 iter      E             dE          RMSdq      gap      omega  full diag
   1   -677.4742496 -0.677474E+03  0.425E+00    1.97       0.0  T
   2   -679.0407715 -0.156652E+01  0.228E+00    1.47       1.0  T
   3   -679.0922725 -0.515010E-01  0.117E+00    1.89       1.0  T
   4   -679.1172861 -0.250136E-01  0.298E-01    1.39       1.0  T
   5   -679.1412161 -0.239300E-01  0.115E-01    1.50       1.0  T
   6   -679.1425150 -0.129899E-02  0.613E-02    1.51       1.0  T
   7   -679.1429502 -0.435150E-03  0.281E-02    1.50       1.0  T
   8   -679.1430133 -0.630724E-04  0.107E-02    1.50       1.0  T
   9   -679.1430258 -0.125714E-04  0.548E-03    1.50       1.0  T
  10   -679.1430288 -0.293162E-05  0.283E-03    1.50       1.7  T
  11   -679.1430295 -0.727661E-06  0.130E-03    1.50       3.7  T
  12   -679.1430297 -0.216933E-06  0.571E-04    1.50       8.4  T
  13   -679.1430297 -0.290081E-07  0.336E-04    1.50      14.2  T
  14   -679.1430298 -0.156875E-07  0.155E-04    1.50      30.7  T
  15   -679.1430298 -0.311979E-08  0.704E-05    1.50      67.8  T
  16   -679.1430298 -0.686668E-09  0.347E-05    1.50     137.6  T

   *** convergence criteria satisfied after 16 iterations ***

         #    Occupation            Energy/Eh            Energy/eV
      -------------------------------------------------------------
         1        2.0000           -0.7391149             -20.1123
       ...           ...                  ...                  ...
       589        2.0000           -0.3702918             -10.0762
       590        2.0000           -0.3687182             -10.0333
       591        2.0000           -0.3677868             -10.0080
       592        2.0000           -0.3647823              -9.9262
       593        2.0000           -0.3646221              -9.9219
       594        2.0000           -0.3624570              -9.8630
       595        2.0000           -0.3524461              -9.5905 (HOMO)
       596                         -0.2972429              -8.0884 (LUMO)
       597                         -0.2922330              -7.9521
       598                         -0.2915216              -7.9327
       599                         -0.2913770              -7.9288
       600                         -0.2866693              -7.8007
       ...                                ...                  ...
      1087                          0.7178202              19.5329
      -------------------------------------------------------------
                  HL-Gap            0.0552033 Eh            1.5022 eV
             Fermi-level           -0.3249143 Eh           -8.8414 eV

 SCC (total)                   0 d,  0 h,  0 min,  9.503 sec
 SCC setup                      ...        0 min,  0.090 sec (  0.952%)
 Dispersion                     ...        0 min,  0.070 sec (  0.742%)
 integral evaluation            ...        0 min,  0.236 sec (  2.484%)
 zeroth order Hamiltonian       ...        0 min,  0.009 sec (  0.099%)
 iterations                     ...        0 min,  8.374 sec ( 88.126%)
 molecular gradient             ...        0 min,  0.669 sec (  7.044%)
 printout                       ...        0 min,  0.052 sec (  0.552%)

         :::::::::::::::::::::::::::::::::::::::::::::::::::::
         ::                     SUMMARY                     ::
         :::::::::::::::::::::::::::::::::::::::::::::::::::::
         :: total energy             -670.424169583379 Eh   ::
         :: total w/o Gsasa/hb       -670.354947632196 Eh   ::
         :: gradient norm               0.543296535206 Eh/α ::
         :: HOMO-LUMO gap               1.502157859428 eV   ::
         ::.................................................::
         :: SCC energy               -679.162204481678 Eh   ::
         :: -> isotropic ES             1.651492360182 Eh   ::
         :: -> anisotropic ES          -0.069963282504 Eh   ::
         :: -> anisotropic XC           0.231705517277 Eh   ::
         :: -> dispersion              -0.621251593199 Eh   ::
         :: -> Gsolv                   -0.336281693188 Eh   ::
         ::    -> Gborn                -0.267059742005 Eh   ::
         ::    -> Gsasa                -0.021032163027 Eh   ::
         ::    -> Ghb                  -0.050047231283 Eh   ::
         ::    -> Gshift                0.001857443127 Eh   ::
         :: repulsion energy            8.664095144071 Eh   ::
         :: add. restraining            0.000000000000 Eh   ::
         :::::::::::::::::::::::::::::::::::::::::::::::::::::

           -------------------------------------------------
          |                Property Printout                |
           -------------------------------------------------

    * Orbital Energies and Occupations

         #    Occupation            Energy/Eh            Energy/eV
      -------------------------------------------------------------
         1        2.0000           -0.7391149             -20.1123
       ...           ...                  ...                  ...
       583        2.0000           -0.3885041             -10.5717
       584        2.0000           -0.3841683             -10.4538
       585        2.0000           -0.3788916             -10.3102
       586        2.0000           -0.3780826             -10.2882
       587        2.0000           -0.3740445             -10.1783
       588        2.0000           -0.3729465             -10.1484
       589        2.0000           -0.3702918             -10.0762
       590        2.0000           -0.3687182             -10.0333
       591        2.0000           -0.3677868             -10.0080
       592        2.0000           -0.3647823              -9.9262
       593        2.0000           -0.3646221              -9.9219
       594        2.0000           -0.3624570              -9.8630
       595        2.0000           -0.3524461              -9.5905 (HOMO)
       596                         -0.2972429              -8.0884 (LUMO)
       597                         -0.2922330              -7.9521
       598                         -0.2915216              -7.9327
       599                         -0.2913770              -7.9288
       600                         -0.2866693              -7.8007
       601                         -0.2825543              -7.6887
       602                         -0.2467746              -6.7151
       603                         -0.2444621              -6.6522
       604                         -0.2428469              -6.6082
       605                         -0.2336500              -6.3579
       606                         -0.2333942              -6.3510
       ...                                ...                  ...
      1087                          0.7178202              19.5329
      -------------------------------------------------------------
                  HL-Gap            0.0552033 Eh            1.5022 eV
             Fermi-level           -0.3249143 Eh           -8.8414 eV

   #   Z        covCN         q      C6AA      α(0)
   1   7 N      3.484    -0.159    24.419     7.339
   2   6 C      3.784    -0.022    20.977     6.524
   3   6 C      2.753     0.277    22.316     7.736
   4   8 O      0.858    -0.473    23.201     6.458
   5   6 C      3.677     0.062    19.752     6.367
   6   8 O      1.656    -0.478    22.431     6.393
   7   1 H      0.859     0.296     0.726     1.335
   8   1 H      0.858     0.263     0.834     1.431
   9   1 H      0.856     0.304     0.703     1.313
  10   1 H      0.924     0.128     1.551     1.948
  11   1 H      0.924     0.072     2.067     2.248
  12   1 H      0.923     0.067     2.119     2.277
  13   1 H      0.805     0.350     0.588     1.205
  14   7 N      2.691    -0.159    24.450     7.344
  15   6 C      3.794     0.015    20.337     6.422
  16   6 C      2.758     0.266    22.515     7.770
  17   8 O      0.858    -0.466    23.052     6.437
  18   6 C      3.815    -0.069    21.803     6.646
  19   6 C      2.966    -0.003    28.102     8.695
  20   6 C      2.925    -0.042    29.040     8.837
  21   6 C      2.924    -0.040    29.004     8.832
  22   6 C      2.917    -0.071    29.769     8.947
  23   6 C      2.918    -0.065    29.625     8.926
  24   6 C      2.844     0.142    24.899     8.178
  25   8 O      1.654    -0.434    21.514     6.261
  26   1 H      0.860     0.242     0.914     1.498
  27   1 H      0.924     0.084     1.938     2.177
  28   1 H      0.924     0.066     2.125     2.280
  29   1 H      0.924     0.050     2.326     2.385
  30   1 H      0.926     0.018     2.769     2.602
  31   1 H      0.926     0.056     2.244     2.343
  32   1 H      0.926     0.033     2.547     2.496
  33   1 H      0.926     0.056     2.248     2.345
  34   1 H      0.800     0.349     0.592     1.209
  35   7 N      2.691    -0.170    24.688     7.380
  36   6 C      3.792     0.004    20.516     6.450
  37   6 C      2.757     0.266    22.504     7.768
  38   8 O      0.858    -0.488    23.510     6.501
  39   6 C      3.679     0.075    19.531     6.330
  40   8 O      1.655    -0.473    22.328     6.379
  41   1 H      0.860     0.216     1.028     1.588
  42   1 H      0.924     0.084     1.939     2.178
  43   1 H      0.923     0.035     2.521     2.483
  44   1 H      0.924     0.069     2.098     2.265
  45   1 H      0.804     0.329     0.641     1.258
  46   7 N      2.690    -0.156    24.370     7.332
  47   6 C      3.796     0.021    20.230     6.405
  48   6 C      2.766     0.204    23.665     7.967
  49   8 O      0.856    -0.367    21.024     6.147
  50   6 C      3.854    -0.022    20.928     6.506
  51   6 C      3.804    -0.069    21.817     6.650
  52   6 C      3.755    -0.121    22.875     6.820
  53   6 C      3.752    -0.117    22.792     6.808
  54   1 H      0.860     0.221     1.003     1.569
  55   1 H      0.924     0.088     1.902     2.156
  56   1 H      0.924     0.060     2.197     2.318
  57   1 H      0.924     0.052     2.298     2.371
  58   1 H      0.924     0.046     2.368     2.406
  59   1 H      0.925     0.070     2.091     2.261
  60   1 H      0.925     0.035     2.522     2.484
  61   1 H      0.925     0.050     2.314     2.379
  62   1 H      0.925     0.055     2.259     2.351
  63   1 H      0.925     0.045     2.381     2.413
  64   1 H      0.925     0.044     2.393     2.419
  65   7 N      2.635    -0.393    30.190     8.160
  66   6 C      3.788     0.035    20.002     6.370
  67   6 C      2.753     0.265    22.527     7.772
  68   8 O      0.858    -0.498    23.733     6.532
  69   6 C      3.814    -0.067    21.779     6.642
  70   6 C      2.970     0.011    27.773     8.644
  71   6 C      2.925    -0.038    28.953     8.824
  72   6 C      2.926    -0.043    29.059     8.840
  73   6 C      2.920    -0.032    28.798     8.800
  74   6 C      2.919    -0.034    28.836     8.806
  75   6 C      2.920    -0.035    28.866     8.811
  76   1 H      0.860     0.167     1.294     1.782
  77   1 H      0.923     0.041     2.430     2.438
  78   1 H      0.924     0.052     2.299     2.371
  79   1 H      0.924     0.052     2.301     2.372
  80   1 H      0.926     0.032     2.564     2.504
  81   1 H      0.926     0.039     2.464     2.454
  82   1 H      0.926     0.028     2.613     2.528
  83   1 H      0.926     0.033     2.537     2.491
  84   1 H      0.926     0.027     2.625     2.534
  85   7 N      2.690    -0.163    24.525     7.355
  86   6 C      3.790     0.022    20.223     6.405
  87   6 C      2.765     0.197    23.797     7.989
  88   8 O      0.856    -0.365    21.002     6.144
  89   6 C      3.811    -0.073    21.894     6.660
  90   6 C      3.849    -0.017    20.835     6.493
  91   6 C      3.757    -0.121    22.868     6.818
  92   6 C      3.756    -0.109    22.644     6.785
  93   1 H      0.860     0.220     1.010     1.574
  94   1 H      0.924     0.116     1.650     2.009
  95   1 H      0.924     0.057     2.240     2.340
  96   1 H      0.925     0.065     2.138     2.287
  97   1 H      0.924     0.042     2.422     2.434
  98   1 H      0.925     0.052     2.296     2.369
  99   1 H      0.925     0.049     2.327     2.386
 100   1 H      0.925     0.041     2.439     2.442
 101   1 H      0.925     0.047     2.353     2.399
 102   1 H      0.925     0.030     2.583     2.513
 103   1 H      0.925     0.032     2.562     2.503
 104   7 N      2.636    -0.382    29.864     8.116
 105   6 C      3.785     0.040    19.926     6.358
 106   6 C      2.765     0.200    23.750     7.981
 107   8 O      0.856    -0.374    21.175     6.169
 108   6 C      3.809    -0.060    21.647     6.623
 109   6 C      3.059    -0.038    28.887     8.814
 110   6 C      3.040    -0.010    28.221     8.713
 111   6 C      3.117    -0.023    28.417     8.732
 112   7 N      2.776    -0.109    23.383     7.182
 113   6 C      3.095     0.046    26.854     8.493
 114   6 C      2.912    -0.042    29.033     8.836
 115   6 C      2.910    -0.050    29.251     8.868
 116   6 C      2.920    -0.045    29.118     8.849
 117   6 C      2.923    -0.038    28.934     8.821
 118   1 H      0.860     0.154     1.377     1.838
 119   1 H      0.924     0.058     2.222     2.331
 120   1 H      0.924     0.040     2.455     2.450
 121   1 H      0.925     0.045     2.383     2.414
 122   1 H      0.926     0.026     2.641     2.541
 123   1 H      0.860     0.203     1.092     1.637
 124   1 H      0.926     0.028     2.622     2.532
 125   1 H      0.926     0.029     2.601     2.522
 126   1 H      0.925     0.023     2.686     2.563
 127   1 H      0.926     0.021     2.717     2.578
 128   7 N      2.707    -0.286    27.372     7.770
 129   6 C      3.815     0.029    20.081     6.378
 130   6 C      2.761     0.275    22.351     7.742
 131   8 O      0.859    -0.468    23.091     6.443
 132   6 C      3.830    -0.056    21.559     6.606
 133   6 C      3.832    -0.066    21.737     6.633
 134   6 C      3.766     0.011    20.435     6.443
 135   1 H      0.924     0.020     2.732     2.585
 136   1 H      0.924     0.033     2.540     2.492
 137   1 H      0.925     0.040     2.442     2.444
 138   1 H      0.925     0.045     2.382     2.413
 139   1 H      0.925     0.045     2.379     2.412
 140   1 H      0.924     0.039     2.468     2.457
 141   1 H      0.925     0.038     2.472     2.459
 142   7 N      2.692    -0.198    25.300     7.470
 143   6 C      3.795     0.028    20.112     6.386
 144   6 C      2.770     0.265    22.528     7.773
 145   8 O      0.860    -0.516    24.133     6.587
 146   6 C      3.673     0.073    19.585     6.342
 147   8 O      1.655    -0.470    22.259     6.369
 148   1 H      0.860     0.190     1.161     1.688
 149   1 H      0.923     0.068     2.102     2.267
 150   1 H      0.924     0.042     2.421     2.433
 151   1 H      0.924     0.039     2.457     2.451
 152   1 H      0.805     0.342     0.608     1.225
 153   7 N      2.764    -0.062    22.443     7.036
 154   6 C      3.848     0.019    20.218     6.396
 155   6 C      2.757     0.280    22.261     7.726
 156   8 O      0.858    -0.502    23.822     6.544
 157   6 C      3.828    -0.068    21.774     6.640
 158   6 C      3.833    -0.066    21.741     6.634
 159   6 C      3.780    -0.010    20.771     6.493
 160   1 H      0.924     0.070     2.085     2.258
 161   1 H      0.925     0.059     2.206     2.323
 162   1 H      0.925     0.066     2.131     2.283
 163   1 H      0.925     0.065     2.138     2.286
 164   1 H      0.925     0.063     2.163     2.300
 165   1 H      0.924     0.064     2.157     2.297
 166   1 H      0.925     0.074     2.043     2.235
 167   7 N      2.695    -0.184    24.996     7.425
 168   6 C      3.794     0.022    20.208     6.402
 169   6 C      2.767     0.261    22.604     7.786
 170   8 O      0.860    -0.458    22.863     6.411
 171   6 C      3.805    -0.066    21.760     6.641
 172   6 C      3.806    -0.088    22.180     6.704
 173   6 C      2.745     0.289    22.099     7.697
 174   8 O      0.859    -0.495    23.682     6.525
 175   7 N      2.639    -0.292    27.518     7.791
 176   1 H      0.859     0.236     0.941     1.519
 177   1 H      0.924     0.077     2.009     2.217
 178   1 H      0.924     0.063     2.168     2.303
 179   1 H      0.924     0.064     2.154     2.295
 180   1 H      0.924     0.058     2.225     2.333
 181   1 H      0.924     0.062     2.172     2.305
 182   1 H      0.860     0.225     0.988     1.557
 183   1 H      0.860     0.229     0.969     1.542
 184   7 N      2.689    -0.177    24.828     7.400
 185   6 C      3.803     0.010    20.401     6.430
 186   6 C      2.752     0.282    22.218     7.718
 187   8 O      0.859    -0.471    23.144     6.450
 188   6 C      3.851    -0.024    20.964     6.512
 189   6 C      3.756    -0.125    22.957     6.832
 190   6 C      3.757    -0.129    23.028     6.842
 191   1 H      0.860     0.215     1.031     1.591
 192   1 H      0.923     0.082     1.958     2.188
 193   1 H      0.924     0.052     2.294     2.369
 194   1 H      0.925     0.061     2.186     2.312
 195   1 H      0.925     0.040     2.445     2.445
 196   1 H      0.925     0.060     2.203     2.321
 197   1 H      0.925     0.062     2.174     2.305
 198   1 H      0.925     0.060     2.202     2.321
 199   1 H      0.925     0.049     2.329     2.387
 200   7 N      2.691    -0.169    24.661     7.376
 201   6 C      3.792     0.009    20.428     6.436
 202   6 C      2.755     0.274    22.370     7.745
 203   8 O      0.859    -0.484    23.436     6.491
 204   6 C      3.731     0.113    18.820     6.193
 205   8 O      1.656    -0.489    22.653     6.425
 206   6 C      3.752    -0.142    23.304     6.884
 207   1 H      0.860     0.210     1.056     1.610
 208   1 H      0.924     0.085     1.925     2.170
 209   1 H      0.923     0.042     2.423     2.434
 210   1 H      0.805     0.343     0.606     1.222
 211   1 H      0.925     0.063     2.167     2.302
 212   1 H      0.925     0.061     2.186     2.312
 213   1 H      0.925     0.065     2.146     2.291
 214   7 N      2.689    -0.174    24.768     7.391
 215   6 C      3.799     0.013    20.360     6.425
 216   6 C      2.760     0.272    22.408     7.752
 217   8 O      0.859    -0.475    23.238     6.463
 218   6 C      3.852    -0.009    20.704     6.472
 219   6 C      3.756    -0.114    22.735     6.798
 220   6 C      3.755    -0.115    22.756     6.802
 221   1 H      0.860     0.212     1.045     1.601
 222   1 H      0.924     0.072     2.062     2.246
 223   1 H      0.924     0.040     2.446     2.446
 224   1 H      0.925     0.046     2.374     2.410
 225   1 H      0.925     0.039     2.455     2.450
 226   1 H      0.925     0.048     2.351     2.398
 227   1 H      0.925     0.049     2.332     2.388
 228   1 H      0.925     0.042     2.426     2.436
 229   1 H      0.925     0.044     2.395     2.420
 230   7 N      2.691    -0.161    24.480     7.348
 231   6 C      3.798     0.010    20.409     6.433
 232   6 C      2.760     0.280    22.254     7.725
 233   8 O      0.859    -0.493    23.636     6.518
 234   6 C      3.807    -0.089    22.197     6.707
 235   6 C      3.806    -0.095    22.305     6.723
 236   6 C      3.741    -0.033    21.237     6.575
 237   7 N      2.702    -0.161    24.486     7.349
 238   6 C      2.738     0.222    23.324     7.907
 239   7 N      2.649    -0.263    26.815     7.691
 240   7 N      2.651    -0.280    27.229     7.750
 241   1 H      0.860     0.214     1.039     1.596
 242   1 H      0.924     0.080     1.983     2.202
 243   1 H      0.924     0.075     2.030     2.228
 244   1 H      0.925     0.079     1.991     2.207
 245   1 H      0.925     0.084     1.942     2.179
 246   1 H      0.925     0.069     2.100     2.266
 247   1 H      0.924     0.071     2.074     2.252
 248   1 H      0.924     0.094     1.838     2.120
 249   1 H      0.859     0.248     0.891     1.479
 250   1 H      0.860     0.235     0.942     1.520
 251   1 H      0.860     0.236     0.938     1.517
 252   1 H      0.859     0.249     0.889     1.477
 253   1 H      0.860     0.228     0.974     1.546
 254   7 N      2.693    -0.183    24.957     7.420
 255   6 C      3.799     0.029    20.082     6.381
 256   6 C      2.762     0.270    22.440     7.758
 257   8 O      0.859    -0.489    23.552     6.507
 258   6 C      3.812    -0.081    22.033     6.681
 259   6 C      2.969     0.003    27.949     8.672
 260   6 C      2.924    -0.052    29.291     8.875
 261   6 C      2.925    -0.044    29.089     8.845
 262   6 C      2.919    -0.037    28.924     8.819
 263   6 C      2.919    -0.032    28.796     8.800
 264   6 C      2.920    -0.037    28.921     8.819
 265   1 H      0.860     0.227     0.977     1.548
 266   1 H      0.924     0.050     2.316     2.380
 267   1 H      0.924     0.070     2.087     2.259
 268   1 H      0.924     0.071     2.079     2.255
 269   1 H      0.926     0.070     2.090     2.261
 270   1 H      0.926     0.038     2.477     2.461
 271   1 H      0.926     0.039     2.460     2.453
 272   1 H      0.926     0.027     2.626     2.534
 273   1 H      0.926     0.029     2.600     2.521
 274   7 N      2.756    -0.064    22.485     7.043
 275   6 C      3.827     0.020    20.221     6.399
 276   6 C      2.766     0.201    23.730     7.978
 277   8 O      0.856    -0.347    20.657     6.094
 278   6 C      3.835    -0.066    21.742     6.634
 279   6 C      3.832    -0.073    21.870     6.654
 280   6 C      3.767    -0.015    20.876     6.512
 281   1 H      0.924     0.085     1.925     2.170
 282   1 H      0.924     0.068     2.107     2.270
 283   1 H      0.925     0.074     2.038     2.232
 284   1 H      0.925     0.069     2.093     2.263
 285   1 H      0.925     0.065     2.141     2.288
 286   1 H      0.924     0.065     2.140     2.288
 287   1 H      0.924     0.067     2.121     2.278
 288   7 N      2.636    -0.385    29.969     8.131
 289   6 C      3.782     0.040    19.919     6.358
 290   6 C      2.766     0.199    23.757     7.982
 291   8 O      0.856    -0.379    21.258     6.182
 292   6 C      3.808    -0.090    22.216     6.710
 293   6 C      3.804    -0.074    21.914     6.664
 294   6 C      3.740    -0.032    21.224     6.573
 295   7 N      2.703    -0.136    23.938     7.267
 296   6 C      2.737     0.220    23.366     7.914
 297   7 N      2.649    -0.251    26.533     7.650
 298   7 N      2.654    -0.258    26.707     7.675
 299   1 H      0.860     0.178     1.226     1.735
 300   1 H      0.924     0.039     2.456     2.451
 301   1 H      0.924     0.096     1.819     2.109
 302   1 H      0.924     0.069     2.092     2.262
 303   1 H      0.924     0.051     2.309     2.376
 304   1 H      0.924     0.060     2.202     2.321
 305   1 H      0.924     0.089     1.887     2.148
 306   1 H      0.924     0.088     1.900     2.155
 307   1 H      0.860     0.232     0.958     1.534
 308   1 H      0.860     0.244     0.907     1.492
 309   1 H      0.860     0.254     0.869     1.460
 310   1 H      0.860     0.239     0.929     1.510
 311   1 H      0.860     0.249     0.886     1.475
 312   7 N      2.635    -0.397    30.291     8.174
 313   6 C      3.788     0.040    19.907     6.355
 314   6 C      2.762     0.274    22.376     7.747
 315   8 O      0.859    -0.531    24.477     6.633
 316   6 C      3.814    -0.075    21.914     6.663
 317   6 C      2.972     0.009    27.805     8.649
 318   6 C      2.925    -0.034    28.858     8.810
 319   6 C      2.927    -0.044    29.089     8.845
 320   6 C      2.922    -0.032    28.792     8.799
 321   6 C      2.920    -0.036    28.905     8.816
 322   6 C      2.920    -0.039    28.971     8.827
 323   1 H      0.860     0.165     1.304     1.789
 324   1 H      0.923     0.029     2.602     2.523
 325   1 H      0.924     0.052     2.290     2.366
 326   1 H      0.924     0.056     2.245     2.343
 327   1 H      0.926     0.026     2.646     2.544
 328   1 H      0.926     0.041     2.436     2.441
 329   1 H      0.926     0.030     2.582     2.513
 330   1 H      0.926     0.047     2.353     2.399
 331   1 H      0.926     0.039     2.466     2.456
 332   7 N      2.691    -0.174    24.763     7.391
 333   6 C      3.801     0.035    19.987     6.365
 334   6 C      2.764     0.205    23.649     7.964
 335   8 O      0.856    -0.380    21.278     6.185
 336   6 C      3.803    -0.056    21.574     6.613
 337   6 C      3.805    -0.097    22.344     6.729
 338   6 C      2.685     0.367    20.772     7.459
 339   8 O      0.856    -0.573    25.464     6.766
 340   8 O      0.857    -0.582    25.674     6.793
 341   1 H      0.860     0.244     0.908     1.493
 342   1 H      0.923     0.073     2.057     2.243
 343   1 H      0.924     0.066     2.130     2.282
 344   1 H      0.925     0.047     2.354     2.399
 345   1 H      0.924     0.049     2.328     2.386
 346   1 H      0.925     0.057     2.229     2.335
 347   7 N      2.632    -0.393    30.178     8.159
 348   6 C      3.735    -0.015    20.927     6.529
 349   6 C      2.757     0.267    22.489     7.766
 350   8 O      0.859    -0.520    24.239     6.601
 351   1 H      0.860     0.177     1.229     1.737
 352   1 H      0.924     0.062     2.175     2.306
 353   1 H      0.924     0.068     2.103     2.268
 354   7 N      2.692    -0.173    24.752     7.389
 355   6 C      3.803     0.026    20.136     6.388
 356   6 C      2.754     0.273    22.382     7.747
 357   8 O      0.858    -0.480    23.351     6.479
 358   6 C      3.811    -0.070    21.825     6.650
 359   6 C      3.850    -0.014    20.793     6.486
 360   6 C      3.758    -0.116    22.766     6.803
 361   6 C      3.756    -0.113    22.719     6.796
 362   1 H      0.860     0.201     1.102     1.645
 363   1 H      0.924     0.062     2.178     2.308
 364   1 H      0.924     0.050     2.326     2.385
 365   1 H      0.924     0.054     2.269     2.356
 366   1 H      0.924     0.032     2.565     2.504
 367   1 H      0.925     0.054     2.276     2.359
 368   1 H      0.925     0.039     2.457     2.451
 369   1 H      0.925     0.048     2.341     2.393
 370   1 H      0.925     0.053     2.286     2.364
 371   1 H      0.925     0.042     2.420     2.433
 372   1 H      0.925     0.029     2.594     2.519
 373   7 N      2.694    -0.167    24.618     7.369
 374   6 C      3.798     0.020    20.248     6.407
 375   6 C      2.757     0.273    22.387     7.748
 376   8 O      0.858    -0.485    23.459     6.494
 377   6 C      3.852    -0.015    20.805     6.487
 378   6 C      3.756    -0.116    22.783     6.806
 379   6 C      3.756    -0.117    22.793     6.807
 380   1 H      0.860     0.198     1.117     1.656
 381   1 H      0.924     0.067     2.124     2.279
 382   1 H      0.924     0.047     2.363     2.404
 383   1 H      0.925     0.057     2.230     2.335
 384   1 H      0.925     0.033     2.548     2.496
 385   1 H      0.925     0.049     2.327     2.385
 386   1 H      0.925     0.053     2.282     2.363
 387   1 H      0.925     0.043     2.411     2.428
 388   1 H      0.925     0.045     2.387     2.416
 389   7 N      2.691    -0.170    24.688     7.379
 390   6 C      3.799     0.020    20.245     6.406
 391   6 C      2.755     0.272    22.409     7.752
 392   8 O      0.858    -0.513    24.083     6.580
 393   6 C      3.810    -0.071    21.847     6.653
 394   6 C      3.057    -0.039    28.922     8.819
 395   6 C      3.042    -0.003    28.062     8.689
 396   6 C      3.115    -0.021    28.353     8.722
 397   7 N      2.774    -0.096    23.115     7.141
 398   6 C      3.091     0.039    27.025     8.521
 399   6 C      2.910    -0.038    28.933     8.820
 400   6 C      2.906    -0.073    29.830     8.956
 401   6 C      2.918    -0.052    29.299     8.876
 402   6 C      2.920    -0.055    29.357     8.885
 403   1 H      0.860     0.206     1.078     1.626
 404   1 H      0.924     0.078     1.998     2.210
 405   1 H      0.924     0.074     2.047     2.237
 406   1 H      0.924     0.056     2.251     2.346
 407   1 H      0.926     0.036     2.507     2.476
 408   1 H      0.860     0.196     1.127     1.663
 409   1 H      0.926     0.039     2.468     2.457
 410   1 H      0.926     0.057     2.231     2.336
 411   1 H      0.926     0.035     2.518     2.482
 412   1 H      0.926     0.048     2.344     2.394
 413   7 N      2.692    -0.187    25.048     7.433
 414   6 C      3.787     0.001    20.579     6.461
 415   6 C      2.688     0.365    20.812     7.466
 416   8 O      0.856    -0.601    26.142     6.855
 417   6 C      3.725     0.128    18.601     6.158
 418   8 O      1.654    -0.491    22.700     6.432
 419   6 C      3.753    -0.116    22.785     6.807
 420   8 O      0.856    -0.587    25.807     6.811
 421   1 H      0.860     0.233     0.953     1.529
 422   1 H      0.924     0.032     2.558     2.501
 423   1 H      0.922    -0.009     3.219     2.806
 424   1 H      0.803     0.329     0.641     1.258
 425   1 H      0.925     0.057     2.239     2.340
 426   1 H      0.925     0.041     2.432     2.439
 427   1 H      0.925     0.047     2.352     2.398
 428   1 H      0.930     0.076     2.018     2.221
 429   1 H      0.862     0.178     1.223     1.732
 430   1 H      0.930     0.071     2.076     2.253
 431   1 H      0.862     0.185     1.183     1.704
 432   1 H      0.930     0.067     2.115     2.274
 433   1 H      0.862     0.171     1.266     1.762
 434   1 H      0.930     0.090     1.880     2.144
 435   1 H      0.862     0.166     1.296     1.784
 436   1 H      0.930     0.075     2.029     2.227
 437   1 H      0.862     0.183     1.197     1.714
 438   1 H      0.930     0.069     2.098     2.265
 439   1 H      0.862     0.178     1.227     1.735

 Mol. C6AA /au·bohr⁶  :    1846984.984697
 Mol. C8AA /au·bohr⁸  :   41669489.491879
 Mol. α(0) /au        :       2056.000187


Wiberg/Mayer (AO) data.
largest (>0.10) Wiberg bond orders for each atom
          total WBO             WBO to atom ...
     1  N   3.646        C    2 0.971    H    7 0.894    H    8 0.862    H    9 0.823
     2  C   3.936        C    5 0.977    N    1 0.971    H   10 0.937    C    3 0.933
     3  C   3.956        O    4 1.612    N   14 1.337    C    2 0.933
     4  O   2.001        C    3 1.612    N   14 0.202
     5  C   3.952        O    6 1.007    C    2 0.977    H   11 0.963    H   12 0.960
     6  O   1.929        C    5 1.007    H   13 0.864
     7  H   0.912        N    1 0.894
     8  H   0.931        N    1 0.862
     9  H   0.908        N    1 0.823
    10  H   0.983        C    2 0.937
    11  H   0.995        C    5 0.963
    12  H   0.995        C    5 0.960
    13  H   0.877        O    6 0.864
    14  N   3.497        C    3 1.337    C   15 0.989    H   26 0.877    O    4 0.202
    15  C   3.963        N   14 0.989    C   18 0.960    H   27 0.946    C   16 0.927
    16  C   3.948        O   17 1.648    N   35 1.288    C   15 0.927
    17  O   1.965        C   16 1.648    N   35 0.197
    18  C   3.987        C   19 1.006    H   28 0.969    C   15 0.960    H   29 0.956
    19  C   3.986        C   21 1.408    C   20 1.402    C   18 1.006
    20  C   3.992        C   22 1.454    C   19 1.402    H   30 0.964    C   23 0.107
    21  C   3.987        C   23 1.452    C   19 1.408    H   31 0.964    C   22 0.104
    22  C   3.988        C   20 1.454    C   24 1.362    H   32 0.962    C   21 0.104
    23  C   3.986        C   21 1.452    C   24 1.362    H   33 0.960    C   20 0.107
    24  C   3.949        C   23 1.362    C   22 1.362    O   25 1.088
    25  O   2.115        C   24 1.088    H   34 0.781
    26  H   0.941        N   14 0.877
    27  H   0.993        C   15 0.946
    28  H   0.995        C   18 0.969
    29  H   0.996        C   18 0.956
    30  H   1.000        C   20 0.964
    31  H   0.997        C   21 0.964
    32  H   0.999        C   22 0.962
    33  H   0.997        C   23 0.960
    34  H   0.878        O   25 0.781
    35  N   3.471        C   16 1.288    C   36 0.987    H   41 0.915    O   17 0.197
    36  C   3.969        N   35 0.987    C   39 0.963    H   42 0.954    C   37 0.933
    37  C   3.951        O   38 1.615    N   46 1.317    C   36 0.933
    38  O   1.966        C   37 1.615    N   46 0.198
    39  C   3.959        O   40 1.016    H   44 0.967    H   43 0.965    C   36 0.963
    40  O   1.946        C   39 1.016    H   45 0.849
    41  H   0.953        N   35 0.915
    42  H   0.993        C   36 0.954
    43  H   0.998        C   39 0.965
    44  H   0.994        C   39 0.967
    45  H   0.892        O   40 0.849
    46  N   3.490        C   37 1.317    C   47 0.974    H   54 0.917    O   38 0.198
    47  C   3.958        N   46 0.974    C   48 0.967    H   55 0.952    C   50 0.947
    48  C   3.896        O   49 1.902    C   47 0.967    H  428 0.954
    49  O   2.041        C   48 1.902
    50  C   3.980        C   52 1.008    C   51 0.992    H   56 0.961    C   47 0.947
    51  C   3.993        C   53 1.018    C   50 0.992    H   58 0.974    H   57 0.974
    52  C   3.992        C   50 1.008    H   61 0.985    H   60 0.982    H   59 0.979
    53  C   3.992        C   51 1.018    H   63 0.987    H   64 0.984    H   62 0.982
    54  H   0.951        N   46 0.917
    55  H   0.992        C   47 0.952
    56  H   0.996        C   50 0.961
    57  H   0.997        C   51 0.974
    58  H   0.998        C   51 0.974
    59  H   0.995        C   52 0.979
    60  H   0.999        C   52 0.982
    61  H   0.997        C   52 0.985
    62  H   0.996        C   53 0.982
    63  H   0.998        C   53 0.987
    64  H   0.998        C   53 0.984
    65  N   3.003        C   66 1.021    H  429 0.957    H   76 0.951
    66  C   3.985        N   65 1.021    H   77 0.957    C   69 0.957    C   67 0.937
    67  C   3.945        O   68 1.610    N   85 1.311    C   66 0.937
    68  O   1.945        C   67 1.610    N   85 0.191
    69  C   3.993        C   70 1.011    H   78 0.970    H   79 0.958    C   66 0.957
    70  C   3.988        C   72 1.415    C   71 1.408    C   69 1.011    C   75 0.109
    71  C   3.991        C   73 1.449    C   70 1.408    H   80 0.964    C   74 0.112
    72  C   3.990        C   74 1.441    C   70 1.415    H   81 0.967    C   73 0.110
    73  C   3.992        C   71 1.449    C   75 1.435    H   82 0.971    C   72 0.110
    74  C   3.992        C   75 1.442    C   72 1.441    H   83 0.971    C   71 0.112
    75  C   3.991        C   74 1.442    C   73 1.435    H   84 0.972    C   70 0.109
    76  H   0.972        N   65 0.951
    77  H   0.998        C   66 0.957
    78  H   0.997        C   69 0.970
    79  H   0.997        C   69 0.958
    80  H   0.999        C   71 0.964
    81  H   0.998        C   72 0.967
    82  H   0.999        C   73 0.971
    83  H   0.999        C   74 0.971
    84  H   0.999        C   75 0.972
    85  N   3.482        C   67 1.311    C   86 0.989    H   93 0.914    O   68 0.191
    86  C   3.965        N   85 0.989    C   87 0.981    C   89 0.970    H   94 0.909
    87  C   3.902        O   88 1.894    C   86 0.981    H  430 0.953
    88  O   2.043        C   87 1.894
    89  C   3.985        C   90 0.994    H   95 0.973    C   86 0.970    H   96 0.967
    90  C   3.994        C   92 1.009    C   91 1.007    C   89 0.994    H   97 0.967
    91  C   3.994        C   90 1.007    H   98 0.985    H  100 0.985    H   99 0.983
    92  C   3.995        C   90 1.009    H  102 0.983    H  103 0.981    H  101 0.979
    93  H   0.951        N   85 0.914
    94  H   0.987        C   86 0.909
    95  H   0.997        C   89 0.973
    96  H   0.995        C   89 0.967
    97  H   0.998        C   90 0.967
    98  H   0.997        C   91 0.985
    99  H   0.998        C   91 0.983
   100  H   0.998        C   91 0.985
   101  H   0.997        C   92 0.979
   102  H   0.999        C   92 0.983
   103  H   0.999        C   92 0.981
   104  N   2.997        C  105 1.017    H  118 0.959    H  431 0.949
   105  C   3.985        N  104 1.017    C  106 0.984    H  119 0.963    C  108 0.928
   106  C   3.896        O  107 1.893    C  105 0.984    H  432 0.955
   107  O   2.035        C  106 1.893
   108  C   3.994        C  109 1.018    H  120 0.972    H  121 0.969    C  105 0.928
   109  C   3.973        C  110 1.559    C  111 1.207    C  108 1.018
   110  C   3.955        C  109 1.559    N  112 1.215    H  122 0.969
   111  C   3.983        C  114 1.330    C  113 1.245    C  109 1.207
   112  N   3.557        C  110 1.215    C  113 1.191    H  123 0.913
   113  C   3.961        C  115 1.333    C  111 1.245    N  112 1.191
   114  C   3.992        C  116 1.506    C  111 1.330    H  124 0.969    C  115 0.113
   115  C   3.989        C  117 1.498    C  113 1.333    H  125 0.962    C  114 0.113
   116  C   3.990        C  114 1.506    C  117 1.366    H  126 0.972
   117  C   3.990        C  115 1.498    C  116 1.366    H  127 0.970
   118  H   0.976        N  104 0.959
   119  H   0.997        C  105 0.963
   120  H   0.998        C  108 0.972
   121  H   0.998        C  108 0.969
   122  H   0.999        C  110 0.969
   123  H   0.958        N  112 0.913
   124  H   0.999        C  114 0.969
   125  H   0.999        C  115 0.962
   126  H   0.999        C  116 0.972
   127  H   0.999        C  117 0.970
   128  N   3.064        C  134 1.007    C  129 1.006    H  433 0.957
   129  C   3.989        N  128 1.006    C  132 0.967    H  135 0.964    C  130 0.942
   130  C   3.941        O  131 1.673    N  142 1.252    C  129 0.942
   131  O   1.982        C  130 1.673    N  142 0.188
   132  C   3.995        C  133 1.005    H  137 0.979    H  136 0.979    C  129 0.967
   133  C   3.996        C  132 1.005    C  134 0.999    H  139 0.980    H  138 0.978
   134  C   3.984        N  128 1.007    C  133 0.999    H  141 0.978    H  140 0.975
   135  H   1.000        C  129 0.964
   136  H   0.999        C  132 0.979
   137  H   0.998        C  132 0.979
   138  H   0.998        C  133 0.978
   139  H   0.998        C  133 0.980
   140  H   0.998        C  134 0.975
   141  H   0.998        C  134 0.978
   142  N   3.425        C  130 1.252    C  143 0.969    H  148 0.932    O  131 0.188
   143  C   3.960        C  146 0.973    N  142 0.969    H  149 0.958    C  144 0.941
   144  C   3.957        O  145 1.592    N  153 1.327    C  143 0.941
   145  O   1.923        C  144 1.592    N  153 0.202
   146  C   3.960        O  147 1.004    C  143 0.973    H  150 0.969    H  151 0.959
   147  O   1.930        C  146 1.004    H  152 0.870
   148  H   0.964        N  142 0.932
   149  H   0.995        C  143 0.958
   150  H   0.998        C  146 0.969
   151  H   0.998        C  146 0.959
   152  H   0.883        O  147 0.870
   153  N   3.548        C  144 1.327    C  159 0.974    C  154 0.964    O  145 0.202
   154  C   3.964        C  157 0.976    N  153 0.964    H  160 0.953    C  155 0.936
   155  C   3.949        O  156 1.619    N  167 1.316    C  154 0.936
   156  O   1.936        C  155 1.619    N  167 0.197
   157  C   3.988        C  158 1.002    C  154 0.976    H  162 0.974    H  161 0.972
   158  C   3.990        C  159 1.003    C  157 1.002    H  163 0.973    H  164 0.973
   159  C   3.959        C  158 1.003    N  153 0.974    H  166 0.960    H  165 0.959
   160  H   0.995        C  154 0.953
   161  H   0.996        C  157 0.972
   162  H   0.995        C  157 0.974
   163  H   0.995        C  158 0.973
   164  H   0.996        C  158 0.973
   165  H   0.996        C  159 0.959
   166  H   0.994        C  159 0.960
   167  N   3.474        C  155 1.316    C  168 0.995    H  176 0.868    O  156 0.197
   168  C   3.972        N  167 0.995    C  171 0.960    C  169 0.947    H  177 0.942
   169  C   3.951        O  170 1.613    N  184 1.306    C  168 0.947
   170  O   2.004        C  169 1.613    N  184 0.193
   171  C   3.989        C  172 0.989    H  179 0.972    H  178 0.972    C  168 0.960
   172  C   3.993        C  171 0.989    H  180 0.972    C  173 0.965    H  181 0.963
   173  C   3.943        O  174 1.655    N  175 1.295    C  172 0.965
   174  O   1.955        C  173 1.655    N  175 0.200
   175  N   3.386        C  173 1.295    H  182 0.930    H  183 0.926    O  174 0.200
   176  H   0.944        N  167 0.868
   177  H   0.994        C  168 0.942
   178  H   0.996        C  171 0.972
   179  H   0.995        C  171 0.972
   180  H   0.997        C  172 0.972
   181  H   0.996        C  172 0.963
   182  H   0.949        N  175 0.930
   183  H   0.947        N  175 0.926
   184  N   3.469        C  169 1.306    C  185 0.971    H  191 0.917    O  170 0.193
   185  C   3.954        N  184 0.971    C  188 0.963    H  192 0.946    C  186 0.940
   186  C   3.948        O  187 1.620    N  200 1.289    C  185 0.940
   187  O   1.986        C  186 1.620    N  200 0.186
   188  C   3.986        C  190 1.008    C  189 1.007    H  193 0.965    C  185 0.963
   189  C   3.990        C  188 1.007    H  195 0.983    H  196 0.983    H  194 0.983
   190  C   3.990        C  188 1.008    H  198 0.984    H  197 0.982    H  199 0.980
   191  H   0.954        N  184 0.917
   192  H   0.993        C  185 0.946
   193  H   0.997        C  188 0.965
   194  H   0.996        C  189 0.983
   195  H   0.998        C  189 0.983
   196  H   0.996        C  189 0.983
   197  H   0.995        C  190 0.982
   198  H   0.996        C  190 0.984
   199  H   0.998        C  190 0.980
   200  N   3.472        C  186 1.289    C  201 0.997    H  207 0.915    O  187 0.186
   201  C   3.968        N  200 0.997    C  204 0.957    H  208 0.944    C  202 0.927
   202  C   3.951        O  203 1.630    N  214 1.309    C  201 0.927
   203  O   1.956        C  202 1.630    N  214 0.198
   204  C   3.952        C  206 1.001    O  205 0.986    H  209 0.960    C  201 0.957
   205  O   1.939        C  204 0.986    H  210 0.865
   206  C   3.989        C  204 1.001    H  212 0.983    H  213 0.982    H  211 0.981
   207  H   0.955        N  200 0.915
   208  H   0.992        C  201 0.944
   209  H   0.998        C  204 0.960
   210  H   0.882        O  205 0.865
   211  H   0.995        C  206 0.981
   212  H   0.996        C  206 0.983
   213  H   0.996        C  206 0.982
   214  N   3.479        C  202 1.309    C  215 0.977    H  221 0.888    O  203 0.198
   215  C   3.962        N  214 0.977    C  218 0.958    H  222 0.955    C  216 0.938
   216  C   3.951        O  217 1.614    N  230 1.319    C  215 0.938
   217  O   1.986        C  216 1.614    N  230 0.196
   218  C   3.991        C  220 1.009    C  219 1.007    H  223 0.963    C  215 0.958
   219  C   3.994        C  218 1.007    H  226 0.985    H  224 0.985    H  225 0.983
   220  C   3.993        C  218 1.009    H  228 0.986    H  227 0.983    H  229 0.979
   221  H   0.955        N  214 0.888
   222  H   0.994        C  215 0.955
   223  H   0.998        C  218 0.963
   224  H   0.997        C  219 0.985
   225  H   0.998        C  219 0.983
   226  H   0.998        C  219 0.985
   227  H   0.997        C  220 0.983
   228  H   0.998        C  220 0.986
   229  H   0.998        C  220 0.979
   230  N   3.484        C  216 1.319    C  231 0.976    H  241 0.922    O  217 0.196
   231  C   3.957        N  230 0.976    C  234 0.976    H  242 0.943    C  232 0.935
   232  C   3.948        O  233 1.635    N  254 1.301    C  231 0.935
   233  O   1.958        C  232 1.635    N  254 0.198
   234  C   3.983        C  235 1.006    C  231 0.976    H  244 0.972    H  243 0.964
   235  C   3.986        C  236 1.007    C  234 1.006    H  245 0.967    H  246 0.966
   236  C   3.957        C  235 1.007    N  237 0.985    H  248 0.959    H  247 0.955
   237  N   3.468        C  238 1.344    C  236 0.985    H  249 0.839    N  240 0.113
   238  C   3.977        N  237 1.344    N  240 1.322    N  239 1.274
   239  N   3.352        C  238 1.274    H  251 0.925    H  250 0.920
   240  N   3.385        C  238 1.322    H  253 0.927    H  252 0.847    N  237 0.113
   241  H   0.954        N  230 0.922
   242  H   0.994        C  231 0.943
   243  H   0.994        C  234 0.964
   244  H   0.994        C  234 0.972
   245  H   0.993        C  235 0.967
   246  H   0.995        C  235 0.966
   247  H   0.995        C  236 0.955
   248  H   0.991        C  236 0.959
   249  H   0.938        N  237 0.839
   250  H   0.944        N  239 0.920
   251  H   0.944        N  239 0.925
   252  H   0.938        N  240 0.847
   253  H   0.947        N  240 0.927
   254  N   3.461        C  232 1.301    C  255 0.981    H  265 0.891    O  233 0.198
   255  C   3.969        N  254 0.981    C  258 0.964    H  266 0.951    C  256 0.937
   256  C   3.953        O  257 1.569    N  274 1.329    C  255 0.937
   257  O   1.946        C  256 1.569    N  274 0.186
   258  C   3.986        C  259 1.009    C  255 0.964    H  268 0.961    H  267 0.961
   259  C   3.988        C  261 1.417    C  260 1.405    C  258 1.009    C  264 0.109
   260  C   3.987        C  262 1.445    C  259 1.405    H  269 0.955    C  263 0.111
   261  C   3.990        C  263 1.439    C  259 1.417    H  270 0.963    C  262 0.110
   262  C   3.991        C  260 1.445    C  264 1.434    H  271 0.970    C  261 0.110
   263  C   3.992        C  264 1.442    C  261 1.439    H  272 0.970    C  260 0.111
   264  C   3.991        C  263 1.442    C  262 1.434    H  273 0.972    C  259 0.109
   265  H   0.948        N  254 0.891
   266  H   0.997        C  255 0.951
   267  H   0.994        C  258 0.961
   268  H   0.995        C  258 0.961
   269  H   0.995        C  260 0.955
   270  H   0.999        C  261 0.963
   271  H   0.998        C  262 0.970
   272  H   0.999        C  263 0.970
   273  H   0.999        C  264 0.972
   274  N   3.545        C  256 1.329    C  280 0.974    C  275 0.964    O  257 0.186
   275  C   3.969        C  276 0.990    N  274 0.964    C  278 0.956    H  281 0.946
   276  C   3.909        O  277 1.882    C  275 0.990    H  434 0.951
   277  O   2.067        C  276 1.882
   278  C   3.985        C  279 1.001    H  282 0.974    H  283 0.974    C  275 0.956
   279  C   3.990        C  280 1.004    C  278 1.001    H  285 0.977    H  284 0.973
   280  C   3.965        C  279 1.004    N  274 0.974    H  287 0.965    H  286 0.962
   281  H   0.992        C  275 0.946
   282  H   0.995        C  278 0.974
   283  H   0.994        C  278 0.974
   284  H   0.995        C  279 0.973
   285  H   0.996        C  279 0.977
   286  H   0.996        C  280 0.962
   287  H   0.995        C  280 0.965
   288  N   2.994        C  289 1.008    H  435 0.959    H  299 0.949
   289  C   3.983        N  288 1.008    C  290 0.978    C  292 0.964    H  300 0.951
   290  C   3.881        O  291 1.868    C  289 0.978    H  436 0.953
   291  O   2.051        C  290 1.868
   292  C   3.982        C  293 1.007    H  302 0.972    C  289 0.964    H  301 0.952
   293  C   3.993        C  294 1.009    C  292 1.007    H  303 0.971    H  304 0.969
   294  C   3.958        C  293 1.009    N  295 0.984    H  306 0.958    H  305 0.957
   295  N   3.485        C  296 1.332    C  294 0.984    H  307 0.894    N  298 0.105    N  297 0.103
   296  C   3.978        N  295 1.332    N  297 1.306    N  298 1.305
   297  N   3.383        C  296 1.306    H  308 0.917    H  309 0.917    N  295 0.103
   298  N   3.382        C  296 1.305    H  311 0.918    H  310 0.901    N  295 0.105
   299  H   0.968        N  288 0.949
   300  H   0.998        C  289 0.951
   301  H   0.991        C  292 0.952
   302  H   0.995        C  292 0.972
   303  H   0.997        C  293 0.971
   304  H   0.996        C  293 0.969
   305  H   0.992        C  294 0.957
   306  H   0.992        C  294 0.958
   307  H   0.946        N  295 0.894
   308  H   0.940        N  297 0.917
   309  H   0.936        N  297 0.917
   310  H   0.943        N  298 0.901
   311  H   0.937        N  298 0.918
   312  N   2.992        C  313 1.012    H  437 0.956    H  323 0.953
   313  C   3.985        N  312 1.012    H  324 0.966    C  316 0.965    C  314 0.936
   314  C   3.940        O  315 1.606    N  332 1.323    C  313 0.936
   315  O   1.921        C  314 1.606    N  332 0.195
   316  C   3.993        C  317 1.007    H  326 0.967    H  325 0.966    C  313 0.965
   317  C   3.988        C  318 1.412    C  319 1.410    C  316 1.007    C  322 0.110
   318  C   3.992        C  320 1.445    C  317 1.412    H  327 0.968    C  321 0.112
   319  C   3.990        C  321 1.444    C  317 1.410    H  328 0.955    C  320 0.110
   320  C   3.991        C  318 1.445    C  322 1.437    H  329 0.959    C  319 0.110
   321  C   3.991        C  319 1.444    C  322 1.437    H  330 0.967    C  318 0.112
   322  C   3.991        C  320 1.437    C  321 1.437    H  331 0.968    C  317 0.110
   323  H   0.973        N  312 0.953
   324  H   0.999        C  313 0.966
   325  H   0.997        C  316 0.966
   326  H   0.997        C  316 0.967
   327  H   0.999        C  318 0.968
   328  H   0.998        C  319 0.955
   329  H   0.999        C  320 0.959
   330  H   0.997        C  321 0.967
   331  H   0.998        C  322 0.968
   332  N   3.476        C  314 1.323    C  333 0.980    H  341 0.879    O  315 0.195
   333  C   3.969        N  332 0.980    C  334 0.978    C  336 0.961    H  342 0.947
   334  C   3.894        O  335 1.862    C  333 0.978    H  438 0.955
   335  O   2.038        C  334 1.862
   336  C   3.983        C  337 1.005    H  344 0.975    H  343 0.970    C  333 0.961
   337  C   3.985        C  336 1.005    H  345 0.956    H  346 0.950    C  338 0.943
   338  C   3.936        O  339 1.528    O  340 1.426    C  337 0.943
   339  O   1.911        C  338 1.528    O  340 0.202
   340  O   1.898        C  338 1.426    O  339 0.202
   341  H   0.941        N  332 0.879
   342  H   0.995        C  333 0.947
   343  H   0.995        C  336 0.970
   344  H   0.997        C  336 0.975
   345  H   0.997        C  337 0.956
   346  H   0.997        C  337 0.950
   347  N   3.004        C  348 1.037    H  439 0.947    H  351 0.930
   348  C   3.987        N  347 1.037    H  352 0.956    C  349 0.956    H  353 0.953
   349  C   3.942        O  350 1.619    N  354 1.293    C  348 0.956
   350  O   1.922        C  349 1.619    N  354 0.186
   351  H   0.969        N  347 0.930
   352  H   0.996        C  348 0.956
   353  H   0.994        C  348 0.953
   354  N   3.461        C  349 1.293    C  355 0.977    H  362 0.911    O  350 0.186
   355  C   3.964        C  358 0.983    N  354 0.977    H  363 0.950    C  356 0.928
   356  C   3.946        O  357 1.643    N  373 1.293    C  355 0.928
   357  O   1.960        C  356 1.643    N  373 0.199
   358  C   3.986        C  359 0.991    C  355 0.983    H  364 0.970    H  365 0.966
   359  C   3.993        C  361 1.010    C  360 1.008    C  358 0.991    H  366 0.968
   360  C   3.993        C  359 1.008    H  368 0.985    H  367 0.984    H  369 0.981
   361  C   3.995        C  359 1.010    H  370 0.982    H  372 0.981    H  371 0.980
   362  H   0.960        N  354 0.911
   363  H   0.996        C  355 0.950
   364  H   0.998        C  358 0.970
   365  H   0.996        C  358 0.966
   366  H   0.998        C  359 0.968
   367  H   0.996        C  360 0.984
   368  H   0.998        C  360 0.985
   369  H   0.998        C  360 0.981
   370  H   0.997        C  361 0.982
   371  H   0.998        C  361 0.980
   372  H   0.999        C  361 0.981
   373  N   3.478        C  356 1.293    C  374 0.980    H  380 0.927    O  357 0.199
   374  C   3.963        N  373 0.980    C  377 0.960    H  381 0.955    C  375 0.933
   375  C   3.949        O  376 1.621    N  389 1.307    C  374 0.933
   376  O   1.955        C  375 1.621    N  389 0.196
   377  C   3.990        C  379 1.008    C  378 1.008    H  382 0.966    C  374 0.960
   378  C   3.993        C  377 1.008    H  385 0.985    H  384 0.985    H  383 0.984
   379  C   3.993        C  377 1.008    H  387 0.986    H  386 0.984    H  388 0.983
   380  H   0.961        N  373 0.927
   381  H   0.995        C  374 0.955
   382  H   0.998        C  377 0.966
   383  H   0.996        C  378 0.984
   384  H   0.999        C  378 0.985
   385  H   0.998        C  378 0.985
   386  H   0.997        C  379 0.984
   387  H   0.998        C  379 0.986
   388  H   0.998        C  379 0.983
   389  N   3.475        C  375 1.307    C  390 0.976    H  403 0.923    O  376 0.196
   390  C   3.955        N  389 0.976    C  393 0.956    H  404 0.951    C  391 0.927
   391  C   3.950        O  392 1.606    N  413 1.325    C  390 0.927
   392  O   1.929        C  391 1.606    N  413 0.201
   393  C   3.986        C  394 1.015    H  406 0.970    H  405 0.963    C  390 0.956
   394  C   3.972        C  395 1.571    C  396 1.206    C  393 1.015
   395  C   3.958        C  394 1.571    N  397 1.217    H  407 0.969
   396  C   3.985        C  399 1.333    C  398 1.237    C  394 1.206
   397  N   3.560        C  395 1.217    C  398 1.189    H  408 0.932
   398  C   3.958        C  400 1.322    C  396 1.237    N  397 1.189
   399  C   3.992        C  401 1.499    C  396 1.333    H  409 0.964    C  400 0.109
   400  C   3.986        C  402 1.464    C  398 1.322    H  410 0.965    C  399 0.109
   401  C   3.991        C  399 1.499    C  402 1.368    H  411 0.970
   402  C   3.989        C  400 1.464    C  401 1.368    H  412 0.968
   403  H   0.958        N  389 0.923
   404  H   0.994        C  390 0.951
   405  H   0.994        C  393 0.963
   406  H   0.996        C  393 0.970
   407  H   0.998        C  395 0.969
   408  H   0.961        N  397 0.932
   409  H   0.998        C  399 0.964
   410  H   0.996        C  400 0.965
   411  H   0.998        C  401 0.970
   412  H   0.997        C  402 0.968
   413  N   3.489        C  391 1.325    C  414 0.986    H  421 0.884    O  392 0.201
   414  C   3.955        N  413 0.986    H  422 0.966    C  417 0.956    C  415 0.884
   415  C   3.940        O  420 1.564    O  416 1.433    C  414 0.884
   416  O   1.856        C  415 1.433    O  420 0.213
   417  C   3.964        O  418 1.002    C  419 1.001    H  423 0.957    C  414 0.956
   418  O   1.927        C  417 1.002    H  424 0.827
   419  C   3.995        C  417 1.001    H  426 0.986    H  427 0.986    H  425 0.984
   420  O   1.867        C  415 1.564    O  416 0.213
   421  H   0.946        N  413 0.884
   422  H   0.999        C  414 0.966
   423  H   0.999        C  417 0.957
   424  H   0.892        O  418 0.827
   425  H   0.996        C  419 0.984
   426  H   0.998        C  419 0.986
   427  H   0.998        C  419 0.986
   428  H   0.994        C   48 0.954
   429  H   0.968        N   65 0.957
   430  H   0.995        C   87 0.953
   431  H   0.966        N  104 0.949
   432  H   0.995        C  106 0.955
   433  H   0.971        N  128 0.957
   434  H   0.992        C  276 0.951
   435  H   0.972        N  288 0.959
   436  H   0.994        C  290 0.953
   437  H   0.966        N  312 0.956
   438  H   0.995        C  334 0.955
   439  H   0.968        N  347 0.947
 
molecular dipole:
                 x           y           z       tot (Debye)
 q only:       40.502      18.104      41.402
   full:       39.784      19.410      42.235     155.513
molecular quadrupole (traceless):
                xx          xy          yy          xz          yz          zz
 q only:      778.107     695.611   -1244.231    2879.971    1148.150     466.124
  q+dip:      654.245     736.874   -1197.907    2878.769    1285.268     543.661
   full:      653.515     741.231   -1194.133    2877.136    1283.555     540.618


           -------------------------------------------------
          | TOTAL ENERGY             -670.424169583379 Eh   |
          | GRADIENT NORM               0.543296535206 Eh/α |
          | HOMO-LUMO GAP               1.502157859428 eV   |
           -------------------------------------------------

------------------------------------------------------------------------
 * finished run on 2019/05/31 at 02:07:13.933     
------------------------------------------------------------------------
 total:
 * wall-time:     0 d,  0 h,  0 min, 10.065 sec
 *  cpu-time:     0 d,  0 h,  0 min, 39.671 sec
 * ratio c/w:     3.942 speedup
 SCF:
 * wall-time:     0 d,  0 h,  0 min,  9.509 sec
 *  cpu-time:     0 d,  0 h,  0 min, 37.768 sec
 * ratio c/w:     3.972 speedup

