      -----------------------------------------------------------      
     |                   =====================                   |     
     |                           x T B                           |     
     |                   =====================                   |     
     |                         S. Grimme                         |     
     |          Mulliken Center for Theoretical Chemistry        |     
     |                    University of Bonn                     |     
     |                Version 6.1 RC1 (SAW190329)                |     
      -----------------------------------------------------------      

   This program is distributed in the hope that it will be useful,
   but WITHOUT ANY WARRANTY; without even the implied warranty of
   MERCHANTABILITY or FITNESS FOR A PARTICULAR PURPOSE.
   
   FOR NON-COMMERCIAL, ACADEMIA USE ONLY.
   
   Cite this work as:
   S. Grimme, C. Bannwarth, P. Shushkov, J. Comput. Theory Chem., 2017,
   13, 1989-2009. DOI: 10.1021/acs.jctc.7b00118
   C. Bannwarth, S. Ehlert and S. Grimme., J. Comput. Theory Chem., 2019,
   just accepted. DOI: 10.1021/acs.jctc.8b01176
   
   for sTDA-xTB:
   S. Grimme and C. Bannwarth, J. Chem. Phys., 2016, 145, 054103.
   DOI: 10.1063/1.4959605
   
   in the mass-spec context:
   V. Asgeirsson, C. Bauer and S. Grimme, Chem. Sci., 2017, 8, 4879.
   DOI: 10.1039/c7sc00601b
   
   for metadynamics refer to:
   S. Grimme, ChemRxiv, Preprint. DOI: 10.26434/chemrxiv.7660532.v1
   
   with help from (in alphabetical order)
   C. Bannwarth, F. Bohle, G. Brandenburg, E. Caldeweyher, M. Checinski,
   S. Dohm, S. Ehlert, S. Ehrlich, F. März, H. Neugebauer, J. Pisarek,
   P. Pracht, P. Shushkov, and S. Spicher.
   
 * started run on 2019/05/31 at 05:35:03.084     

           -------------------------------------------------
          |                Calculation Setup                |
           -------------------------------------------------

          program call               : /home/lum/install/xtb/xtb-190329/bin/xtb xtb_tmp.xyz --chrg -1 --grad --gfn 2 --etemp 500 --acc 0.1 --gbsa h2o --parallel 2
          hostname                   : cpu02
          coordinate file            : xtb_tmp.xyz
          omp threads                :                     2
          number of atoms            :                   434
          number of electrons        :                  1172
          charge                     :                    -1
          spin                       :                   0.0
          first test random number   :      0.59995180880460


molecular fragmentation (1/2 indicates fragments):
111111111111111111111111111111111111111111111111111111111112222222222222
222222222222222222222222222222222222222222222222222222222222222222222222
222222222222222222222222222222222222222222222222222222222222222222222222
222222222222222222222222222222222222222222222222222222222222222222222222
222222222222222222222222222222222222222222222222222222222222222222222222
222222222222222222222222222222222222222222222222222222112222222222222222
22
# atoms in fragment 1/2:    61   373
 fragment masses (1/2) :      444.46     2501.98
CMA distance (Bohr)    :  25.180
constraining FC (au)   :  0.0500

########################################################################
# WARNING! Please study the warnings concerning your input carefully
#  - XTBPATH is not set, using XTBHOME instead
#  - Process number higher than OMP_NUM_THREADS, I hope you know what you are doing.
########################################################################

           ------------------------------------------------- 
          |                 G F N 2 - x T B                 |
          | Geometry, Frequencies, Noncovalent interactions |
          |            JCTC 2018 parametrisation            |
           ------------------------------------------------- 
 
             k(s)              :                1.8500
             k(p)              :                2.2300
             k(d)              :                2.2300
             k(f)              :                2.0000
             kEN (H0ij)        :               -2.0000
             D4 a1             :                0.5200
             D4 a2             :                5.0000
             D4 s6             :                1.0000
             D4 s8             :                2.7000
             D4 s9             :                5.0000
             alphaj            :                2.0000

  Z AO/shell   Hii/eV     exponent
  1     Wed Apr 25 08:07:45 CEST 2018   EN: 2.200 GM2: 0.406  GM3: 0.0800  RAES: 1.40
     1s    -10.707211    1.230000
  6     Wed Apr 25 08:07:45 CEST 2018   EN: 2.550 GM2: 0.538  GM3: 0.1500  RAES: 3.00
     2s    -13.970922    2.096432
     2p    -10.063292    1.800000
  7     Wed Apr 25 08:07:45 CEST 2018   EN: 3.040 GM2: 0.461  GM3:-0.0640  RAES: 1.90
     2s    -16.686243    2.339881
     2p    -12.523956    2.014332
  8     Wed Apr 25 08:07:45 CEST 2018   EN: 3.440 GM2: 0.452  GM3:-0.0517  RAES: 1.80
     2s    -20.229985    2.439742
     2p    -15.503117    2.137023

 Solvent             : h2o
 Using internal parameter file: .param_gbsa2_h2o
 Gsolv ref. state (COSMO-RS): gsolv [1 M gas/solution]
 temperature (mdtemp)       :    298.150000000000     
 dielectric constant        :    80.2000000000000     
 rho                        :    1.00000000000000     
 mass                       :    18.0000000000000     
 surface tension            :    15.5689454083859     
 probe radius               :   0.975313790000000     
 vdW radii scaling          :    1.00000000000000     
 Gshift (Eh)                :   1.857443126794793E-003
 c1                         :    1.55243817000000     
 soset                      :   0.130326360000000     
 HB correction              :  T
 Number of grid points      :          230

            Z     q(EN)     CN     RAES       Cart. coordinates
     1  N   5.0   -0.71    3.00    1.93   296.87125   117.15032   198.71049
     2  C   4.0    0.07    3.99    3.60   299.38571   117.60362   199.67418
     3  C   4.0    0.28    3.01    3.02   301.42802   117.71281   197.62898
     4  O   6.0   -0.43    1.00    1.80   303.42373   118.80052   198.02250
     5  C   4.0   -0.10    3.98    3.59   300.09108   115.48181   201.51673
     6  C   4.0    0.32    2.99    3.02   299.62535   112.93194   200.11548
     7  O   6.0   -0.41    1.00    1.80   297.40340   112.15062   200.09382
     8  O   6.0   -0.45    1.00    1.80   301.47127   111.95411   199.03469
     9  H   1.0    0.30    1.00    1.43   296.02859   115.53574   199.32826
    10  H   1.0    0.10    0.99    1.43   299.45715   119.43992   200.65157
    11  H   1.0    0.12    0.99    1.43   302.06966   115.66245   202.05889
    12  H   1.0    0.11    0.99    1.43   298.88374   115.56645   203.18717
    13  N   5.0   -0.47    3.00    1.93   300.85339   116.58637   195.43140
    14  C   4.0    0.09    3.99    3.61   302.73144   116.16587   193.50031
    15  C   4.0    0.27    3.00    3.02   301.98084   117.37322   190.97717
    16  O   6.0   -0.44    1.00    1.80   303.00445   116.78503   188.98896
    17  C   4.0    0.05    3.97    3.58   303.37688   113.30915   193.15632
    18  O   6.0   -0.46    1.99    1.82   301.30584   111.76915   193.80123
    19  C   4.0   -0.20    3.98    3.58   305.73615   112.59227   194.64776
    20  H   1.0    0.29    1.00    1.43   299.28171   115.49755   195.40221
    21  H   1.0    0.14    0.99    1.43   304.44285   117.14889   194.13883
    22  H   1.0    0.14    0.99    1.43   303.70330   112.99689   191.13056
    23  H   1.0    0.32    0.99    1.43   301.27442   111.61130   195.64948
    24  H   1.0    0.12    0.99    1.43   306.17479   110.60913   194.33993
    25  H   1.0    0.12    0.99    1.43   307.35351   113.72212   194.08610
    26  H   1.0    0.15    0.99    1.43   305.38386   112.86391   196.65548
    27  N   5.0   -0.47    3.01    1.93   300.18498   119.13636   191.13464
    28  C   4.0    0.07    3.99    3.60   299.36467   120.64313   188.98504
    29  C   4.0    0.28    3.01    3.02   301.54834   122.36811   188.16288
    30  O   6.0   -0.41    1.00    1.80   302.47085   123.92343   189.61153
    31  C   4.0   -0.14    3.99    3.60   297.07111   122.19239   189.81091
    32  C   4.0   -0.10    3.98    3.58   296.07039   124.02518   187.80720
    33  C   4.0   -0.22    3.98    3.59   295.18498   122.65118   185.43412
    34  C   4.0   -0.23    3.99    3.60   293.88506   125.54182   188.92805
    35  H   1.0    0.26    1.00    1.43   299.49481   119.63990   192.84898
    36  H   1.0    0.14    0.99    1.43   298.91497   119.35262   187.43740
    37  H   1.0    0.10    0.99    1.43   295.58079   120.88465   190.38002
    38  H   1.0    0.12    0.99    1.43   297.62657   123.25854   191.48927
    39  H   1.0    0.13    0.99    1.43   297.60481   125.31904   187.29791
    40  H   1.0    0.10    0.99    1.43   294.37376   124.00460   184.12085
    41  H   1.0    0.12    0.99    1.43   296.75426   121.70595   184.51134
    42  H   1.0    0.10    0.99    1.43   293.74979   121.26705   185.92945
    43  H   1.0    0.10    0.99    1.43   293.24169   126.96575   187.59674
    44  H   1.0    0.10    0.99    1.43   292.31251   124.29202   189.36021
    45  H   1.0    0.10    0.99    1.43   294.46394   126.47035   190.66505
    46  N   5.0   -0.49    3.01    1.93   302.30510   122.08302   185.76420
    47  C   4.0    0.07    3.99    3.61   304.47337   123.42145   184.78825
    48  C   4.0    0.08    3.00    3.02   304.15889   124.01238   181.97611
    49  O   6.0   -0.41    1.00    1.80   303.44661   122.39778   180.47614
    50  C   4.0   -0.09    3.99    3.60   306.89394   121.82429   185.12000
    51  C   4.0    0.26    3.00    3.02   309.14798   123.42350   184.38367
    52  O   6.0   -0.37    1.00    1.80   309.84415   123.59884   182.17905
    53  N   5.0   -0.65    3.00    1.93   310.24428   124.67227   186.27858
    54  H   1.0    0.29    1.00    1.43   301.67020   120.59114   184.72949
    55  H   1.0    0.13    0.99    1.43   304.64975   125.18318   185.85260
    56  H   1.0    0.12    0.99    1.43   307.02440   121.21763   187.08143
    57  H   1.0    0.13    0.99    1.43   306.79996   120.16671   183.89447
    58  H   1.0    0.28    1.00    1.43   311.69510   125.89931   185.96199
    59  H   1.0    0.26    1.00    1.43   309.55866   124.53968   188.04505
    60  N   5.0   -0.70    3.00    1.93   339.94307   113.47208   215.88923
    61  C   4.0    0.06    3.98    3.59   340.34161   112.62675   213.31324
    62  C   4.0    0.27    3.01    3.02   340.98921   114.94583   211.68534
    63  O   6.0   -0.41    1.00    1.80   340.77636   117.09194   212.51530
    64  C   4.0   -0.22    3.98    3.59   338.00590   111.22203   212.34886
    65  H   1.0    0.29    1.00    1.43   339.04682   115.15281   216.04858
    66  H   1.0    0.11    0.99    1.43   341.97153   111.34960   213.33223
    67  H   1.0    0.11    0.99    1.43   338.14379   110.80647   210.34656
    68  H   1.0    0.10    0.99    1.43   337.80553   109.44365   213.35247
    69  H   1.0    0.11    0.99    1.43   336.32938   112.36551   212.65442
    70  N   5.0   -0.48    3.01    1.93   341.91466   114.36588   209.40389
    71  C   4.0    0.06    3.98    3.59   342.89228   116.17431   207.60937
    72  C   4.0    0.06    3.00    3.02   340.84891   116.91798   205.69166
    73  O   6.0   -0.41    1.00    1.80   339.06702   115.53417   205.20573
    74  C   4.0   -0.14    3.99    3.60   345.13083   115.01124   206.17693
    75  C   4.0   -0.10    3.98    3.58   347.19363   113.88631   207.88041
    76  C   4.0   -0.24    3.98    3.59   349.29787   112.78552   206.23503
    77  C   4.0   -0.22    3.98    3.59   348.26255   115.84213   209.70875
    78  H   1.0    0.23    1.00    1.43   341.84084   112.55311   208.81887
    79  H   1.0    0.12    0.99    1.43   343.45580   117.86553   208.65299
    80  H   1.0    0.11    0.99    1.43   344.39507   113.51755   204.95754
    81  H   1.0    0.09    0.99    1.43   345.94634   116.47956   204.98747
    82  H   1.0    0.11    0.99    1.43   346.37369   112.35403   209.00212
    83  H   1.0    0.09    0.99    1.43   350.70140   111.84502   207.40653
    84  H   1.0    0.10    0.99    1.43   348.53789   111.40876   204.91543
    85  H   1.0    0.10    0.99    1.43   350.22804   114.27923   205.17662
    86  H   1.0    0.10    0.99    1.43   349.81327   115.02812   210.78428
    87  H   1.0    0.10    0.99    1.43   348.95652   117.48960   208.69669
    88  H   1.0    0.12    0.99    1.43   346.83372   116.46030   211.05083
    89  N   5.0   -0.72    3.00    1.92   326.52835   118.74453   186.80609
    90  C   4.0    0.01    3.98    3.58   323.90020   119.45944   187.02952
    91  C   4.0    0.06    2.99    3.02   322.66705   120.16660   184.49645
    92  O   6.0   -0.39    1.00    1.80   323.77051   120.00710   182.48173
    93  H   1.0    0.27    1.00    1.43   326.91410   116.95874   186.25842
    94  H   1.0    0.12    0.99    1.43   322.84919   117.90161   187.88252
    95  H   1.0    0.11    0.99    1.43   323.79958   121.10569   188.27859
    96  N   5.0   -0.69    3.00    1.93   331.16627   120.43924   197.96185
    97  C   4.0    0.08    3.99    3.60   329.86418   118.15969   198.70809
    98  C   4.0    0.27    3.02    3.02   331.60832   116.70508   200.49047
    99  O   6.0   -0.40    1.00    1.80   333.89025   117.07786   200.55392
   100  C   4.0   -0.09    3.98    3.58   329.06575   116.54052   196.40862
   101  C   4.0   -0.23    3.98    3.59   327.40053   118.09377   194.63510
   102  C   4.0   -0.21    3.98    3.59   331.36637   115.51828   195.00298
   103  H   1.0    0.27    1.00    1.43   332.90362   120.23497   197.15996
   104  H   1.0    0.13    0.99    1.43   328.17510   118.75485   199.75035
   105  H   1.0    0.13    0.99    1.43   327.96905   114.95036   197.15318
   106  H   1.0    0.11    0.99    1.43   326.71108   116.91282   193.10521
   107  H   1.0    0.10    0.99    1.43   325.78677   118.87638   195.63907
   108  H   1.0    0.10    0.99    1.43   328.47038   119.65947   193.83515
   109  H   1.0    0.10    0.99    1.43   330.76335   114.39896   193.39321
   110  H   1.0    0.11    0.99    1.43   332.52802   117.06899   194.31791
   111  H   1.0    0.13    0.99    1.43   332.48367   114.34203   196.26039
   112  N   5.0   -0.49    3.01    1.93   330.47210   114.96529   201.93368
   113  C   4.0    0.09    4.00    3.62   331.90984   113.65376   203.85821
   114  C   4.0    0.27    3.01    3.02   330.99608   110.94170   204.15741
   115  O   6.0   -0.45    1.00    1.80   328.75619   110.40379   204.30448
   116  C   4.0   -0.08    3.98    3.58   331.77878   115.07254   206.41467
   117  C   4.0   -0.21    3.98    3.59   329.10506   115.11629   207.49683
   118  C   4.0   -0.22    3.98    3.59   333.66814   113.92889   208.26387
   119  H   1.0    0.29    1.00    1.43   328.55986   114.83853   201.95589
   120  H   1.0    0.14    0.99    1.43   333.88427   113.68845   203.23710
   121  H   1.0    0.14    0.99    1.43   332.37060   117.01645   206.00368
   122  H   1.0    0.09    0.99    1.43   329.05525   116.20852   209.23842
   123  H   1.0    0.14    0.99    1.43   327.80619   115.98124   206.15841
   124  H   1.0    0.12    0.99    1.43   328.46596   113.20877   207.91065
   125  H   1.0    0.10    0.99    1.43   333.65654   115.00588   210.01048
   126  H   1.0    0.12    0.99    1.43   333.20740   111.97191   208.68869
   127  H   1.0    0.14    0.99    1.43   335.56065   114.04004   207.47172
   128  N   5.0   -0.51    3.01    1.93   332.84900   109.21126   204.27875
   129  C   4.0    0.10    3.99    3.61   332.36551   106.56324   204.75878
   130  C   4.0    0.29    3.01    3.02   332.51477   106.01669   207.61165
   131  O   6.0   -0.44    1.00    1.80   334.43282   106.46694   208.81913
   132  C   4.0   -0.01    3.98    3.59   334.33994   104.91997   203.42540
   133  O   6.0   -0.46    1.99    1.82   333.69858   102.37182   203.84399
   134  H   1.0    0.23    1.00    1.43   334.66113   109.79350   204.40000
   135  H   1.0    0.17    0.99    1.43   330.47543   106.10534   204.06515
   136  H   1.0    0.11    0.99    1.43   334.34541   105.36787   201.39906
   137  H   1.0    0.12    0.99    1.43   336.20596   105.34781   204.23300
   138  H   1.0    0.25    0.99    1.43   334.94136   101.30622   203.03821
   139  N   5.0   -0.48    3.01    1.93   330.39846   105.06008   208.58605
   140  C   4.0    0.07    3.99    3.60   330.16567   104.23436   211.18839
   141  C   4.0    0.07    3.00    3.02   328.95685   101.60922   211.07742
   142  O   6.0   -0.43    1.00    1.80   326.90625   101.26481   210.06682
   143  C   4.0   -0.07    3.98    3.58   328.53087   106.06052   212.77570
   144  C   4.0   -0.15    3.98    3.59   329.63542   108.73578   212.63490
   145  C   4.0   -0.23    3.98    3.59   328.34590   105.10948   215.49256
   146  C   4.0   -0.24    3.98    3.58   328.14392   110.68786   214.14300
   147  H   1.0    0.30    1.00    1.43   328.87369   104.77621   207.45709
   148  H   1.0    0.12    0.99    1.43   332.07648   104.15837   211.97392
   149  H   1.0    0.13    0.99    1.43   326.64646   106.08007   211.92721
   150  H   1.0    0.11    0.99    1.43   331.58641   108.70284   213.30206
   151  H   1.0    0.13    0.99    1.43   329.67111   109.31366   210.65261
   152  H   1.0    0.10    0.99    1.43   327.10090   106.32371   216.58493
   153  H   1.0    0.11    0.99    1.43   327.57304   103.20588   215.57441
   154  H   1.0    0.10    0.99    1.43   330.19278   105.11119   216.38884
   155  H   1.0    0.09    0.99    1.43   328.81630   112.57893   213.69756
   156  H   1.0    0.10    0.99    1.43   326.14245   110.59314   213.69287
   157  H   1.0    0.10    0.99    1.43   328.35671   110.40743   216.16500
   158  N   5.0   -0.70    3.00    1.92   327.09859    96.10065   208.14887
   159  C   4.0    0.02    3.98    3.59   326.69893    95.48173   205.52456
   160  C   4.0    0.27    3.00    3.02   325.10455    97.35941   204.01951
   161  O   6.0   -0.41    1.00    1.80   324.19940    96.74086   201.98362
   162  H   1.0    0.27    1.00    1.43   325.58604    96.55653   209.21769
   163  H   1.0    0.12    0.99    1.43   328.56140    95.36323   204.63159
   164  H   1.0    0.10    0.99    1.43   325.79801    93.62667   205.34360
   165  N   5.0   -0.47    3.01    1.93   324.69585    99.60641   205.10456
   166  C   4.0    0.08    4.00    3.61   323.14515   101.52313   203.92600
   167  C   4.0    0.28    3.01    3.02   324.62904   103.95156   203.44506
   168  O   6.0   -0.42    1.00    1.80   326.52214   104.49366   204.66851
   169  C   4.0   -0.13    3.99    3.60   320.85516   102.11863   205.60599
   170  C   4.0   -0.15    3.98    3.59   318.92173    99.97818   205.57170
   171  C   4.0   -0.14    3.98    3.59   316.51925   100.73804   206.98642
   172  C   4.0   -0.06    3.98    3.58   314.55865    98.63568   207.06736
   173  N   5.0   -0.73    3.98    2.82   315.35274    96.57971   208.82794
   174  H   1.0    0.31    1.00    1.43   325.64710   100.09217   206.69639
   175  H   1.0    0.16    0.99    1.43   322.51249   100.77854   202.10045
   176  H   1.0    0.14    0.99    1.43   321.53174   102.44958   207.52512
   177  H   1.0    0.12    0.99    1.43   319.96914   103.85125   204.92943
   178  H   1.0    0.13    0.99    1.43   318.45503    99.55026   203.60525
   179  H   1.0    0.12    0.99    1.43   319.80547    98.30534   206.39034
   180  H   1.0    0.14    0.99    1.43   316.97690   101.38707   208.88712
   181  H   1.0    0.11    0.99    1.43   315.68067   102.34688   206.00964
   182  H   1.0    0.12    0.99    1.43   312.75771    99.40643   207.70209
   183  H   1.0    0.11    0.99    1.43   314.32399    97.84906   205.17743
   184  H   1.0    0.23    1.00    1.43   313.98894    95.19361   208.92017
   185  H   1.0    0.24    1.00    1.43   317.01726    95.79207   208.19363
   186  H   1.0    0.24    1.00    1.43   315.64313    97.31902   210.60921
   187  N   5.0   -0.51    3.01    1.93   323.60456   105.43550   201.67419
   188  C   4.0    0.11    4.00    3.61   324.76064   107.79277   200.91743
   189  C   4.0    0.29    3.01    3.02   322.86577   109.96922   201.15871
   190  O   6.0   -0.47    1.00    1.80   320.95526   110.17582   199.86151
   191  C   4.0    0.04    3.97    3.58   325.94861   107.62828   198.25927
   192  O   6.0   -0.47    1.99    1.82   327.36323   109.87551   197.94407
   193  C   4.0   -0.19    3.98    3.58   324.04853   107.25013   196.12816
   194  H   1.0    0.28    1.00    1.43   322.20051   104.69998   200.54101
   195  H   1.0    0.18    0.99    1.43   326.31433   108.15151   202.23549
   196  H   1.0    0.12    0.99    1.43   327.23898   105.98610   198.30004
   197  H   1.0    0.24    0.99    1.43   328.11603   109.84626   196.28111
   198  H   1.0    0.10    0.99    1.43   325.03223   106.98590   194.34245
   199  H   1.0    0.14    0.99    1.43   322.89739   105.58808   196.48851
   200  H   1.0    0.14    0.99    1.43   322.81091   108.88150   195.98454
   201  N   5.0   -0.47    3.01    1.93   323.43999   111.60948   202.99192
   202  C   4.0    0.07    3.99    3.61   321.82162   113.71162   203.65204
   203  C   4.0    0.27    3.01    3.02   322.94711   116.18985   202.66507
   204  O   6.0   -0.45    1.00    1.80   325.17652   116.37545   202.09897
   205  C   4.0   -0.13    3.99    3.60   321.56807   113.89033   206.54980
   206  C   4.0   -0.03    3.03    3.02   320.71506   111.43916   207.71522
   207  C   4.0   -0.10    3.03    3.02   318.35127   110.42286   207.18100
   208  C   4.0   -0.10    3.03    3.02   322.26745   110.17395   209.40735
   209  C   4.0   -0.08    3.03    3.02   317.55926   108.19985   208.29773
   210  C   4.0   -0.10    3.03    3.02   321.46425   107.99057   210.59038
   211  C   4.0    0.09    3.03    3.02   319.10289   106.98497   210.04646
   212  O   6.0   -0.49    1.99    1.83   318.26125   104.84139   211.18666
   213  H   1.0    0.28    1.00    1.43   325.14515   111.47623   203.85825
   214  H   1.0    0.13    0.99    1.43   319.98015   113.35576   202.77676
   215  H   1.0    0.11    0.99    1.43   323.40650   114.40381   207.33210
   216  H   1.0    0.11    0.99    1.43   320.21021   115.37088   207.01687
   217  H   1.0    0.14    1.00    1.43   317.06627   111.38105   205.91862
   218  H   1.0    0.11    1.00    1.43   324.11852   110.91673   209.83366
   219  H   1.0    0.14    0.99    1.43   315.72553   107.41880   207.85635
   220  H   1.0    0.11    0.99    1.43   322.65481   107.06435   211.96579
   221  H   1.0    0.25    0.99    1.43   319.41728   104.36197   212.52087
   222  N   5.0   -0.48    3.01    1.93   321.33500   118.15323   202.49495
   223  C   4.0    0.06    3.99    3.60   322.29354   120.70574   202.12536
   224  C   4.0    0.06    3.00    3.02   323.55993   121.57325   204.57861
   225  O   6.0   -0.46    1.00    1.80   322.53698   121.22776   206.63376
   226  C   4.0   -0.22    3.98    3.59   320.13209   122.49791   201.47972
   227  H   1.0    0.23    1.00    1.43   319.62451   118.01465   203.33058
   228  H   1.0    0.11    0.99    1.43   323.70301   120.65073   200.61591
   229  H   1.0    0.09    0.99    1.43   320.90087   124.33020   200.97186
   230  H   1.0    0.10    0.99    1.43   319.07105   121.75758   199.88720
   231  H   1.0    0.11    0.99    1.43   318.89660   122.71538   203.10691
   232  N   5.0   -0.72    3.00    1.93   319.60245   124.52557   209.78187
   233  C   4.0    0.08    3.98    3.59   317.91049   122.83299   211.09939
   234  C   4.0    0.27    3.01    3.02   319.23908   121.04570   212.96296
   235  O   6.0   -0.45    1.00    1.80   318.00529   119.81111   214.47088
   236  C   4.0   -0.15    3.98    3.59   316.41463   121.26212   209.17540
   237  C   4.0   -0.17    3.98    3.58   314.41772   122.77331   207.72101
   238  C   4.0   -0.16    3.98    3.58   312.21127   123.55258   209.43284
   239  C   4.0   -0.07    3.98    3.58   309.74346   124.09563   208.03798
   240  N   5.0   -0.72    3.98    2.81   309.91564   126.42963   206.45877
   241  H   1.0    0.30    1.00    1.43   320.50592   123.77701   208.26359
   242  H   1.0    0.11    0.99    1.43   316.65470   123.98599   212.27217
   243  H   1.0    0.12    0.99    1.43   317.79530   120.44838   207.87560
   244  H   1.0    0.11    0.99    1.43   315.52096   119.71636   210.20620
   245  H   1.0    0.10    0.99    1.43   315.34069   124.41660   206.88864
   246  H   1.0    0.10    0.99    1.43   313.71163   121.55229   206.21846
   247  H   1.0    0.10    0.99    1.43   311.83922   122.00825   210.74546
   248  H   1.0    0.10    0.99    1.43   312.75159   125.17741   210.57848
   249  H   1.0    0.11    0.99    1.43   309.24205   122.50384   206.83143
   250  H   1.0    0.10    0.99    1.43   308.24911   124.36388   209.42920
   251  H   1.0    0.23    0.99    1.43   308.13217   127.16213   206.04071
   252  H   1.0    0.23    1.00    1.43   310.91498   127.76851   207.45536
   253  H   1.0    0.23    1.00    1.43   310.86289   126.05991   204.80051
   254  N   5.0   -0.48    3.01    1.93   321.75980   120.87024   212.73378
   255  C   4.0    0.06    3.99    3.60   323.31087   119.44861   214.46284
   256  C   4.0    0.06    3.00    3.02   324.35298   121.04519   216.65029
   257  O   6.0   -0.46    1.00    1.80   324.68468   120.06069   218.72601
   258  C   4.0   -0.21    3.99    3.60   325.53059   118.25670   213.05772
   259  H   1.0    0.27    1.00    1.43   322.69762   122.00097   211.51603
   260  H   1.0    0.14    0.99    1.43   322.11114   117.99036   215.31773
   261  H   1.0    0.10    0.99    1.43   326.66357   117.15369   214.36807
   262  H   1.0    0.10    0.99    1.43   324.84049   117.04195   211.55272
   263  H   1.0    0.11    0.99    1.43   326.68989   119.75375   212.25257
   264  N   5.0   -0.68    3.00    1.93   322.19733   120.54160   223.33629
   265  C   4.0    0.07    3.98    3.59   319.92266   119.03233   223.41925
   266  C   4.0    0.08    3.00    3.02   320.40041   116.74072   225.10023
   267  O   6.0   -0.39    1.00    1.80   322.39398   115.56957   225.04688
   268  C   4.0   -0.11    3.99    3.60   319.12248   118.09819   220.79748
   269  C   4.0    0.11    3.34    3.06   316.71145   116.65100   221.01258
   270  N   5.0   -0.39    2.10    1.90   314.43342   117.81964   221.34428
   271  C   4.0    0.02    3.23    3.04   316.37238   114.08626   221.07940
   272  C   4.0    0.17    3.41    3.08   312.77338   116.00583   221.57861
   273  N   5.0   -0.48    3.13    1.94   313.84798   113.69708   221.43349
   274  H   1.0    0.33    1.00    1.43   323.26636   120.46384   221.74787
   275  H   1.0    0.11    0.99    1.43   318.41516   120.19365   224.23670
   276  H   1.0    0.14    0.99    1.43   318.86247   119.71623   219.54947
   277  H   1.0    0.13    0.99    1.43   320.59735   116.87560   220.03459
   278  H   1.0    0.12    1.00    1.43   317.68381   112.56256   220.88716
   279  H   1.0    0.11    1.00    1.43   310.79722   116.29955   221.89940
   280  H   1.0    0.23    1.00    1.43   312.99608   111.98973   221.60025
   281  N   5.0   -0.72    3.00    1.93   318.76213   110.20058   226.11539
   282  C   4.0    0.07    3.98    3.58   317.81754   107.94687   224.89624
   283  C   4.0    0.06    3.00    3.02   317.10924   105.86197   226.78457
   284  O   6.0   -0.46    1.00    1.80   316.12356   103.90701   226.03672
   285  C   4.0   -0.12    3.99    3.61   319.78737   106.87194   223.06414
   286  C   4.0   -0.05    3.03    3.02   320.07137   108.37966   220.67995
   287  C   4.0   -0.10    3.03    3.02   322.01335   110.13399   220.44424
   288  C   4.0   -0.09    3.03    3.02   318.41421   108.03518   218.66982
   289  C   4.0   -0.11    3.03    3.02   322.29096   111.53236   218.25041
   290  C   4.0   -0.10    3.03    3.02   318.70207   109.42463   216.47345
   291  C   4.0   -0.11    3.03    3.02   320.62981   111.18345   216.26008
   292  H   1.0    0.28    1.00    1.43   320.64185   110.52748   225.99878
   293  H   1.0    0.12    0.99    1.43   316.06598   108.39992   223.86969
   294  H   1.0    0.11    0.99    1.43   321.59360   106.83357   224.05583
   295  H   1.0    0.12    0.99    1.43   319.24560   104.93051   222.60435
   296  H   1.0    0.12    1.00    1.43   323.31886   110.39162   221.99125
   297  H   1.0    0.14    0.99    1.43   316.89452   106.67419   218.82678
   298  H   1.0    0.12    1.00    1.43   323.81097   112.88740   218.10840
   299  H   1.0    0.12    1.00    1.43   317.40459   109.11643   214.93048
   300  H   1.0    0.11    1.00    1.43   320.82450   112.27068   214.54603
   301  N   5.0   -0.52    3.02    1.93   310.10043   104.98088   223.94390
   302  C   4.0    0.08    4.01    3.64   311.74668   103.41287   222.40332
   303  C   4.0    0.28    3.01    3.02   311.18489   103.56391   219.58544
   304  O   6.0   -0.43    1.00    1.80   312.89114   103.74282   218.02101
   305  C   4.0   -0.13    4.01    3.64   311.34697   100.73320   223.41942
   306  C   4.0   -0.14    4.01    3.63   308.69595   100.81183   224.54865
   307  C   4.0   -0.03    4.01    3.64   308.52534   103.48013   225.62376
   308  H   1.0    0.14    0.99    1.43   313.70915   104.02617   222.64279
   309  H   1.0    0.11    0.99    1.43   311.55787    99.32489   221.93734
   310  H   1.0    0.12    0.99    1.43   312.75257   100.38828   224.88406
   311  H   1.0    0.12    0.99    1.43   307.26856   100.55435   223.08584
   312  H   1.0    0.09    0.99    1.43   308.43347    99.38880   226.00501
   313  H   1.0    0.12    0.99    1.43   306.58309   104.17366   225.63621
   314  H   1.0    0.10    0.99    1.43   309.28478   103.54807   227.54904
   315  N   5.0   -0.47    3.01    1.93   308.76561   103.23128   218.94882
   316  C   4.0    0.08    4.00    3.62   307.98768   103.29721   216.33490
   317  C   4.0    0.29    3.01    3.02   308.21672   105.98741   215.29207
   318  O   6.0   -0.37    1.00    1.80   307.65382   107.86113   216.51634
   319  C   4.0   -0.11    3.98    3.58   305.26511   102.36401   216.08896
   320  C   4.0    0.33    2.99    3.02   303.41117   103.93330   217.78009
   321  O   6.0   -0.41    1.00    1.80   303.77880   103.82463   220.10634
   322  O   6.0   -0.37    1.00    1.80   301.68888   105.09013   216.67222
   323  H   1.0    0.30    1.00    1.43   307.33106   103.52885   220.20422
   324  H   1.0    0.12    0.99    1.43   309.27342   102.06297   215.26563
   325  H   1.0    0.12    0.99    1.43   304.63700   102.49442   214.13078
   326  H   1.0    0.11    0.99    1.43   305.16761   100.40117   216.71703
   327  N   5.0   -0.49    3.01    1.93   309.08770   106.09914   212.91714
   328  C   4.0    0.07    3.99    3.60   309.42584   108.42783   211.51791
   329  C   4.0    0.26    3.01    3.02   309.60605   107.68178   208.73677
   330  O   6.0   -0.43    1.00    1.80   310.28157   105.56143   208.11052
   331  C   4.0   -0.12    3.99    3.60   311.85474   109.77200   212.40594
   332  C   4.0   -0.11    3.97    3.58   312.13719   112.53851   211.60367
   333  C   4.0   -0.22    3.98    3.59   310.03631   114.17866   212.71259
   334  C   4.0   -0.22    3.99    3.60   314.70516   113.50092   212.51304
   335  H   1.0    0.26    1.00    1.43   309.63346   104.53282   211.96503
   336  H   1.0    0.13    0.99    1.43   307.77511   109.62355   211.86731
   337  H   1.0    0.14    0.99    1.43   311.84358   109.67301   214.46842
   338  H   1.0    0.13    0.99    1.43   313.47025   108.68222   211.72776
   339  H   1.0    0.13    0.99    1.43   312.10521   112.65092   209.53701
   340  H   1.0    0.10    0.99    1.43   310.41470   116.16070   212.33965
   341  H   1.0    0.10    0.99    1.43   308.19364   113.71104   211.93154
   342  H   1.0    0.12    0.99    1.43   309.93791   113.90776   214.74840
   343  H   1.0    0.11    0.99    1.43   314.93733   115.49000   212.06586
   344  H   1.0    0.12    0.99    1.43   314.86851   113.29476   214.55155
   345  H   1.0    0.11    0.99    1.43   316.22285   112.44760   211.61565
   346  N   5.0   -0.49    3.01    1.93   308.95172   109.47593   207.07840
   347  C   4.0    0.07    3.99    3.61   309.14798   109.10646   204.37342
   348  C   4.0    0.28    3.01    3.02   311.74019   110.00799   203.42698
   349  O   6.0   -0.43    1.00    1.80   312.91624   111.68524   204.48175
   350  C   4.0   -0.20    3.99    3.59   307.09501   110.58813   202.99870
   351  H   1.0    0.23    1.00    1.43   308.54042   111.23587   207.68121
   352  H   1.0    0.13    0.99    1.43   308.96247   107.07527   204.03044
   353  H   1.0    0.12    0.99    1.43   307.27634   110.35378   200.96694
   354  H   1.0    0.12    0.99    1.43   305.22229   109.95236   203.55312
   355  H   1.0    0.12    0.99    1.43   307.27362   112.59047   203.42058
   356  N   5.0   -0.49    3.01    1.93   312.58496   108.75446   201.39636
   357  C   4.0    0.07    4.00    3.61   314.86823   109.47970   200.08210
   358  C   4.0    0.29    3.01    3.02   314.33847   111.75580   198.36575
   359  O   6.0   -0.38    1.00    1.80   312.19560   112.40079   197.78994
   360  C   4.0   -0.13    3.98    3.59   315.91985   107.24403   198.58488
   361  C   4.0   -0.11    3.98    3.58   316.66697   105.07974   200.33526
   362  C   4.0    0.30    2.99    3.02   317.86666   102.92299   198.74128
   363  O   6.0   -0.46    1.00    1.80   320.23007   102.90926   198.57772
   364  O   6.0   -0.39    1.00    1.80   316.40412   101.38894   197.73275
   365  H   1.0    0.23    1.00    1.43   311.41188   107.57905   200.46210
   366  H   1.0    0.14    0.99    1.43   316.25717   110.04138   201.50973
   367  H   1.0    0.13    0.99    1.43   314.52449   106.59113   197.20861
   368  H   1.0    0.14    0.99    1.43   317.59204   107.86231   197.55192
   369  H   1.0    0.12    0.99    1.43   318.04764   105.76865   201.70331
   370  H   1.0    0.12    0.99    1.43   315.01295   104.33878   201.31682
   371  N   5.0   -0.49    3.01    1.93   316.41716   113.03628   197.68965
   372  C   4.0    0.07    3.99    3.61   316.26942   115.15005   195.94445
   373  C   4.0    0.29    3.01    3.02   314.94622   114.34259   193.48532
   374  O   6.0   -0.39    1.00    1.80   315.07488   112.19099   192.65982
   375  C   4.0   -0.21    3.98    3.59   318.92171   116.11645   195.36278
   376  H   1.0    0.27    1.00    1.43   318.12685   112.25035   198.04922
   377  H   1.0    0.12    0.99    1.43   315.11183   116.61660   196.84104
   378  H   1.0    0.10    0.99    1.43   318.83497   117.73547   194.10520
   379  H   1.0    0.12    0.99    1.43   319.87399   116.64029   197.10547
   380  H   1.0    0.12    0.99    1.43   320.00858   114.63219   194.44559
   381  N   5.0   -0.49    3.01    1.93   313.65574   116.20078   192.31039
   382  C   4.0    0.07    3.99    3.61   312.56445   115.76912   189.82986
   383  C   4.0    0.28    3.01    3.02   314.68558   115.67846   187.85009
   384  O   6.0   -0.41    1.00    1.80   316.30959   117.31763   187.72518
   385  C   4.0   -0.21    3.98    3.59   310.70189   117.85802   189.15946
   386  H   1.0    0.23    1.00    1.43   313.90661   118.01364   192.84242
   387  H   1.0    0.13    0.99    1.43   311.60966   113.93590   189.91830
   388  H   1.0    0.11    0.99    1.43   309.74950   117.40973   187.39613
   389  H   1.0    0.12    0.99    1.43   309.29219   118.04277   190.64101
   390  H   1.0    0.13    0.99    1.43   311.69844   119.64289   188.92949
   391  N   5.0   -0.50    3.01    1.93   314.56226   113.70495   186.26434
   392  C   4.0    0.07    3.99    3.60   316.52122   113.11908   184.44539
   393  C   4.0    0.07    3.00    3.02   315.67849   113.45053   181.69668
   394  O   6.0   -0.39    1.00    1.80   317.20681   113.23829   179.97103
   395  C   4.0   -0.20    3.99    3.60   317.39647   110.38796   184.81845
   396  H   1.0    0.23    1.00    1.43   313.31872   112.30438   186.63736
   397  H   1.0    0.16    0.99    1.43   318.07901   114.44270   184.78458
   398  H   1.0    0.12    0.99    1.43   318.98422   109.97934   183.58776
   399  H   1.0    0.12    0.99    1.43   317.96750   110.10812   186.77139
   400  H   1.0    0.11    0.99    1.43   315.85459   109.09984   184.38322
   401  N   5.0   -0.66    3.00    1.93   302.23899   117.22140   178.88852
   402  C   4.0    0.08    3.98    3.58   300.01850   115.74570   179.51707
   403  C   4.0    0.06    3.00    3.02   298.20748   115.62408   177.25606
   404  O   6.0   -0.39    1.00    1.80   297.38655   117.53594   176.26089
   405  C   4.0    0.05    3.98    3.59   298.57896   117.00115   181.72268
   406  O   6.0   -0.52    1.99    1.82   300.22006   117.63401   183.71680
   407  C   4.0   -0.22    3.98    3.59   296.40937   115.32925   182.62949
   408  H   1.0    0.33    1.00    1.43   302.34609   119.03673   179.50131
   409  H   1.0    0.10    0.99    1.43   300.65219   113.84027   180.02838
   410  H   1.0    0.14    0.99    1.43   297.85931   118.81673   181.03369
   411  H   1.0    0.28    0.99    1.43   301.00096   116.14190   184.42792
   412  H   1.0    0.11    0.99    1.43   295.43849   116.27491   184.17270
   413  H   1.0    0.10    0.99    1.43   295.08586   114.99605   181.09682
   414  H   1.0    0.10    0.99    1.43   297.16811   113.54556   183.31129
   415  H   1.0    0.29    1.00    1.43   295.84890   118.43048   199.16716
   416  H   1.0    0.14    1.00    1.43   304.53708   125.74634   181.32692
   417  H   1.0    0.29    1.00    1.43   338.99670   112.33004   216.72151
   418  H   1.0    0.12    1.00    1.43   340.95248   118.57931   204.79706
   419  H   1.0    0.32    1.00    1.43   327.29179   119.73986   185.65760
   420  H   1.0    0.14    1.00    1.43   320.88326   120.78905   184.45513
   421  H   1.0    0.28    1.00    1.43   330.23166   121.27712   196.81424
   422  H   1.0    0.12    1.00    1.43   329.84526   100.12683   211.84181
   423  H   1.0    0.29    1.00    1.43   327.80661    94.77410   208.94357
   424  H   1.0    0.12    1.00    1.43   325.24154   122.43343   204.52096
   425  H   1.0    0.29    1.00    1.43   318.72907   125.86627   209.20543
   426  H   1.0    0.13    1.00    1.43   324.75590   122.87140   216.37881
   427  H   1.0    0.29    1.00    1.43   321.79594   122.18401   223.52053
   428  H   1.0    0.12    1.00    1.43   319.06139   116.15036   226.29587
   429  H   1.0    0.30    1.00    1.43   318.01763   111.56934   225.43365
   430  H   1.0    0.14    1.00    1.43   317.45283   106.09983   228.62751
   431  H   1.0    0.28    1.00    1.43   311.03495   106.11435   224.80092
   432  H   1.0    0.14    1.00    1.43   313.87226   113.84236   181.30288
   433  H   1.0    0.30    1.00    1.43   303.62168   116.46891   179.53233
   434  H   1.0    0.12    1.00    1.43   297.67231   113.94941   176.56314

           ------------------------------------------------- 
          |        Self-Consistent Charge Iterations        |
           ------------------------------------------------- 

          ...................................................
          :                      SETUP                      :
          :.................................................:
          :  # basis functions                1055          :
          :  # atomic orbitals                1055          :
          :  # shells                          641          :
          :  # electrons                      1172          :
          :  max. iterations                   250          :
          :  Hamiltonian                  GFN2-xTB          :
          :  restarted?                      false          :
          :  GBSA solvation                   true          :
          :  PC potential                    false          :
          :  electronic temp.          500.0000000     K    :
          :  accuracy                    0.1000000          :
          :  -> integral cutoff          0.3500000E+02      :
          :  -> integral neglect         0.1000000E-08      :
          :  -> SCF convergence          0.1000000E-06 Eh   :
          :  -> wf. convergence          0.1000000E-04 e    :
          :  Broyden damping             0.4000000          :
          ...................................................

 iter      E             dE          RMSdq      gap      omega  full diag
   1   -671.2459530 -0.671246E+03  0.429E+00    1.99       0.0  T
   2   -673.0655858 -0.181963E+01  0.219E+00    1.45       1.0  T
   3   -673.1319758 -0.663900E-01  0.122E+00    1.67       1.0  T
   4   -673.1610617 -0.290859E-01  0.306E-01    1.09       1.0  T
   5   -673.1829016 -0.218399E-01  0.112E-01    1.25       1.0  T
   6   -673.1836050 -0.703449E-03  0.577E-02    1.27       1.0  T
   7   -673.1838570 -0.252002E-03  0.268E-02    1.30       1.0  T
   8   -673.1839399 -0.828945E-04  0.821E-03    1.32       1.0  T
   9   -673.1839452 -0.526577E-05  0.431E-03    1.32       1.1  T
  10   -673.1839467 -0.147498E-05  0.174E-03    1.32       2.8  T
  11   -673.1839469 -0.220639E-06  0.800E-04    1.32       6.0  T
  12   -673.1839469 -0.708468E-07  0.387E-04    1.32      12.4  T
  13   -673.1839470 -0.157415E-07  0.189E-04    1.32      25.5  T
  14   -673.1839470 -0.329487E-08  0.905E-05    1.32      53.0  T
  15   -673.1839470 -0.874252E-09  0.366E-05    1.32     131.1  T

   *** convergence criteria satisfied after 15 iterations ***

         #    Occupation            Energy/Eh            Energy/eV
      -------------------------------------------------------------
         1        2.0000           -0.7391405             -20.1130
       ...           ...                  ...                  ...
       580        2.0000           -0.3623825              -9.8609
       581        2.0000           -0.3608821              -9.8201
       582        2.0000           -0.3594671              -9.7816
       583        2.0000           -0.3584471              -9.7538
       584        2.0000           -0.3547878              -9.6543
       585        2.0000           -0.3529226              -9.6035
       586        2.0000           -0.3480802              -9.4717 (HOMO)
       587        0.0000           -0.2995726              -8.1518 (LUMO)
       588        0.0000           -0.2986078              -8.1255
       589                         -0.2942654              -8.0074
       590                         -0.2924374              -7.9576
       591                         -0.2891923              -7.8693
       ...                                ...                  ...
      1055                          0.6656360              18.1129
      -------------------------------------------------------------
                  HL-Gap            0.0485077 Eh            1.3200 eV
             Fermi-level           -0.3241455 Eh           -8.8204 eV

 SCC (total)                   0 d,  0 h,  0 min,  7.532 sec
 SCC setup                      ...        0 min,  0.104 sec (  1.378%)
 Dispersion                     ...        0 min,  0.123 sec (  1.637%)
 integral evaluation            ...        0 min,  0.202 sec (  2.686%)
 zeroth order Hamiltonian       ...        0 min,  0.004 sec (  0.054%)
 iterations                     ...        0 min,  6.086 sec ( 80.802%)
 molecular gradient             ...        0 min,  0.973 sec ( 12.919%)
 printout                       ...        0 min,  0.039 sec (  0.524%)

         :::::::::::::::::::::::::::::::::::::::::::::::::::::
         ::                     SUMMARY                     ::
         :::::::::::::::::::::::::::::::::::::::::::::::::::::
         :: total energy             -665.008599465977 Eh   ::
         :: total w/o Gsasa/hb       -664.918915666522 Eh   ::
         :: gradient norm               0.703035525613 Eh/α ::
         :: HOMO-LUMO gap               1.319960848054 eV   ::
         ::.................................................::
         :: SCC energy               -673.203897845864 Eh   ::
         :: -> isotropic ES             2.175660243104 Eh   ::
         :: -> anisotropic ES          -0.048140687983 Eh   ::
         :: -> anisotropic XC           0.227843544287 Eh   ::
         :: -> dispersion              -0.516949413407 Eh   ::
         :: -> Gsolv                   -0.570730689853 Eh   ::
         ::    -> Gborn                -0.481046890399 Eh   ::
         ::    -> Gsasa                -0.021808319368 Eh   ::
         ::    -> Ghb                  -0.069732923213 Eh   ::
         ::    -> Gshift                0.001857443127 Eh   ::
         :: repulsion energy            8.155029169837 Eh   ::
         :: add. restraining            0.000000000000 Eh   ::
         :::::::::::::::::::::::::::::::::::::::::::::::::::::

           -------------------------------------------------
          |                Property Printout                |
           -------------------------------------------------

    * Orbital Energies and Occupations

         #    Occupation            Energy/Eh            Energy/eV
      -------------------------------------------------------------
         1        2.0000           -0.7391405             -20.1130
       ...           ...                  ...                  ...
       574        2.0000           -0.3733516             -10.1594
       575        2.0000           -0.3726494             -10.1403
       576        2.0000           -0.3681677             -10.0184
       577        2.0000           -0.3679858             -10.0134
       578        2.0000           -0.3675339             -10.0011
       579        2.0000           -0.3632284              -9.8839
       580        2.0000           -0.3623825              -9.8609
       581        2.0000           -0.3608821              -9.8201
       582        2.0000           -0.3594671              -9.7816
       583        2.0000           -0.3584471              -9.7538
       584        2.0000           -0.3547878              -9.6543
       585        2.0000           -0.3529226              -9.6035
       586        2.0000           -0.3480802              -9.4717 (HOMO)
       587        0.0000           -0.2995726              -8.1518 (LUMO)
       588        0.0000           -0.2986078              -8.1255
       589                         -0.2942654              -8.0074
       590                         -0.2924374              -7.9576
       591                         -0.2891923              -7.8693
       592                         -0.2884498              -7.8491
       593                         -0.2862891              -7.7903
       594                         -0.2831515              -7.7049
       595                         -0.2757260              -7.5029
       596                         -0.2746042              -7.4724
       597                         -0.2394643              -6.5162
       ...                                ...                  ...
      1055                          0.6656360              18.1129
      -------------------------------------------------------------
                  HL-Gap            0.0485077 Eh            1.3200 eV
             Fermi-level           -0.3241455 Eh           -8.8204 eV

   #   Z        covCN         q      C6AA      α(0)
   1   7 N      2.635    -0.414    30.773     8.239
   2   6 C      3.789     0.045    19.824     6.341
   3   6 C      2.758     0.272    22.397     7.750
   4   8 O      0.858    -0.489    23.543     6.505
   5   6 C      3.806    -0.092    22.252     6.715
   6   6 C      2.687     0.373    20.681     7.442
   7   8 O      0.856    -0.631    26.895     6.953
   8   8 O      0.856    -0.629    26.839     6.946
   9   1 H      0.860     0.167     1.292     1.780
  10   1 H      0.923     0.036     2.500     2.473
  11   1 H      0.925     0.021     2.722     2.580
  12   1 H      0.924     0.024     2.669     2.555
  13   7 N      2.687    -0.178    24.851     7.404
  14   6 C      3.795     0.005    20.504     6.448
  15   6 C      2.752     0.264    22.550     7.776
  16   8 O      0.859    -0.482    23.400     6.486
  17   6 C      3.723     0.120    18.729     6.180
  18   8 O      1.653    -0.492    22.731     6.436
  19   6 C      3.752    -0.121    22.880     6.821
  20   1 H      0.860     0.201     1.100     1.643
  21   1 H      0.924     0.086     1.919     2.167
  22   1 H      0.923     0.056     2.250     2.346
  23   1 H      0.803     0.318     0.669     1.285
  24   1 H      0.925     0.046     2.366     2.405
  25   1 H      0.925     0.051     2.305     2.374
  26   1 H      0.925     0.047     2.353     2.399
  27   7 N      2.693    -0.166    24.598     7.366
  28   6 C      3.793     0.013    20.374     6.428
  29   6 C      2.757     0.277    22.322     7.737
  30   8 O      0.858    -0.483    23.412     6.487
  31   6 C      3.812    -0.075    21.924     6.665
  32   6 C      3.849    -0.009    20.712     6.473
  33   6 C      3.756    -0.121    22.881     6.820
  34   6 C      3.758    -0.119    22.830     6.812
  35   1 H      0.860     0.200     1.105     1.647
  36   1 H      0.924     0.083     1.948     2.182
  37   1 H      0.924     0.057     2.234     2.338
  38   1 H      0.924     0.055     2.254     2.348
  39   1 H      0.924     0.031     2.574     2.509
  40   1 H      0.925     0.050     2.314     2.379
  41   1 H      0.925     0.038     2.482     2.464
  42   1 H      0.925     0.045     2.378     2.411
  43   1 H      0.925     0.050     2.324     2.384
  44   1 H      0.925     0.046     2.372     2.409
  45   1 H      0.925     0.042     2.423     2.434
  46   7 N      2.689    -0.175    24.793     7.395
  47   6 C      3.797     0.033    20.027     6.372
  48   6 C      2.767     0.205    23.649     7.964
  49   8 O      0.856    -0.340    20.521     6.074
  50   6 C      3.811    -0.101    22.408     6.738
  51   6 C      2.747     0.287    22.128     7.702
  52   8 O      0.859    -0.505    23.895     6.554
  53   7 N      2.638    -0.278    27.188     7.744
  54   1 H      0.860     0.232     0.955     1.530
  55   1 H      0.924     0.091     1.874     2.141
  56   1 H      0.925     0.080     1.984     2.203
  57   1 H      0.924     0.080     1.978     2.199
  58   1 H      0.860     0.245     0.904     1.489
  59   1 H      0.860     0.233     0.954     1.530
  60   7 N      2.637    -0.395    30.232     8.166
  61   6 C      3.785     0.029    20.099     6.386
  62   6 C      2.752     0.272    22.405     7.751
  63   8 O      0.858    -0.490    23.565     6.508
  64   6 C      3.755    -0.121    22.875     6.820
  65   1 H      0.860     0.159     1.339     1.812
  66   1 H      0.924     0.049     2.335     2.390
  67   1 H      0.925     0.042     2.425     2.435
  68   1 H      0.925     0.056     2.251     2.346
  69   1 H      0.925     0.046     2.376     2.410
  70   7 N      2.691    -0.167    24.611     7.368
  71   6 C      3.788     0.027    20.141     6.392
  72   6 C      2.766     0.198    23.782     7.987
  73   8 O      0.856    -0.366    21.017     6.146
  74   6 C      3.811    -0.074    21.912     6.663
  75   6 C      3.849    -0.010    20.727     6.476
  76   6 C      3.757    -0.119    22.832     6.813
  77   6 C      3.755    -0.118    22.812     6.810
  78   1 H      0.860     0.202     1.096     1.640
  79   1 H      0.924     0.092     1.855     2.130
  80   1 H      0.924     0.054     2.272     2.357
  81   1 H      0.925     0.068     2.111     2.272
  82   1 H      0.924     0.038     2.474     2.460
  83   1 H      0.925     0.049     2.336     2.390
  84   1 H      0.925     0.042     2.428     2.437
  85   1 H      0.925     0.048     2.346     2.395
  86   1 H      0.925     0.048     2.348     2.396
  87   1 H      0.925     0.046     2.366     2.406
  88   1 H      0.925     0.035     2.516     2.480
  89   7 N      2.631    -0.370    29.539     8.072
  90   6 C      3.730    -0.018    20.983     6.539
  91   6 C      2.760     0.196    23.818     7.992
  92   8 O      0.856    -0.393    21.540     6.222
  93   1 H      0.860     0.158     1.349     1.819
  94   1 H      0.924     0.083     1.947     2.182
  95   1 H      0.924     0.101     1.779     2.086
  96   7 N      2.638    -0.386    29.990     8.133
  97   6 C      3.789     0.024    20.178     6.398
  98   6 C      2.763     0.275    22.343     7.741
  99   8 O      0.859    -0.496    23.700     6.527
 100   6 C      3.850    -0.024    20.958     6.512
 101   6 C      3.756    -0.117    22.798     6.808
 102   6 C      3.755    -0.107    22.601     6.779
 103   1 H      0.860     0.150     1.399     1.853
 104   1 H      0.924     0.053     2.284     2.363
 105   1 H      0.924     0.027     2.624     2.533
 106   1 H      0.925     0.048     2.351     2.398
 107   1 H      0.925     0.043     2.412     2.429
 108   1 H      0.925     0.050     2.321     2.382
 109   1 H      0.925     0.040     2.453     2.449
 110   1 H      0.925     0.044     2.397     2.421
 111   1 H      0.925     0.023     2.691     2.565
 112   7 N      2.689    -0.188    25.084     7.438
 113   6 C      3.804     0.018    20.271     6.410
 114   6 C      2.755     0.277    22.309     7.735
 115   8 O      0.858    -0.469    23.108     6.445
 116   6 C      3.851    -0.014    20.783     6.484
 117   6 C      3.754    -0.115    22.765     6.804
 118   6 C      3.755    -0.117    22.795     6.808
 119   1 H      0.860     0.217     1.025     1.586
 120   1 H      0.924     0.070     2.091     2.261
 121   1 H      0.924     0.046     2.366     2.406
 122   1 H      0.925     0.055     2.256     2.349
 123   1 H      0.925     0.044     2.393     2.419
 124   1 H      0.925     0.042     2.416     2.431
 125   1 H      0.925     0.052     2.299     2.371
 126   1 H      0.925     0.038     2.479     2.462
 127   1 H      0.925     0.048     2.341     2.393
 128   7 N      2.691    -0.181    24.921     7.414
 129   6 C      3.795     0.014    20.346     6.423
 130   6 C      2.755     0.275    22.342     7.740
 131   8 O      0.858    -0.478    23.299     6.472
 132   6 C      3.679     0.078    19.482     6.322
 133   8 O      1.656    -0.491    22.693     6.431
 134   1 H      0.860     0.207     1.072     1.622
 135   1 H      0.924     0.085     1.928     2.171
 136   1 H      0.923     0.037     2.484     2.465
 137   1 H      0.923     0.047     2.362     2.403
 138   1 H      0.805     0.355     0.576     1.192
 139   7 N      2.695    -0.167    24.614     7.369
 140   6 C      3.794     0.020    20.252     6.409
 141   6 C      2.771     0.198    23.784     7.987
 142   8 O      0.856    -0.345    20.610     6.087
 143   6 C      3.852    -0.018    20.861     6.496
 144   6 C      3.803    -0.055    21.554     6.610
 145   6 C      3.755    -0.122    22.897     6.823
 146   6 C      3.751    -0.112    22.701     6.795
 147   1 H      0.860     0.226     0.985     1.554
 148   1 H      0.924     0.083     1.944     2.180
 149   1 H      0.924     0.051     2.308     2.376
 150   1 H      0.924     0.042     2.422     2.434
 151   1 H      0.924     0.025     2.663     2.552
 152   1 H      0.925     0.062     2.176     2.307
 153   1 H      0.925     0.040     2.450     2.448
 154   1 H      0.925     0.054     2.266     2.354
 155   1 H      0.925     0.043     2.412     2.429
 156   1 H      0.925     0.044     2.390     2.418
 157   1 H      0.925     0.047     2.357     2.401
 158   7 N      2.631    -0.391    30.126     8.152
 159   6 C      3.735    -0.014    20.908     6.526
 160   6 C      2.752     0.273    22.392     7.749
 161   8 O      0.859    -0.527    24.390     6.621
 162   1 H      0.860     0.168     1.288     1.777
 163   1 H      0.924     0.065     2.136     2.286
 164   1 H      0.924     0.042     2.422     2.434
 165   7 N      2.689    -0.171    24.701     7.381
 166   6 C      3.799     0.021    20.219     6.402
 167   6 C      2.757     0.270    22.439     7.757
 168   8 O      0.858    -0.485    23.462     6.494
 169   6 C      3.808    -0.067    21.773     6.642
 170   6 C      3.802    -0.068    21.798     6.647
 171   6 C      3.804    -0.089    22.199     6.708
 172   6 C      3.731    -0.047    21.514     6.621
 173   7 N      3.482    -0.148    24.185     7.304
 174   1 H      0.860     0.233     0.951     1.527
 175   1 H      0.924     0.067     2.115     2.274
 176   1 H      0.924     0.070     2.081     2.256
 177   1 H      0.924     0.032     2.552     2.498
 178   1 H      0.924     0.035     2.518     2.481
 179   1 H      0.924     0.059     2.216     2.328
 180   1 H      0.925     0.097     1.816     2.107
 181   1 H      0.924     0.061     2.191     2.315
 182   1 H      0.925     0.114     1.659     2.014
 183   1 H      0.924     0.110     1.701     2.039
 184   1 H      0.859     0.307     0.694     1.305
 185   1 H      0.859     0.293     0.733     1.342
 186   1 H      0.859     0.303     0.703     1.314
 187   7 N      2.689    -0.208    25.537     7.505
 188   6 C      3.798     0.016    20.316     6.418
 189   6 C      2.754     0.277    22.319     7.736
 190   8 O      0.859    -0.494    23.656     6.521
 191   6 C      3.724     0.125    18.651     6.167
 192   8 O      1.656    -0.479    22.442     6.395
 193   6 C      3.751    -0.127    23.006     6.840
 194   1 H      0.859     0.224     0.991     1.559
 195   1 H      0.924     0.096     1.823     2.112
 196   1 H      0.922     0.008     2.927     2.675
 197   1 H      0.805     0.332     0.631     1.248
 198   1 H      0.925     0.048     2.349     2.397
 199   1 H      0.925     0.051     2.304     2.374
 200   1 H      0.925     0.055     2.253     2.347
 201   7 N      2.692    -0.167    24.609     7.368
 202   6 C      3.794     0.020    20.253     6.409
 203   6 C      2.758     0.267    22.496     7.767
 204   8 O      0.859    -0.468    23.085     6.442
 205   6 C      3.812    -0.077    21.954     6.669
 206   6 C      2.968    -0.001    28.058     8.688
 207   6 C      2.925    -0.044    29.089     8.845
 208   6 C      2.926    -0.042    29.046     8.838
 209   6 C      2.918    -0.057    29.420     8.895
 210   6 C      2.918    -0.073    29.829     8.956
 211   6 C      2.847     0.140    24.939     8.185
 212   8 O      1.659    -0.423    21.299     6.230
 213   1 H      0.860     0.227     0.978     1.549
 214   1 H      0.924     0.073     2.052     2.240
 215   1 H      0.924     0.065     2.139     2.287
 216   1 H      0.924     0.075     2.033     2.230
 217   1 H      0.926     0.047     2.358     2.401
 218   1 H      0.926     0.053     2.280     2.361
 219   1 H      0.926     0.027     2.628     2.535
 220   1 H      0.926     0.048     2.343     2.393
 221   1 H      0.805     0.345     0.601     1.218
 222   7 N      2.690    -0.174    24.756     7.390
 223   6 C      3.792     0.028    20.106     6.386
 224   6 C      2.768     0.193    23.874     8.002
 225   8 O      0.856    -0.350    20.702     6.100
 226   6 C      3.757    -0.140    23.251     6.875
 227   1 H      0.860     0.216     1.029     1.589
 228   1 H      0.924     0.084     1.942     2.179
 229   1 H      0.925     0.089     1.887     2.148
 230   1 H      0.925     0.088     1.898     2.154
 231   1 H      0.925     0.081     1.966     2.193
 232   7 N      2.634    -0.401    30.394     8.188
 233   6 C      3.785     0.021    20.242     6.408
 234   6 C      2.753     0.265    22.520     7.771
 235   8 O      0.858    -0.502    23.819     6.543
 236   6 C      3.807    -0.072    21.866     6.657
 237   6 C      3.800    -0.083    22.080     6.690
 238   6 C      3.801    -0.091    22.227     6.712
 239   6 C      3.729    -0.050    21.564     6.629
 240   7 N      3.481    -0.148    24.184     7.304
 241   1 H      0.860     0.170     1.274     1.768
 242   1 H      0.924     0.062     2.180     2.309
 243   1 H      0.924     0.045     2.388     2.417
 244   1 H      0.924     0.033     2.548     2.496
 245   1 H      0.924     0.065     2.137     2.286
 246   1 H      0.924     0.061     2.187     2.313
 247   1 H      0.924     0.071     2.071     2.251
 248   1 H      0.924     0.076     2.022     2.224
 249   1 H      0.925     0.109     1.703     2.041
 250   1 H      0.925     0.113     1.667     2.019
 251   1 H      0.858     0.302     0.709     1.319
 252   1 H      0.859     0.301     0.710     1.320
 253   1 H      0.859     0.298     0.720     1.329
 254   7 N      2.689    -0.176    24.802     7.397
 255   6 C      3.790     0.028    20.108     6.386
 256   6 C      2.765     0.192    23.892     8.005
 257   8 O      0.856    -0.363    20.965     6.139
 258   6 C      3.758    -0.124    22.933     6.828
 259   1 H      0.860     0.224     0.990     1.559
 260   1 H      0.924     0.089     1.887     2.148
 261   1 H      0.925     0.066     2.127     2.281
 262   1 H      0.925     0.075     2.032     2.229
 263   1 H      0.925     0.068     2.110     2.271
 264   7 N      2.637    -0.394    30.203     8.162
 265   6 C      3.788     0.046    19.809     6.339
 266   6 C      2.770     0.200    23.743     7.980
 267   8 O      0.856    -0.359    20.875     6.126
 268   6 C      3.810    -0.064    21.714     6.633
 269   6 C      3.195     0.056    26.240     8.351
 270   7 N      1.917    -0.293    28.447     7.908
 271   6 C      3.047    -0.034    28.806     8.803
 272   6 C      3.157     0.089    25.725     8.293
 273   7 N      2.805    -0.100    23.204     7.154
 274   1 H      0.860     0.190     1.157     1.685
 275   1 H      0.924     0.047     2.353     2.399
 276   1 H      0.925     0.071     2.079     2.255
 277   1 H      0.924     0.051     2.306     2.375
 278   1 H      0.927     0.034     2.524     2.484
 279   1 H      0.926     0.038     2.474     2.459
 280   1 H      0.860     0.177     1.233     1.739
 281   7 N      2.634    -0.382    29.873     8.117
 282   6 C      3.782     0.050    19.754     6.331
 283   6 C      2.766     0.194    23.859     7.999
 284   8 O      0.856    -0.377    21.234     6.178
 285   6 C      3.814    -0.068    21.783     6.643
 286   6 C      2.969     0.009    27.822     8.652
 287   6 C      2.924    -0.040    29.001     8.831
 288   6 C      2.922    -0.040    28.990     8.830
 289   6 C      2.918    -0.031    28.780     8.797
 290   6 C      2.920    -0.031    28.779     8.797
 291   6 C      2.919    -0.033    28.814     8.803
 292   1 H      0.860     0.174     1.252     1.752
 293   1 H      0.923     0.043     2.404     2.425
 294   1 H      0.924     0.056     2.249     2.345
 295   1 H      0.924     0.052     2.296     2.370
 296   1 H      0.926     0.039     2.460     2.453
 297   1 H      0.925     0.029     2.600     2.522
 298   1 H      0.926     0.045     2.377     2.411
 299   1 H      0.926     0.030     2.586     2.515
 300   1 H      0.926     0.041     2.439     2.442
 301   7 N      2.702    -0.306    27.872     7.841
 302   6 C      3.816     0.029    20.074     6.377
 303   6 C      2.758     0.269    22.456     7.760
 304   8 O      0.859    -0.512    24.041     6.574
 305   6 C      3.832    -0.062    21.669     6.623
 306   6 C      3.828    -0.064    21.698     6.628
 307   6 C      3.764     0.020    20.286     6.420
 308   1 H      0.924     0.047     2.360     2.402
 309   1 H      0.925     0.036     2.497     2.471
 310   1 H      0.925     0.063     2.164     2.301
 311   1 H      0.925     0.036     2.504     2.475
 312   1 H      0.925     0.050     2.318     2.381
 313   1 H      0.924     0.028     2.616     2.529
 314   1 H      0.924     0.022     2.708     2.574
 315   7 N      2.691    -0.184    24.991     7.425
 316   6 C      3.800     0.037    19.947     6.359
 317   6 C      2.754     0.284    22.198     7.715
 318   8 O      0.858    -0.505    23.885     6.553
 319   6 C      3.802    -0.102    22.441     6.744
 320   6 C      2.683     0.377    20.619     7.431
 321   8 O      0.856    -0.620    26.608     6.916
 322   8 O      0.856    -0.645    27.241     6.998
 323   1 H      0.860     0.222     0.999     1.566
 324   1 H      0.923     0.053     2.282     2.363
 325   1 H      0.924     0.026     2.649     2.545
 326   1 H      0.924     0.045     2.386     2.415
 327   7 N      2.697    -0.186    25.041     7.432
 328   6 C      3.792     0.026    20.140     6.391
 329   6 C      2.760     0.269    22.450     7.759
 330   8 O      0.859    -0.477    23.285     6.470
 331   6 C      3.809    -0.061    21.670     6.626
 332   6 C      3.849    -0.015    20.801     6.487
 333   6 C      3.756    -0.113    22.717     6.796
 334   6 C      3.758    -0.108    22.622     6.781
 335   1 H      0.860     0.215     1.034     1.593
 336   1 H      0.924     0.055     2.257     2.349
 337   1 H      0.924     0.049     2.327     2.386
 338   1 H      0.924     0.049     2.329     2.387
 339   1 H      0.924     0.042     2.421     2.434
 340   1 H      0.925     0.062     2.173     2.305
 341   1 H      0.925     0.022     2.710     2.574
 342   1 H      0.925     0.036     2.497     2.471
 343   1 H      0.925     0.056     2.247     2.344
 344   1 H      0.925     0.037     2.487     2.466
 345   1 H      0.925     0.040     2.448     2.447
 346   7 N      2.690    -0.167    24.605     7.367
 347   6 C      3.795     0.023    20.187     6.398
 348   6 C      2.757     0.276    22.340     7.740
 349   8 O      0.858    -0.459    22.901     6.416
 350   6 C      3.758    -0.114    22.735     6.798
 351   1 H      0.860     0.209     1.059     1.612
 352   1 H      0.924     0.070     2.091     2.261
 353   1 H      0.925     0.057     2.237     2.339
 354   1 H      0.925     0.056     2.245     2.343
 355   1 H      0.925     0.063     2.163     2.300
 356   7 N      2.692    -0.169    24.663     7.376
 357   6 C      3.799     0.026    20.142     6.390
 358   6 C      2.756     0.275    22.348     7.741
 359   8 O      0.858    -0.493    23.638     6.519
 360   6 C      3.807    -0.045    21.382     6.583
 361   6 C      3.800    -0.089    22.194     6.708
 362   6 C      2.686     0.374    20.667     7.440
 363   8 O      0.856    -0.620    26.621     6.918
 364   8 O      0.856    -0.629    26.837     6.946
 365   1 H      0.860     0.190     1.156     1.684
 366   1 H      0.924     0.078     1.996     2.209
 367   1 H      0.924     0.026     2.650     2.546
 368   1 H      0.924     0.052     2.296     2.369
 369   1 H      0.924     0.026     2.645     2.543
 370   1 H      0.924     0.027     2.633     2.538
 371   7 N      2.691    -0.178    24.844     7.403
 372   6 C      3.795     0.020    20.244     6.407
 373   6 C      2.756     0.280    22.267     7.727
 374   8 O      0.858    -0.497    23.714     6.529
 375   6 C      3.757    -0.131    23.072     6.848
 376   1 H      0.860     0.217     1.023     1.584
 377   1 H      0.924     0.080     1.975     2.198
 378   1 H      0.925     0.086     1.918     2.166
 379   1 H      0.925     0.080     1.974     2.197
 380   1 H      0.925     0.056     2.245     2.343
 381   7 N      2.690    -0.183    24.961     7.420
 382   6 C      3.796     0.024    20.182     6.397
 383   6 C      2.755     0.271    22.428     7.755
 384   8 O      0.858    -0.469    23.103     6.444
 385   6 C      3.757    -0.131    23.070     6.848
 386   1 H      0.860     0.225     0.989     1.558
 387   1 H      0.924     0.060     2.199     2.319
 388   1 H      0.925     0.068     2.111     2.272
 389   1 H      0.925     0.067     2.116     2.275
 390   1 H      0.925     0.077     2.005     2.215
 391   7 N      2.689    -0.180    24.898     7.411
 392   6 C      3.789     0.029    20.093     6.384
 393   6 C      2.766     0.200    23.743     7.980
 394   8 O      0.856    -0.359    20.887     6.127
 395   6 C      3.758    -0.126    22.962     6.832
 396   1 H      0.860     0.208     1.068     1.619
 397   1 H      0.924     0.103     1.758     2.073
 398   1 H      0.925     0.081     1.965     2.192
 399   1 H      0.925     0.070     2.088     2.260
 400   1 H      0.925     0.063     2.168     2.303
 401   7 N      2.635    -0.391    30.118     8.151
 402   6 C      3.782     0.026    20.161     6.396
 403   6 C      2.767     0.197    23.792     7.988
 404   8 O      0.856    -0.360    20.894     6.128
 405   6 C      3.730     0.112    18.837     6.196
 406   8 O      1.655    -0.457    21.983     6.329
 407   6 C      3.752    -0.136    23.181     6.866
 408   1 H      0.860     0.186     1.181     1.702
 409   1 H      0.924     0.042     2.425     2.435
 410   1 H      0.924     0.056     2.250     2.346
 411   1 H      0.805     0.324     0.653     1.269
 412   1 H      0.925     0.063     2.162     2.299
 413   1 H      0.925     0.049     2.333     2.389
 414   1 H      0.925     0.054     2.273     2.358
 415   1 H      0.862     0.192     1.148     1.678
 416   1 H      0.930     0.088     1.894     2.152
 417   1 H      0.862     0.185     1.185     1.705
 418   1 H      0.930     0.077     2.008     2.216
 419   1 H      0.862     0.182     1.205     1.719
 420   1 H      0.930     0.061     2.191     2.314
 421   1 H      0.862     0.187     1.173     1.696
 422   1 H      0.930     0.088     1.900     2.155
 423   1 H      0.862     0.191     1.153     1.682
 424   1 H      0.930     0.083     1.948     2.183
 425   1 H      0.862     0.193     1.142     1.674
 426   1 H      0.930     0.083     1.948     2.183
 427   1 H      0.862     0.182     1.201     1.716
 428   1 H      0.930     0.053     2.278     2.360
 429   1 H      0.862     0.167     1.289     1.779
 430   1 H      0.930     0.082     1.959     2.189
 431   1 H      0.862     0.163     1.318     1.799
 432   1 H      0.930     0.084     1.935     2.175
 433   1 H      0.862     0.180     1.214     1.726
 434   1 H      0.930     0.072     2.060     2.244

 Mol. C6AA /au·bohr⁶  :    1711533.330097
 Mol. C8AA /au·bohr⁸  :   37777609.591505
 Mol. α(0) /au        :       1957.071161


Wiberg/Mayer (AO) data.
largest (>0.10) Wiberg bond orders for each atom
          total WBO             WBO to atom ...
     1  N   2.998        C    2 1.024    H  415 0.953    H    9 0.935
     2  C   3.987        N    1 1.024    C    5 0.961    H   10 0.956    C    3 0.941
     3  C   3.943        O    4 1.639    N   13 1.279    C    2 0.941
     4  O   1.946        C    3 1.639    N   13 0.185
     5  C   3.990        H   11 0.979    H   12 0.975    C    2 0.961    C    6 0.919
     6  C   3.933        O    7 1.501    O    8 1.479    C    5 0.919
     7  O   1.821        C    6 1.501    O    8 0.210
     8  O   1.825        C    6 1.479    O    7 0.210
     9  H   0.972        N    1 0.935
    10  H   0.998        C    2 0.956
    11  H   1.000        C    5 0.979
    12  H   0.999        C    5 0.975
    13  N   3.459        C    3 1.279    C   14 0.991    H   20 0.918    O    4 0.185
    14  C   3.962        N   13 0.991    C   17 0.941    C   15 0.940    H   21 0.934
    15  C   3.956        O   16 1.625    N   27 1.312    C   14 0.940
    16  O   1.947        C   15 1.625    N   27 0.197
    17  C   3.954        C   19 1.004    O   18 1.002    H   22 0.957    C   14 0.941
    18  O   1.947        C   17 1.002    H   23 0.836
    19  C   3.993        C   17 1.004    H   24 0.984    H   25 0.983    H   26 0.981
    20  H   0.960        N   13 0.918
    21  H   0.992        C   14 0.934
    22  H   0.996        C   17 0.957
    23  H   0.899        O   18 0.836
    24  H   0.997        C   19 0.984
    25  H   0.997        C   19 0.983
    26  H   0.998        C   19 0.981
    27  N   3.478        C   15 1.312    C   28 0.966    H   35 0.919    O   16 0.197
    28  C   3.953        C   31 0.984    N   27 0.966    H   36 0.946    C   29 0.930
    29  C   3.949        O   30 1.643    N   46 1.298    C   28 0.930
    30  O   1.954        C   29 1.643    N   46 0.198
    31  C   3.985        C   32 0.994    C   28 0.984    H   37 0.971    H   38 0.970
    32  C   3.994        C   33 1.010    C   34 1.008    C   31 0.994    H   39 0.967
    33  C   3.995        C   32 1.010    H   42 0.986    H   40 0.985    H   41 0.982
    34  C   3.994        C   32 1.008    H   45 0.986    H   44 0.986    H   43 0.985
    35  H   0.960        N   27 0.919
    36  H   0.993        C   28 0.946
    37  H   0.996        C   31 0.971
    38  H   0.997        C   31 0.970
    39  H   0.999        C   32 0.967
    40  H   0.997        C   33 0.985
    41  H   0.999        C   33 0.982
    42  H   0.998        C   33 0.986
    43  H   0.997        C   34 0.985
    44  H   0.998        C   34 0.986
    45  H   0.998        C   34 0.986
    46  N   3.467        C   29 1.298    C   47 0.990    H   54 0.876    O   30 0.198
    47  C   3.972        N   46 0.990    C   48 0.974    H   55 0.955    C   50 0.935
    48  C   3.897        O   49 1.909    C   47 0.974    H  416 0.952
    49  O   2.074        C   48 1.909
    50  C   3.987        H   57 0.967    C   51 0.967    H   56 0.963    C   47 0.935
    51  C   3.951        O   52 1.635    N   53 1.323    C   50 0.967
    52  O   1.940        C   51 1.635    N   53 0.205
    53  N   3.409        C   51 1.323    H   59 0.927    H   58 0.918    O   52 0.205
    54  H   0.946        N   46 0.876
    55  H   0.992        C   47 0.955
    56  H   0.994        C   50 0.963
    57  H   0.994        C   50 0.967
    58  H   0.940        N   53 0.918
    59  H   0.946        N   53 0.927
    60  N   2.987        C   61 1.023    H   65 0.954    H  417 0.952
    61  C   3.988        N   60 1.023    C   64 0.985    H   66 0.951    C   62 0.942
    62  C   3.943        O   63 1.649    N   70 1.284    C   61 0.942
    63  O   1.962        C   62 1.649    N   70 0.191
    64  C   3.993        C   61 0.985    H   69 0.984    H   68 0.983    H   67 0.981
    65  H   0.975        N   60 0.954
    66  H   0.998        C   61 0.951
    67  H   0.998        C   64 0.981
    68  H   0.997        C   64 0.983
    69  H   0.998        C   64 0.984
    70  N   3.464        C   62 1.284    C   71 0.989    H   78 0.925    O   63 0.191
    71  C   3.968        N   70 0.989    C   72 0.974    C   74 0.955    H   79 0.941
    72  C   3.899        O   73 1.895    C   71 0.974    H  418 0.953
    73  O   2.043        C   72 1.895
    74  C   3.983        C   75 0.988    H   80 0.973    H   81 0.971    C   71 0.955
    75  C   3.994        C   77 1.011    C   76 1.006    C   74 0.988    H   82 0.967
    76  C   3.992        C   75 1.006    H   84 0.986    H   85 0.986    H   83 0.985
    77  C   3.995        C   75 1.011    H   87 0.986    H   86 0.984    H   88 0.984
    78  H   0.959        N   70 0.925
    79  H   0.991        C   71 0.941
    80  H   0.997        C   74 0.973
    81  H   0.995        C   74 0.971
    82  H   0.999        C   75 0.967
    83  H   0.996        C   76 0.985
    84  H   0.998        C   76 0.986
    85  H   0.998        C   76 0.986
    86  H   0.997        C   77 0.984
    87  H   0.998        C   77 0.986
    88  H   0.999        C   77 0.984
    89  N   3.005        C   90 1.042    H   93 0.960    H  419 0.952
    90  C   3.988        N   89 1.042    C   91 0.994    H   94 0.942    H   95 0.933
    91  C   3.895        O   92 1.877    C   90 0.994    H  420 0.955
    92  O   2.029        C   91 1.877
    93  H   0.975        N   89 0.960
    94  H   0.993        C   90 0.942
    95  H   0.990        C   90 0.933
    96  N   2.998        C   97 1.027    H  103 0.956    H  421 0.946
    97  C   3.985        N   96 1.027    C  100 0.950    H  104 0.949    C   98 0.948
    98  C   3.941        O   99 1.636    N  112 1.287    C   97 0.948
    99  O   1.949        C   98 1.636    N  112 0.192
   100  C   3.994        C  102 1.010    C  101 1.009    H  105 0.967    C   97 0.950
   101  C   3.995        C  100 1.009    H  107 0.986    H  106 0.984    H  108 0.980
   102  C   3.997        C  100 1.010    H  111 0.986    H  109 0.986    H  110 0.983
   103  H   0.977        N   96 0.956
   104  H   0.997        C   97 0.949
   105  H   0.999        C  100 0.967
   106  H   0.997        C  101 0.984
   107  H   0.998        C  101 0.986
   108  H   0.997        C  101 0.980
   109  H   0.998        C  102 0.986
   110  H   0.998        C  102 0.983
   111  H   0.999        C  102 0.986
   112  N   3.456        C   98 1.287    C  113 0.987    H  119 0.899    O   99 0.192
   113  C   3.968        N  112 0.987    H  120 0.952    C  114 0.950    C  116 0.943
   114  C   3.943        O  115 1.628    N  128 1.283    C  113 0.950
   115  O   1.987        C  114 1.628    N  128 0.190
   116  C   3.988        C  117 1.011    C  118 1.009    H  121 0.965    C  113 0.943
   117  C   3.994        C  116 1.011    H  124 0.982    H  122 0.982    H  123 0.981
   118  C   3.994        C  116 1.009    H  126 0.983    H  125 0.982    H  127 0.979
   119  H   0.953        N  112 0.899
   120  H   0.995        C  113 0.952
   121  H   0.997        C  116 0.965
   122  H   0.997        C  117 0.982
   123  H   0.998        C  117 0.981
   124  H   0.998        C  117 0.982
   125  H   0.997        C  118 0.982
   126  H   0.999        C  118 0.983
   127  H   0.998        C  118 0.979
   128  N   3.460        C  114 1.283    C  129 0.983    H  134 0.924    O  115 0.190
   129  C   3.961        N  128 0.983    C  132 0.977    H  135 0.949    C  130 0.920
   130  C   3.955        O  131 1.635    N  139 1.319    C  129 0.920
   131  O   1.957        C  130 1.635    N  139 0.205
   132  C   3.958        O  133 1.004    C  129 0.977    H  136 0.968    H  137 0.967
   133  O   1.918        C  132 1.004    H  138 0.861
   134  H   0.957        N  128 0.924
   135  H   0.993        C  129 0.949
   136  H   0.998        C  132 0.968
   137  H   0.998        C  132 0.967
   138  H   0.873        O  133 0.861
   139  N   3.492        C  130 1.319    C  140 0.971    H  147 0.895    O  131 0.205
   140  C   3.959        N  139 0.971    C  141 0.971    H  148 0.957    C  143 0.942
   141  C   3.895        O  142 1.897    C  140 0.971    H  422 0.951
   142  O   2.063        C  141 1.897
   143  C   3.985        C  145 1.008    C  144 0.994    H  149 0.960    C  140 0.942
   144  C   3.995        C  146 1.017    C  143 0.994    H  150 0.976    H  151 0.974
   145  C   3.992        C  143 1.008    H  154 0.985    H  153 0.983    H  152 0.981
   146  C   3.993        C  144 1.017    H  157 0.985    H  155 0.985    H  156 0.982
   147  H   0.949        N  139 0.895
   148  H   0.993        C  140 0.957
   149  H   0.997        C  143 0.960
   150  H   0.998        C  144 0.976
   151  H   0.999        C  144 0.974
   152  H   0.995        C  145 0.981
   153  H   0.998        C  145 0.983
   154  H   0.997        C  145 0.985
   155  H   0.997        C  146 0.985
   156  H   0.998        C  146 0.982
   157  H   0.998        C  146 0.985
   158  N   2.984        C  159 1.032    H  162 0.953    H  423 0.951
   159  C   3.988        N  158 1.032    C  160 0.961    H  164 0.957    H  163 0.951
   160  C   3.942        O  161 1.616    N  165 1.305    C  159 0.961
   161  O   1.927        C  160 1.616    N  165 0.194
   162  H   0.972        N  158 0.953
   163  H   0.995        C  159 0.951
   164  H   0.998        C  159 0.957
   165  N   3.472        C  160 1.305    C  166 0.994    H  174 0.892    O  161 0.194
   166  C   3.971        N  165 0.994    C  169 0.965    H  175 0.946    C  167 0.941
   167  C   3.947        O  168 1.604    N  187 1.315    C  166 0.941
   168  O   1.957        C  167 1.604    N  187 0.193
   169  C   3.989        C  170 1.005    H  176 0.971    H  177 0.969    C  166 0.965
   170  C   3.994        C  171 1.006    C  169 1.005    H  178 0.976    H  179 0.971
   171  C   3.983        C  172 1.013    C  170 1.006    H  181 0.967    H  180 0.960
   172  C   3.921        C  171 1.013    H  182 0.966    H  183 0.965    N  173 0.957
   173  N   3.665        C  172 0.957    H  185 0.896    H  184 0.894    H  186 0.893
   174  H   0.945        N  165 0.892
   175  H   0.995        C  166 0.946
   176  H   0.995        C  169 0.971
   177  H   0.998        C  169 0.969
   178  H   0.999        C  170 0.976
   179  H   0.997        C  170 0.971
   180  H   0.991        C  171 0.960
   181  H   0.996        C  171 0.967
   182  H   0.987        C  172 0.966
   183  H   0.988        C  172 0.965
   184  H   0.906        N  173 0.894
   185  H   0.914        N  173 0.896
   186  H   0.908        N  173 0.893
   187  N   3.464        C  167 1.315    C  188 0.983    H  194 0.852    O  168 0.193
   188  C   3.959        N  187 0.983    C  191 0.956    H  195 0.937    C  189 0.936
   189  C   3.950        O  190 1.613    N  201 1.324    C  188 0.936
   190  O   1.954        C  189 1.613    N  201 0.201
   191  C   3.958        C  193 1.005    O  192 0.989    H  196 0.960    C  188 0.956
   192  O   1.933        C  191 0.989    H  197 0.873
   193  C   3.992        C  191 1.005    H  198 0.982    H  200 0.982    H  199 0.975
   194  H   0.949        N  187 0.852
   195  H   0.990        C  188 0.937
   196  H   0.999        C  191 0.960
   197  H   0.889        O  192 0.873
   198  H   0.997        C  193 0.982
   199  H   0.997        C  193 0.975
   200  H   0.997        C  193 0.982
   201  N   3.489        C  189 1.324    C  202 0.987    H  213 0.896    O  190 0.201
   202  C   3.962        N  201 0.987    C  205 0.956    H  214 0.947    C  203 0.938
   203  C   3.950        O  204 1.644    N  222 1.284    C  202 0.938
   204  O   1.990        C  203 1.644    N  222 0.191
   205  C   3.987        C  206 1.007    H  215 0.970    H  216 0.960    C  202 0.956
   206  C   3.987        C  208 1.412    C  207 1.402    C  205 1.007
   207  C   3.989        C  209 1.458    C  206 1.402    H  217 0.961    C  210 0.106
   208  C   3.988        C  210 1.448    C  206 1.412    H  218 0.963    C  209 0.106
   209  C   3.990        C  207 1.458    C  211 1.363    H  219 0.968    C  208 0.106
   210  C   3.986        C  208 1.448    C  211 1.373    H  220 0.959    C  207 0.106
   211  C   3.942        C  210 1.373    C  209 1.363    O  212 1.073
   212  O   2.100        C  211 1.073    H  221 0.860
   213  H   0.948        N  201 0.896
   214  H   0.994        C  202 0.947
   215  H   0.995        C  205 0.970
   216  H   0.993        C  205 0.960
   217  H   0.998        C  207 0.961
   218  H   0.997        C  208 0.963
   219  H   0.999        C  209 0.968
   220  H   0.997        C  210 0.959
   221  H   0.881        O  212 0.860
   222  N   3.447        C  203 1.284    C  223 0.967    H  227 0.921    O  204 0.191
   223  C   3.958        C  226 0.979    C  224 0.970    N  222 0.967    H  228 0.954
   224  C   3.899        O  225 1.885    C  223 0.970    H  424 0.953
   225  O   2.055        C  224 1.885
   226  C   3.974        H  231 0.980    C  223 0.979    H  229 0.978    H  230 0.975
   227  H   0.953        N  222 0.921
   228  H   0.993        C  223 0.954
   229  H   0.991        C  226 0.978
   230  H   0.992        C  226 0.975
   231  H   0.993        C  226 0.980
   232  N   3.002        C  233 1.026    H  425 0.948    H  241 0.928
   233  C   3.985        N  232 1.026    C  236 0.970    H  242 0.949    C  234 0.939
   234  C   3.938        O  235 1.644    N  254 1.281    C  233 0.939
   235  O   1.955        C  234 1.644    N  254 0.191
   236  C   3.992        C  237 1.005    H  244 0.972    H  243 0.971    C  233 0.970
   237  C   3.993        C  238 1.006    C  236 1.005    H  246 0.973    H  245 0.973
   238  C   3.985        C  239 1.012    C  237 1.006    H  248 0.968    H  247 0.964
   239  C   3.918        C  238 1.012    H  250 0.966    H  249 0.966    N  240 0.954
   240  N   3.665        C  239 0.954    H  253 0.899    H  251 0.896    H  252 0.893
   241  H   0.971        N  232 0.928
   242  H   0.995        C  233 0.949
   243  H   0.998        C  236 0.971
   244  H   0.999        C  236 0.972
   245  H   0.996        C  237 0.973
   246  H   0.996        C  237 0.973
   247  H   0.995        C  238 0.964
   248  H   0.994        C  238 0.968
   249  H   0.988        C  239 0.966
   250  H   0.987        C  239 0.966
   251  H   0.909        N  240 0.896
   252  H   0.909        N  240 0.893
   253  H   0.911        N  240 0.899
   254  N   3.458        C  234 1.281    C  255 0.994    H  259 0.912    O  235 0.191
   255  C   3.971        N  254 0.994    C  258 0.972    C  256 0.971    H  260 0.945
   256  C   3.896        O  257 1.870    C  255 0.971    H  426 0.952
   257  O   2.060        C  256 1.870
   258  C   3.983        H  263 0.982    H  261 0.981    H  262 0.976    C  255 0.972
   259  H   0.950        N  254 0.912
   260  H   0.992        C  255 0.945
   261  H   0.995        C  258 0.981
   262  H   0.994        C  258 0.976
   263  H   0.995        C  258 0.982
   264  N   3.004        C  265 1.020    H  427 0.955    H  274 0.908
   265  C   3.989        N  264 1.020    C  266 0.976    H  275 0.961    C  268 0.940
   266  C   3.902        O  267 1.903    C  265 0.976    H  428 0.955
   267  O   2.040        C  266 1.903
   268  C   3.993        C  269 1.014    H  277 0.971    H  276 0.961    C  265 0.940
   269  C   3.975        C  271 1.552    N  270 1.274    C  268 1.014
   270  N   3.013        C  272 1.544    C  269 1.274    N  273 0.107
   271  C   3.934        C  269 1.552    N  273 1.205    H  278 0.962    C  272 0.122
   272  C   3.956        N  270 1.544    N  273 1.267    H  279 0.965    C  271 0.122
   273  N   3.592        C  272 1.267    C  271 1.205    H  280 0.939    N  270 0.107
   274  H   0.964        N  264 0.908
   275  H   0.998        C  265 0.961
   276  H   0.995        C  268 0.961
   277  H   0.997        C  268 0.971
   278  H   0.999        C  271 0.962
   279  H   0.999        C  272 0.965
   280  H   0.969        N  273 0.939
   281  N   3.002        C  282 1.027    H  429 0.957    H  292 0.949
   282  C   3.988        N  281 1.027    C  283 0.979    C  285 0.945    H  293 0.939
   283  C   3.890        O  284 1.882    C  282 0.979    H  430 0.951
   284  O   2.040        C  283 1.882
   285  C   3.991        C  286 1.011    H  294 0.970    H  295 0.966    C  282 0.945
   286  C   3.988        C  287 1.411    C  288 1.405    C  285 1.011    C  291 0.109
   287  C   3.990        C  289 1.439    C  286 1.411    H  296 0.967    C  290 0.111
   288  C   3.992        C  290 1.449    C  286 1.405    H  297 0.968    C  289 0.112
   289  C   3.991        C  291 1.442    C  287 1.439    H  298 0.969    C  288 0.112
   290  C   3.992        C  288 1.449    C  291 1.433    H  299 0.968    C  287 0.111
   291  C   3.989        C  289 1.442    C  290 1.433    H  300 0.969    C  286 0.109
   292  H   0.970        N  281 0.949
   293  H   0.998        C  282 0.939
   294  H   0.997        C  285 0.970
   295  H   0.997        C  285 0.966
   296  H   0.998        C  287 0.967
   297  H   0.999        C  288 0.968
   298  H   0.998        C  289 0.969
   299  H   0.999        C  290 0.968
   300  H   0.998        C  291 0.969
   301  N   3.055        C  307 1.003    C  302 0.998    H  431 0.959
   302  C   3.983        N  301 0.998    C  305 0.972    H  308 0.956    C  303 0.946
   303  C   3.940        O  304 1.611    N  315 1.305    C  302 0.946
   304  O   1.916        C  303 1.611    N  315 0.190
   305  C   3.994        C  306 1.007    H  309 0.979    H  310 0.975    C  302 0.972
   306  C   3.996        C  305 1.007    C  307 1.005    H  312 0.977    H  311 0.977
   307  C   3.986        C  306 1.005    N  301 1.003    H  314 0.976    H  313 0.975
   308  H   0.998        C  302 0.956
   309  H   0.999        C  305 0.979
   310  H   0.996        C  305 0.975
   311  H   0.999        C  306 0.977
   312  H   0.997        C  306 0.977
   313  H   0.999        C  307 0.975
   314  H   0.999        C  307 0.976
   315  N   3.463        C  303 1.305    C  316 0.992    H  323 0.878    O  304 0.190
   316  C   3.977        N  315 0.992    C  319 0.977    H  324 0.953    C  317 0.930
   317  C   3.944        O  318 1.639    N  327 1.297    C  316 0.930
   318  O   1.948        C  317 1.639    N  327 0.197
   319  C   3.985        H  325 0.980    C  316 0.977    H  326 0.968    C  320 0.910
   320  C   3.934        O  322 1.514    O  321 1.488    C  319 0.910
   321  O   1.833        C  320 1.488    O  322 0.215
   322  O   1.805        C  320 1.514    O  321 0.215
   323  H   0.950        N  315 0.878
   324  H   0.997        C  316 0.953
   325  H   0.999        C  319 0.980
   326  H   0.998        C  319 0.968
   327  N   3.458        C  317 1.297    C  328 0.980    H  335 0.909    O  318 0.197
   328  C   3.963        N  327 0.980    C  331 0.957    C  329 0.950    H  336 0.950
   329  C   3.951        O  330 1.633    N  346 1.299    C  328 0.950
   330  O   1.964        C  329 1.633    N  346 0.194
   331  C   3.984        C  332 0.995    H  338 0.971    H  337 0.970    C  328 0.957
   332  C   3.993        C  333 1.010    C  334 1.006    C  331 0.995    H  339 0.964
   333  C   3.995        C  332 1.010    H  342 0.986    H  340 0.983    H  341 0.983
   334  C   3.993        C  332 1.006    H  344 0.986    H  345 0.983    H  343 0.981
   335  H   0.954        N  327 0.909
   336  H   0.997        C  328 0.950
   337  H   0.997        C  331 0.970
   338  H   0.998        C  331 0.971
   339  H   0.998        C  332 0.964
   340  H   0.996        C  333 0.983
   341  H   1.000        C  333 0.983
   342  H   0.999        C  333 0.986
   343  H   0.996        C  334 0.981
   344  H   0.998        C  334 0.986
   345  H   0.998        C  334 0.983
   346  N   3.474        C  329 1.299    C  347 0.985    H  351 0.921    O  330 0.194
   347  C   3.968        C  350 0.991    N  346 0.985    H  352 0.953    C  348 0.928
   348  C   3.951        O  349 1.651    N  356 1.290    C  347 0.928
   349  O   1.970        C  348 1.651    N  356 0.196
   350  C   3.988        C  347 0.991    H  355 0.982    H  354 0.982    H  353 0.981
   351  H   0.956        N  346 0.921
   352  H   0.995        C  347 0.953
   353  H   0.996        C  350 0.981
   354  H   0.996        C  350 0.982
   355  H   0.996        C  350 0.982
   356  N   3.468        C  348 1.290    C  357 0.984    H  365 0.930    O  349 0.196
   357  C   3.964        N  356 0.984    C  360 0.976    H  366 0.944    C  358 0.931
   358  C   3.950        O  359 1.643    N  371 1.297    C  357 0.931
   359  O   1.953        C  358 1.643    N  371 0.195
   360  C   3.992        C  361 0.997    C  357 0.976    H  367 0.976    H  368 0.969
   361  C   3.990        C  360 0.997    H  370 0.976    H  369 0.972    C  362 0.918
   362  C   3.932        O  364 1.529    O  363 1.458    C  361 0.918
   363  O   1.849        C  362 1.458    O  364 0.210
   364  O   1.817        C  362 1.529    O  363 0.210
   365  H   0.964        N  356 0.930
   366  H   0.994        C  357 0.944
   367  H   0.999        C  360 0.976
   368  H   0.997        C  360 0.969
   369  H   0.999        C  361 0.972
   370  H   0.999        C  361 0.976
   371  N   3.453        C  358 1.297    C  372 0.978    H  376 0.906    O  359 0.195
   372  C   3.962        C  375 0.993    N  371 0.978    H  377 0.950    C  373 0.932
   373  C   3.943        O  374 1.655    N  381 1.279    C  372 0.932
   374  O   1.962        C  373 1.655    N  381 0.192
   375  C   3.981        C  372 0.993    H  380 0.984    H  378 0.979    H  379 0.978
   376  H   0.953        N  371 0.906
   377  H   0.993        C  372 0.950
   378  H   0.992        C  375 0.979
   379  H   0.993        C  375 0.978
   380  H   0.997        C  375 0.984
   381  N   3.445        C  373 1.279    C  382 0.979    H  386 0.918    O  374 0.192
   382  C   3.967        C  385 0.995    N  381 0.979    H  387 0.957    C  383 0.929
   383  C   3.949        O  384 1.655    N  391 1.287    C  382 0.929
   384  O   1.969        C  383 1.655    N  391 0.197
   385  C   3.984        C  382 0.995    H  390 0.980    H  389 0.980    H  388 0.980
   386  H   0.949        N  381 0.918
   387  H   0.996        C  382 0.957
   388  H   0.995        C  385 0.980
   389  H   0.995        C  385 0.980
   390  H   0.994        C  385 0.980
   391  N   3.461        C  383 1.287    C  392 0.986    H  396 0.924    O  384 0.197
   392  C   3.966        N  391 0.986    C  393 0.979    C  395 0.974    H  397 0.930
   393  C   3.901        O  394 1.905    C  392 0.979    H  432 0.951
   394  O   2.047        C  393 1.905
   395  C   3.982        H  400 0.984    H  399 0.980    H  398 0.979    C  392 0.974
   396  H   0.957        N  391 0.924
   397  H   0.989        C  392 0.930
   398  H   0.993        C  395 0.979
   399  H   0.995        C  395 0.980
   400  H   0.996        C  395 0.984
   401  N   2.998        C  402 1.017    H  433 0.955    H  408 0.927
   402  C   3.988        N  401 1.017    C  403 0.968    H  409 0.967    C  405 0.937
   403  C   3.898        O  404 1.909    C  402 0.968    H  434 0.954
   404  O   2.047        C  403 1.909
   405  C   3.949        C  407 1.001    O  406 0.983    H  410 0.957    C  402 0.937
   406  O   2.008        C  405 0.983    H  411 0.872
   407  C   3.993        C  405 1.001    H  414 0.983    H  412 0.983    H  413 0.981
   408  H   0.965        N  401 0.927
   409  H   0.998        C  402 0.967
   410  H   0.997        C  405 0.957
   411  H   0.895        O  406 0.872
   412  H   0.996        C  407 0.983
   413  H   0.997        C  407 0.981
   414  H   0.997        C  407 0.983
   415  H   0.963        N    1 0.953
   416  H   0.992        C   48 0.952
   417  H   0.965        N   60 0.952
   418  H   0.994        C   72 0.953
   419  H   0.967        N   89 0.952
   420  H   0.996        C   91 0.955
   421  H   0.964        N   96 0.946
   422  H   0.992        C  141 0.951
   423  H   0.963        N  158 0.951
   424  H   0.993        C  224 0.953
   425  H   0.963        N  232 0.948
   426  H   0.993        C  256 0.952
   427  H   0.967        N  264 0.955
   428  H   0.997        C  266 0.955
   429  H   0.972        N  281 0.957
   430  H   0.993        C  283 0.951
   431  H   0.974        N  301 0.959
   432  H   0.993        C  393 0.951
   433  H   0.968        N  401 0.955
   434  H   0.995        C  403 0.954
 
molecular dipole:
                 x           y           z       tot (Debye)
 q only:     -297.919     -94.103    -200.091
   full:     -299.570     -96.498    -200.194     948.102
molecular quadrupole (traceless):
                xx          xy          yy          xz          yz          zz
 q only:   -64371.563  -41812.861   56381.359  -89162.565  -28108.741    7990.204
  q+dip:   -65110.942  -43231.565   56423.923  -89783.484  -28848.333    8687.020
   full:   -65110.725  -43236.434   56425.499  -89788.580  -28847.581    8685.226


           -------------------------------------------------
          | TOTAL ENERGY             -665.008599465977 Eh   |
          | GRADIENT NORM               0.703035525613 Eh/α |
          | HOMO-LUMO GAP               1.319960848054 eV   |
           -------------------------------------------------

------------------------------------------------------------------------
 * finished run on 2019/05/31 at 05:35:11.307     
------------------------------------------------------------------------
 total:
 * wall-time:     0 d,  0 h,  0 min,  8.223 sec
 *  cpu-time:     0 d,  0 h,  0 min, 15.260 sec
 * ratio c/w:     1.856 speedup
 SCF:
 * wall-time:     0 d,  0 h,  0 min,  7.533 sec
 *  cpu-time:     0 d,  0 h,  0 min, 14.375 sec
 * ratio c/w:     1.908 speedup

