      -----------------------------------------------------------      
     |                   =====================                   |     
     |                           x T B                           |     
     |                   =====================                   |     
     |                         S. Grimme                         |     
     |          Mulliken Center for Theoretical Chemistry        |     
     |                    University of Bonn                     |     
     |                 Version 6.0.1 (SAW181210)                 |     
      -----------------------------------------------------------      

   This program is distributed in the hope that it will be useful,
   but WITHOUT ANY WARRANTY; without even the implied warranty of
   MERCHANTABILITY or FITNESS FOR A PARTICULAR PURPOSE.
   
   FOR NON-COMMERCIAL, ACADEMIA USE ONLY.
   
   Cite this work as:
   S. Grimme, C. Bannwarth, P. Shushkov, J. Comput. Theory Chem., 2017,
   13, 1989-2009.
   C. Bannwarth, S. Ehlert and S. Grimme., ChemRxiv, 2018, preprint.
   http://doi.org/10.26434/chemrxiv.7246238.v1
   
   for sTDA-xTB:
   S. Grimme and C. Bannwarth, J. Chem. Phys., 2016, 145, 054103.
   
   in the mass-spec context:
   V. Asgeirsson, C. Bauer and S. Grimme, Chem. Sci., 2017, 8, 4879.
   
   if GBSA is used:
   P. Shushkov, F. März and S. Grimme, unpublished.
   
   for ANC optimizer:
   S. Grimme, unpublished.
   Rational Function algorithm used in ANCopt:
   F. Eckert, P. Pulay, H.-J. Werner, J. Comput. Chem., 1997, 18, 1473.
   
   with help from (in alphabetical order)
   C. Bannwarth, F. Bohle, G. Brandenburg, E. Caldeweyher, M. Checinski,
   S. Dohm, S. Ehlert, S. Ehrlich, F. März, H. Neugebauer, J. Pisarek,
   P. Pracht, P. Shushkov, and S. Spicher.
   
 * started run on 2019/03/14 at 15:08:20.752     
========================================================================
 # omp threads = 1
========================================================================
number of atoms            : 684
number of electrons        : 1752
charge                     : 0
spin                       : .0
first test random number   : .1354
           ------------------------------------------------- 
          |                 G F N 2 - x T B                 |
          | Geometry, Frequencies, Noncovalent interactions |
          |            JCTC 2018 parametrisation            |
           ------------------------------------------------- 
 
      method parameters     
 k(s)        :  1.8500
 k(p)        :  2.2300
 k(d)        :  2.2300
 k(f)        :  2.0000
 kEN (H0ij)  : -2.0000
 D4 a1       :  0.5200
 D4 a2       :  5.0000
 D4 s6       :  1.0000
 D4 s8       :  2.7000
 D4 s9       :  5.0000
 alphaj      :  2.0000

 Solvent             : h2o
 Using internal parameter file: .param_gbsa2_h2o
 Gsolv ref. state (COSMO-RS): gsolv [1 M gas/solution]
 temperature (mdtemp)       :    298.150000000000     
 dielectric constant        :    80.2000000000000     
 rho                        :    1.00000000000000     
 mass                       :    18.0000000000000     
 surface tension            :    15.5689454083859     
 probe radius               :   0.975313790000000     
 vdW radii scaling          :    1.00000000000000     
 Gshift (Eh)                :   1.857443126794793E-003
 c1                         :    1.55243817000000     
 soset                      :   0.130326360000000     
 HB correction              :  T

            Z     q(EN)     CN     RAES       Cart. coordinates
     1  N   5.0   -0.21    3.22    1.96    72.28142    91.63364    50.49903
     2  C   4.0    0.03    4.23    4.06    72.84560    89.70801    52.35594
     3  C   4.0    0.07    3.22    3.04    74.36036    90.93174    54.47984
     4  O   6.0   -0.33    1.18    1.80    73.62450    90.86383    56.67235
     5  C   4.0   -0.05    4.34    4.27    74.32832    87.48991    51.24598
     6  C   4.0   -0.02    4.20    3.99    73.22407    86.43631    48.78486
     7  C   4.0   -0.07    4.11    3.82    74.74493    84.12500    47.97906
     8  C   4.0   -0.08    4.11    3.83    70.42165    85.81665    49.01765
     9  H   1.0    0.08    1.03    1.43    72.87460    91.36513    48.69875
    10  H   1.0    0.04    1.05    1.44    71.07112    89.03503    53.20349
    11  H   1.0    0.04    1.03    1.43    76.26534    88.09554    50.87779
    12  H   1.0    0.04    1.03    1.43    74.39065    86.00024    52.67434
    13  H   1.0    0.04    1.06    1.44    73.44915    87.86298    47.31193
    14  H   1.0    0.06    1.01    1.43    73.98644    83.36204    46.23332
    15  H   1.0    0.04    1.00    1.43    76.71977    84.62926    47.69735
    16  H   1.0    0.05    1.00    1.43    74.65984    82.64153    49.39689
    17  H   1.0    0.04    1.00    1.43    69.82514    84.74420    47.37422
    18  H   1.0    0.04    1.01    1.43    70.06008    84.69369    50.68909
    19  H   1.0    0.04    1.00    1.43    69.31174    87.53826    49.13482
    20  N   5.0   -0.20    3.24    1.97    70.99530    96.08786    58.40344
    21  C   4.0    0.03    4.37    4.32    69.22142    94.80070    60.01532
    22  C   4.0    0.15    3.46    3.10    70.58012    93.62624    62.26766
    23  O   6.0   -0.32    1.35    1.80    69.77466    94.01348    64.40858
    24  C   4.0    0.05    4.23    4.06    67.68458    92.88957    58.42763
    25  O   6.0   -0.26    2.13    1.84    66.32034    94.17963    56.54502
    26  C   4.0   -0.07    4.10    3.79    65.78334    91.49232    60.07097
    27  H   1.0    0.09    1.03    1.43    71.16980    95.42612    56.61488
    28  H   1.0    0.05    1.05    1.44    67.89952    96.19746    60.81012
    29  H   1.0    0.05    1.04    1.43    69.01635    91.54656    57.56577
    30  H   1.0    0.11    1.02    1.43    67.45574    94.62967    55.18004
    31  H   1.0    0.04    1.00    1.43    64.47319    90.48325    58.85648
    32  H   1.0    0.04    1.00    1.43    66.72622    90.16728    61.31718
    33  H   1.0    0.05    1.00    1.43    64.72817    92.85175    61.18727
    34  N   5.0   -0.15    3.46    2.05    72.65903    92.26856    61.82961
    35  C   4.0    0.04    4.43    4.43    73.96484    91.18404    63.98783
    36  C   4.0    0.09    3.31    3.06    74.60446    93.29817    65.84847
    37  O   6.0   -0.29    1.12    1.80    74.20803    93.09255    68.12407
    38  C   4.0   -0.03    4.26    4.11    76.44089    89.76927    63.39031
    39  C   4.0   -0.08    4.13    3.86    77.03720    88.04312    65.62519
    40  C   4.0   -0.07    4.13    3.87    76.25018    88.23172    60.96789
    41  H   1.0    0.11    1.10    1.44    73.16594    91.75741    60.05589
    42  H   1.0    0.05    1.05    1.44    72.66018    89.88525    64.95959
    43  H   1.0    0.04    1.06    1.44    77.95742    91.15804    63.18111
    44  H   1.0    0.04    1.00    1.43    78.76492    86.98671    65.28826
    45  H   1.0    0.05    1.00    1.43    77.26380    89.13505    67.34931
    46  H   1.0    0.04    1.00    1.43    75.49487    86.71153    65.89584
    47  H   1.0    0.04    1.00    1.43    77.72031    86.79806    60.91685
    48  H   1.0    0.04    1.02    1.43    74.41760    87.33309    60.86465
    49  H   1.0    0.06    1.01    1.43    76.45012    89.43871    59.33078
    50  N   5.0   -0.19    3.22    1.96    69.03955    95.78615    69.32391
    51  C   4.0    0.04    4.22    4.04    68.13096    93.87833    71.06031
    52  C   4.0    0.09    3.19    3.03    69.83295    93.71191    73.40438
    53  O   6.0   -0.29    1.11    1.80    68.90250    93.42231    75.50811
    54  C   4.0   -0.04    4.33    4.26    67.91931    91.30273    69.75968
    55  C   4.0   -0.02    4.18    3.95    65.89241    91.17388    67.68139
    56  C   4.0   -0.08    4.10    3.81    65.96583    88.59057    66.39057
    57  C   4.0   -0.08    4.11    3.82    63.24563    91.64878    68.71460
    58  H   1.0    0.13    1.08    1.44    69.57501    95.18754    67.58208
    59  H   1.0    0.05    1.05    1.44    66.27276    94.46512    71.77597
    60  H   1.0    0.06    1.03    1.43    69.76102    90.85668    68.94398
    61  H   1.0    0.04    1.03    1.43    67.50139    89.89655    71.21103
    62  H   1.0    0.06    1.07    1.44    66.32762    92.61263    66.26813
    63  H   1.0    0.04    1.00    1.43    64.52788    88.49445    64.92597
    64  H   1.0    0.04    1.00    1.43    67.79890    88.25109    65.52507
    65  H   1.0    0.04    1.00    1.43    65.60115    87.09615    67.75166
    66  H   1.0    0.04    1.00    1.43    61.86357    91.42127    67.21329
    67  H   1.0    0.04    1.00    1.43    62.81024    90.30887    70.20959
    68  H   1.0    0.04    1.00    1.43    63.07209    93.55071    69.46443
    69  N   5.0   -0.22    3.17    1.95    65.59272    51.27399    81.04740
    70  C   4.0    0.04    4.24    4.09    66.71402    53.29208    79.60302
    71  C   4.0    0.08    3.20    3.04    69.46520    52.80919    78.75859
    72  O   6.0   -0.28    1.17    1.80    70.65437    54.54340    77.80451
    73  C   4.0   -0.03    4.31    4.22    66.60414    55.84137    80.96378
    74  C   4.0    0.17    3.27    3.05    66.98194    57.93826    79.01069
    75  O   6.0   -0.29    1.21    1.80    65.74278    57.99135    77.06479
    76  N   5.0   -0.18    3.18    1.95    68.62888    59.75370    79.62751
    77  H   1.0    0.08    1.03    1.43    65.34167    51.57013    82.91623
    78  H   1.0    0.06    1.06    1.44    65.61633    53.45559    77.83313
    79  H   1.0    0.04    1.02    1.43    64.74987    56.14572    81.82457
    80  H   1.0    0.05    1.03    1.43    68.04441    55.89067    82.42927
    81  H   1.0    0.10    1.03    1.43    68.88759    61.18736    78.39765
    82  H   1.0    0.09    1.03    1.43    69.77212    59.62703    81.13538
    83  N   5.0   -0.22    3.25    1.97    87.08725    69.47728    41.98633
    84  C   4.0    0.03    4.27    4.14    86.11278    71.15248    43.92669
    85  C   4.0    0.15    3.44    3.09    84.85912    69.54020    45.97437
    86  O   6.0   -0.31    1.27    1.80    85.13302    69.96642    48.24073
    87  C   4.0    0.03    4.12    3.84    84.35621    73.21071    42.84357
    88  O   6.0   -0.27    2.05    1.83    81.86865    72.48236    42.38130
    89  H   1.0    0.08    1.02    1.43    86.78719    69.83021    40.13106
    90  H   1.0    0.04    1.05    1.44    87.69520    72.14121    44.83923
    91  H   1.0    0.04    1.02    1.43    84.23999    74.74106    44.22709
    92  H   1.0    0.04    1.01    1.43    85.25672    73.94647    41.11792
    93  H   1.0    0.11    1.02    1.43    81.85685    71.10109    41.15256
    94  N   5.0   -0.15    3.50    2.08    83.48722    67.63412    45.07524
    95  C   4.0    0.03    4.43    4.42    82.43661    65.74809    46.75281
    96  C   4.0    0.08    3.29    3.05    84.55464    64.64126    48.36026
    97  O   6.0   -0.30    1.18    1.80    84.42037    64.73165    50.69018
    98  C   4.0   -0.03    4.25    4.10    80.98262    63.66257    45.34944
    99  C   4.0   -0.07    4.12    3.84    79.89483    61.78193    47.25100
   100  C   4.0   -0.08    4.12    3.83    78.89602    64.81665    43.73026
   101  H   1.0    0.08    1.08    1.44    83.45238    67.32795    43.19057
   102  H   1.0    0.05    1.06    1.44    81.17640    66.71893    48.08398
   103  H   1.0    0.04    1.06    1.44    82.31360    62.67041    44.12394
   104  H   1.0    0.04    1.00    1.43    78.72902    60.39354    46.28480
   105  H   1.0    0.05    1.00    1.43    81.40204    60.78532    48.22853
   106  H   1.0    0.04    1.00    1.43    78.74357    62.74849    48.65433
   107  H   1.0    0.04    1.00    1.43    77.86535    63.34096    42.74437
   108  H   1.0    0.03    1.00    1.43    77.56584    65.84634    44.90442
   109  H   1.0    0.04    1.00    1.43    79.68471    66.12303    42.35780
   110  N   5.0   -0.19    3.22    1.96    86.37135    69.13066    53.63783
   111  C   4.0    0.03    4.19    3.98    84.42130    69.52911    55.51013
   112  C   4.0    0.10    3.22    3.04    84.18278    67.18427    57.19224
   113  O   6.0   -0.31    1.21    1.80    83.98721    67.33956    59.49167
   114  C   4.0    0.03    4.16    3.92    81.89628    69.99596    54.17437
   115  O   6.0   -0.26    2.10    1.84    81.02705    67.85184    52.92017
   116  H   1.0    0.12    1.05    1.44    85.91997    69.31747    51.77803
   117  H   1.0    0.04    1.05    1.44    84.89459    71.15192    56.71171
   118  H   1.0    0.05    1.02    1.43    80.45849    70.47497    55.57902
   119  H   1.0    0.04    1.01    1.43    82.13028    71.57650    52.84174
   120  H   1.0    0.15    1.07    1.44    82.34981    67.18858    51.80725
   121  N   5.0   -0.21    3.24    1.97    85.23426    66.23790    64.53737
   122  C   4.0    0.03    4.24    4.08    83.21421    65.30138    66.13495
   123  C   4.0    0.07    3.21    3.04    84.22402    63.12843    67.75693
   124  O   6.0   -0.32    1.17    1.80    83.87803    63.06391    70.04844
   125  C   4.0   -0.04    4.30    4.21    80.95682    64.43236    64.54711
   126  C   4.0   -0.01    3.54    3.13    79.68808    66.49511    63.03132
   127  C   4.0   -0.04    3.47    3.10    77.73777    65.87169    61.37607
   128  C   4.0   -0.03    3.53    3.13    80.48927    68.98851    63.10431
   129  C   4.0   -0.04    3.38    3.07    76.72608    67.66118    59.76248
   130  C   4.0   -0.04    3.40    3.08    79.58352    70.74528    61.39045
   131  C   4.0   -0.04    3.38    3.07    77.69322    70.09045    59.71382
   132  H   1.0    0.12    1.08    1.44    84.85978    66.43266    62.66616
   133  H   1.0    0.04    1.05    1.44    82.63902    66.78585    67.47319
   134  H   1.0    0.05    1.03    1.43    81.63630    63.00087    63.21755
   135  H   1.0    0.04    1.03    1.43    79.58400    63.51983    65.79293
   136  H   1.0    0.05    1.03    1.43    76.99758    63.96919    61.36143
   137  H   1.0    0.05    1.04    1.43    81.86325    69.58271    64.47767
   138  H   1.0    0.05    1.03    1.43    75.21657    67.15837    58.48922
   139  H   1.0    0.04    1.03    1.43    80.40926    72.60839    61.33825
   140  H   1.0    0.06    1.03    1.43    76.94982    71.46370    58.40045
   141  N   5.0   -0.20    3.25    1.97    88.90018    64.96616    72.59888
   142  C   4.0    0.03    4.39    4.36    87.66875    66.13721    74.74192
   143  C   4.0    0.15    3.45    3.10    86.19927    64.15500    76.24274
   144  O   6.0   -0.32    1.28    1.80    85.87081    64.38724    78.54237
   145  C   4.0   -0.02    4.24    4.09    86.05917    68.43934    73.99540
   146  C   4.0   -0.07    4.13    3.86    84.87812    69.63331    76.34261
   147  C   4.0   -0.08    4.12    3.85    87.70322    70.41699    72.68378
   148  H   1.0    0.09    1.02    1.43    88.37739    65.52416    70.84231
   149  H   1.0    0.05    1.06    1.44    89.14724    66.82319    76.03445
   150  H   1.0    0.05    1.05    1.44    84.58489    67.79434    72.69267
   151  H   1.0    0.04    1.00    1.43    83.79732    71.30258    75.82505
   152  H   1.0    0.05    1.00    1.43    83.66357    68.31513    77.34095
   153  H   1.0    0.05    1.00    1.43    86.36921    70.23100    77.63039
   154  H   1.0    0.04    1.00    1.43    86.57740    72.07441    72.22645
   155  H   1.0    0.04    1.00    1.43    89.23650    71.00215    73.92612
   156  H   1.0    0.04    1.00    1.43    88.51351    69.67188    70.95509
   157  N   5.0   -0.14    3.48    2.07    85.37071    62.09254    75.06673
   158  C   4.0    0.04    4.45    4.46    84.22939    60.10025    76.57273
   159  C   4.0    0.09    3.26    3.05    86.24302    58.96205    78.32523
   160  O   6.0   -0.29    1.12    1.80    85.75556    58.51658    80.55535
   161  C   4.0   -0.03    4.30    4.20    82.88151    58.10108    74.94923
   162  C   4.0   -0.05    4.21    4.02    80.67074    59.37778    73.57796
   163  C   4.0   -0.07    4.13    3.87    81.93112    55.97000    76.64748
   164  C   4.0   -0.07    4.00    3.63    79.54934    57.88301    71.39331
   165  H   1.0    0.10    1.09    1.44    85.49445    61.91166    73.16651
   166  H   1.0    0.06    1.06    1.44    82.83482    60.97863    77.84280
   167  H   1.0    0.04    1.05    1.44    84.24283    57.35321    73.58465
   168  H   1.0    0.04    1.03    1.43    79.17568    59.72077    74.95213
   169  H   1.0    0.06    1.05    1.44    81.32257    61.18732    72.84505
   170  H   1.0    0.04    1.00    1.43    80.91870    54.56452    75.54910
   171  H   1.0    0.05    1.00    1.43    83.48975    55.04605    77.61145
   172  H   1.0    0.05    1.00    1.43    80.65577    56.73531    78.06661
   173  H   1.0    0.04    1.00    1.43    78.07946    59.00091    70.48949
   174  H   1.0    0.04    1.00    1.43    80.99818    57.47871    69.99839
   175  H   1.0    0.04    1.00    1.43    78.71891    56.11977    72.02993
   176  N   5.0   -0.19    3.23    1.96    86.35881    63.01087    84.10089
   177  C   4.0    0.04    4.21    4.02    84.40866    62.83577    86.01421
   178  C   4.0    0.09    3.19    3.03    84.85016    60.40130    87.54724
   179  O   6.0   -0.27    1.11    1.80    84.81365    60.39677    89.87413
   180  C   4.0   -0.04    4.31    4.21    81.76192    62.97905    84.85331
   181  C   4.0   -0.02    4.19    3.97    81.34665    65.43085    83.34760
   182  C   4.0   -0.08    4.11    3.81    78.88937    65.28990    81.83917
   183  C   4.0   -0.07    4.10    3.81    81.26566    67.77584    85.02758
   184  H   1.0    0.12    1.04    1.43    85.95877    62.48714    82.30796
   185  H   1.0    0.05    1.05    1.44    84.66792    64.41970    87.32248
   186  H   1.0    0.05    1.03    1.43    81.48600    61.36490    83.59538
   187  H   1.0    0.05    1.03    1.43    80.37877    62.87234    86.37865
   188  H   1.0    0.05    1.06    1.44    82.91944    65.63370    82.01851
   189  H   1.0    0.04    1.01    1.43    78.66368    67.02263    80.75969
   190  H   1.0    0.04    1.00    1.43    78.92048    63.70069    80.53991
   191  H   1.0    0.04    1.00    1.43    77.27400    65.10493    83.09661
   192  H   1.0    0.05    1.00    1.43    80.81886    69.42329    83.88077
   193  H   1.0    0.05    1.00    1.43    79.81436    67.60561    86.47354
   194  H   1.0    0.05    1.00    1.43    83.07358    68.11768    85.93693
   195  N   5.0   -0.21    3.21    1.96    52.23646    85.00449    59.54193
   196  C   4.0    0.03    4.30    4.19    53.18710    82.65483    58.49121
   197  C   4.0    0.08    3.27    3.05    51.16560    81.67573    56.70978
   198  O   6.0   -0.30    1.12    1.80    51.67091    80.77838    54.64073
   199  C   4.0   -0.03    4.30    4.20    53.92614    80.69250    60.53280
   200  C   4.0   -0.05    4.17    3.95    56.25853    79.16354    59.72729
   201  C   4.0   -0.08    4.13    3.87    51.75831    78.91731    61.25177
   202  C   4.0   -0.07    4.04    3.69    55.87028    77.71338    57.27515
   203  H   1.0    0.08    1.02    1.43    51.94579    85.03362    61.43729
   204  H   1.0    0.04    1.06    1.44    54.84304    83.09287    57.33481
   205  H   1.0    0.03    1.06    1.44    54.44636    81.76314    62.22046
   206  H   1.0    0.03    1.02    1.43    57.87431    80.42893    59.52574
   207  H   1.0    0.03    1.03    1.43    56.68161    77.82301    61.23480
   208  H   1.0    0.03    1.00    1.43    52.28598    77.80410    62.89775
   209  H   1.0    0.04    1.00    1.43    50.05237    79.96088    61.68212
   210  H   1.0    0.04    1.00    1.43    51.27431    77.61265    59.74237
   211  H   1.0    0.04    1.00    1.43    57.40829    76.40077    56.92337
   212  H   1.0    0.05    1.00    1.43    54.13579    76.62290    57.35345
   213  H   1.0    0.06    1.00    1.43    55.74132    79.00652    55.68718
   214  N   5.0   -0.22    3.27    1.97    68.75660    73.24961    39.10746
   215  C   4.0    0.02    4.44    4.44    70.29746    71.78520    40.81995
   216  C   4.0    0.14    3.53    3.13    71.49542    73.46396    42.81294
   217  O   6.0   -0.33    1.37    1.80    71.60290    72.80722    45.02996
   218  C   4.0   -0.02    4.43    4.43    72.46841    70.62810    39.33172
   219  C   4.0   -0.05    4.21    4.03    71.57242    68.88096    37.22784
   220  C   4.0   -0.08    4.16    3.92    74.38029    69.34194    41.06148
   221  C   4.0   -0.08    4.05    3.70    70.44109    66.44389    38.19745
   222  H   1.0    0.08    1.03    1.43    69.37999    73.37634    37.30340
   223  H   1.0    0.04    1.05    1.44    69.17450    70.35460    41.79778
   224  H   1.0    0.04    1.08    1.44    73.35591    72.26898    38.47097
   225  H   1.0    0.04    1.03    1.43    70.23152    69.86526    36.01187
   226  H   1.0    0.04    1.04    1.43    73.22712    68.38687    36.13699
   227  H   1.0    0.03    1.00    1.43    75.65589    68.18762    39.94753
   228  H   1.0    0.05    1.00    1.43    75.49970    70.73531    42.07279
   229  H   1.0    0.04    1.00    1.43    73.43655    68.16359    42.45032
   230  H   1.0    0.04    1.00    1.43    69.80879    65.32693    36.60371
   231  H   1.0    0.04    1.00    1.43    71.85844    65.40080    39.25190
   232  H   1.0    0.04    1.00    1.43    68.84123    66.82667    39.41982
   233  N   5.0   -0.15    3.51    2.08    72.53146    75.61335    41.97658
   234  C   4.0    0.03    4.39    4.36    73.67912    77.35631    43.74745
   235  C   4.0    0.17    3.52    3.12    71.76191    77.97002    45.83057
   236  O   6.0   -0.32    1.29    1.80    72.36003    77.96350    48.06743
   237  C   4.0    0.02    4.14    3.87    74.62696    79.79261    42.44790
   238  O   6.0   -0.26    2.07    1.83    72.83326    81.72741    42.40308
   239  H   1.0    0.07    1.06    1.44    72.38713    76.13491    40.14343
   240  H   1.0    0.05    1.05    1.44    75.27923    76.42775    44.68587
   241  H   1.0    0.04    1.02    1.43    76.24317    80.51592    43.50915
   242  H   1.0    0.04    1.01    1.43    75.25532    79.33854    40.52118
   243  H   1.0    0.11    1.02    1.43    71.50729    81.21445    41.22492
   244  N   5.0   -0.14    3.53    2.10    69.43378    78.49706    45.01760
   245  C   4.0    0.03    4.52    4.57    67.40238    78.92331    46.79846
   246  C   4.0    0.16    3.54    3.13    67.10950    76.61495    48.49411
   247  O   6.0   -0.33    1.39    1.80    66.83068    76.86904    50.78908
   248  C   4.0   -0.03    4.27    4.14    64.87804    79.51177    45.49032
   249  C   4.0   -0.07    4.13    3.86    62.81384    79.94067    47.46213
   250  C   4.0   -0.08    4.13    3.85    65.15777    81.86250    43.85328
   251  H   1.0    0.07    1.07    1.44    69.00952    78.36882    43.15868
   252  H   1.0    0.05    1.05    1.44    67.94325    80.50610    48.03190
   253  H   1.0    0.04    1.05    1.44    64.38091    77.87352    44.33893
   254  H   1.0    0.04    1.00    1.43    61.01058    80.26119    46.53148
   255  H   1.0    0.05    1.01    1.43    62.62129    78.32327    48.70971
   256  H   1.0    0.04    1.00    1.43    63.28142    81.57374    48.61989
   257  H   1.0    0.04    1.00    1.43    63.40104    82.29661    42.88306
   258  H   1.0    0.04    1.00    1.43    65.64597    83.44944    45.05656
   259  H   1.0    0.04    1.00    1.43    66.64825    81.63238    42.46273
   260  N   5.0   -0.13    3.53    2.10    67.11875    74.36441    47.39085
   261  C   4.0    0.04    4.48    4.51    66.93748    72.08906    48.90557
   262  C   4.0    0.16    3.52    3.12    68.91412    72.15626    50.98822
   263  O   6.0   -0.32    1.36    1.80    68.37260    71.66726    53.20674
   264  C   4.0   -0.04    4.36    4.31    67.22727    69.69455    47.32484
   265  C   4.0   -0.02    4.21    4.03    65.33364    69.58040    45.13854
   266  C   4.0   -0.08    4.12    3.84    65.40463    66.95928    43.97038
   267  C   4.0   -0.07    4.13    3.87    62.63873    70.21895    45.90722
   268  H   1.0    0.08    1.07    1.44    67.11999    74.19577    45.48018
   269  H   1.0    0.06    1.08    1.44    65.10194    72.01580    49.84496
   270  H   1.0    0.05    1.03    1.43    69.14250    69.59233    46.56926
   271  H   1.0    0.05    1.03    1.43    66.94137    68.08160    48.58227
   272  H   1.0    0.04    1.06    1.44    65.88660    70.94861    43.70068
   273  H   1.0    0.04    1.00    1.43    64.23239    66.97189    42.28497
   274  H   1.0    0.04    1.00    1.43    67.32976    66.42163    43.48981
   275  H   1.0    0.05    1.00    1.43    64.64209    65.58934    45.29847
   276  H   1.0    0.04    1.00    1.43    61.37249    69.78836    44.35175
   277  H   1.0    0.07    1.01    1.43    62.05603    69.12700    47.54035
   278  H   1.0    0.05    1.00    1.43    62.46347    72.21166    46.36916
   279  N   5.0   -0.14    3.57    2.13    71.24520    72.70758    50.27386
   280  C   4.0    0.04    4.47    4.49    73.32664    72.68835    52.04313
   281  C   4.0    0.16    3.47    3.10    72.84284    74.57674    54.15798
   282  O   6.0   -0.32    1.28    1.80    73.21731    74.03040    56.38286
   283  C   4.0   -0.05    4.39    4.36    75.75203    73.36404    50.64155
   284  C   4.0   -0.02    4.21    4.02    76.33942    71.49472    48.51328
   285  C   4.0   -0.07    4.12    3.83    78.78429    72.27535    47.21745
   286  C   4.0   -0.07    4.13    3.86    76.49433    68.80530    49.51983
   287  H   1.0    0.11    1.12    1.45    71.64614    73.03971    48.42818
   288  H   1.0    0.05    1.05    1.44    73.47478    70.82399    52.94277
   289  H   1.0    0.06    1.03    1.43    75.52197    75.25704    49.85604
   290  H   1.0    0.04    1.03    1.43    77.31840    73.39386    51.98415
   291  H   1.0    0.06    1.07    1.44    74.83788    71.57091    47.10006
   292  H   1.0    0.05    1.01    1.43    79.25542    70.95248    45.72594
   293  H   1.0    0.05    1.00    1.43    78.59432    74.13887    46.37083
   294  H   1.0    0.05    1.00    1.43    80.33890    72.32723    48.55914
   295  H   1.0    0.04    1.01    1.43    77.18247    67.54218    48.06392
   296  H   1.0    0.06    1.03    1.43    77.78405    68.68622    51.10768
   297  H   1.0    0.04    1.00    1.43    74.65188    68.13257    50.12288
   298  N   5.0   -0.14    3.52    2.09    72.03658    76.83666    53.39832
   299  C   4.0    0.03    4.36    4.31    71.61867    78.88288    55.16682
   300  C   4.0    0.16    3.50    3.11    69.40827    78.28181    56.91627
   301  O   6.0   -0.32    1.37    1.80    69.56574    78.43855    59.22232
   302  C   4.0   -0.08    4.15    3.90    71.02987    81.27945    53.70587
   303  H   1.0    0.11    1.10    1.44    71.91604    77.26488    51.52750
   304  H   1.0    0.05    1.05    1.44    73.30292    79.10868    56.35658
   305  H   1.0    0.04    1.01    1.43    70.61239    82.81141    55.00790
   306  H   1.0    0.04    1.00    1.43    72.64498    81.77753    52.54390
   307  H   1.0    0.05    1.00    1.43    69.40404    80.94589    52.49482
   308  N   5.0   -0.14    3.57    2.13    67.27167    77.67421    55.74907
   309  C   4.0    0.03    4.44    4.44    65.04480    77.07230    57.20463
   310  C   4.0    0.16    3.49    3.11    65.71983    75.00501    59.11887
   311  O   6.0   -0.33    1.30    1.80    64.90757    75.09932    61.28542
   312  C   4.0   -0.05    4.24    4.08    62.82348    76.43589    55.44525
   313  C   4.0   -0.03    4.26    4.12    62.98553    73.75312    54.42888
   314  C   4.0    0.15    3.22    3.04    61.39842    72.96526    52.19320
   315  O   6.0   -0.30    1.23    1.80    61.41730    70.75001    51.53536
   316  N   5.0   -0.19    3.19    1.95    60.18493    74.73275    50.83846
   317  H   1.0    0.12    1.15    1.45    67.21138    77.44394    53.84284
   318  H   1.0    0.05    1.05    1.44    64.53687    78.73098    58.35083
   319  H   1.0    0.04    1.03    1.43    61.08728    76.71795    56.51061
   320  H   1.0    0.05    1.03    1.43    62.90433    77.78430    53.88589
   321  H   1.0    0.08    1.07    1.44    64.91278    73.43676    53.76960
   322  H   1.0    0.05    1.03    1.43    62.64395    72.36527    55.91594
   323  H   1.0    0.08    1.03    1.43    59.88396    76.47745    51.50666
   324  H   1.0    0.09    1.03    1.43    59.12607    74.12559    49.36844
   325  N   5.0   -0.13    3.53    2.10    67.23935    73.16916    58.28656
   326  C   4.0    0.04    4.46    4.48    67.94215    71.04832    59.86055
   327  C   4.0    0.15    3.49    3.11    69.63595    71.94334    62.01022
   328  O   6.0   -0.32    1.33    1.80    69.21052    71.25118    64.18760
   329  C   4.0    0.06    4.22    4.04    69.13004    68.90001    58.26382
   330  O   6.0   -0.25    2.13    1.84    67.31179    67.90665    56.59328
   331  C   4.0   -0.07    4.10    3.80    69.97422    66.71632    59.94368
   332  H   1.0    0.11    1.10    1.44    67.84305    73.11851    56.47362
   333  H   1.0    0.06    1.06    1.44    66.23174    70.27635    60.75511
   334  H   1.0    0.06    1.03    1.43    70.74752    69.67485    57.21099
   335  H   1.0    0.15    1.06    1.44    67.20845    68.96933    55.10494
   336  H   1.0    0.05    1.00    1.43    70.81126    65.23848    58.78791
   337  H   1.0    0.05    1.00    1.43    71.32716    67.32973    61.35659
   338  H   1.0    0.05    1.00    1.43    68.31085    65.94249    60.86264
   339  N   5.0   -0.14    3.51    2.09    71.49682    73.53952    61.44238
   340  C   4.0    0.04    4.51    4.54    73.10374    74.44839    63.48345
   341  C   4.0    0.16    3.50    3.11    71.38617    75.77724    65.40125
   342  O   6.0   -0.32    1.31    1.80    71.55478    75.34099    67.67555
   343  C   4.0   -0.02    4.29    4.19    75.39253    75.94340    62.46615
   344  C   4.0   -0.05    4.19    3.97    77.66104    75.80365    64.27284
   345  C   4.0   -0.07    4.12    3.84    74.85536    78.68474    61.77098
   346  C   4.0   -0.08    4.04    3.70    77.12272    76.71685    66.93969
   347  H   1.0    0.11    1.10    1.44    71.95013    73.96847    59.62531
   348  H   1.0    0.05    1.06    1.44    73.85764    72.79251    64.49048
   349  H   1.0    0.05    1.07    1.44    75.92485    74.93383    60.73878
   350  H   1.0    0.04    1.04    1.43    78.27788    73.84694    64.42530
   351  H   1.0    0.03    1.03    1.43    79.19608    76.90661    63.44201
   352  H   1.0    0.04    1.00    1.43    76.43516    79.43660    60.69307
   353  H   1.0    0.07    1.02    1.43    73.14757    78.83402    60.65486
   354  H   1.0    0.04    1.00    1.43    74.64238    79.84896    63.44407
   355  H   1.0    0.03    1.00    1.43    78.86631    76.89307    68.00882
   356  H   1.0    0.04    1.00    1.43    76.15634    78.52600    66.97196
   357  H   1.0    0.05    1.01    1.43    75.93986    75.33726    67.88494
   358  N   5.0   -0.14    3.56    2.13    69.67898    77.35713    64.44477
   359  C   4.0    0.03    4.46    4.47    68.03022    78.84233    66.05577
   360  C   4.0    0.16    3.49    3.11    66.56200    77.08157    67.80724
   361  O   6.0   -0.32    1.29    1.80    66.44347    77.45890    70.09448
   362  C   4.0   -0.04    4.32    4.23    66.22084    80.44528    64.45851
   363  C   4.0   -0.01    3.55    3.14    67.52694    82.29240    62.71955
   364  C   4.0   -0.04    3.47    3.10    66.12813    83.62716    60.93357
   365  C   4.0   -0.03    3.54    3.13    70.12821    82.59626    62.72621
   366  C   4.0   -0.04    3.38    3.07    67.31051    85.13859    59.15781
   367  C   4.0   -0.04    3.40    3.08    71.31934    83.97373    60.85615
   368  C   4.0   -0.04    3.38    3.07    69.92144    85.28200    59.08254
   369  H   1.0    0.12    1.12    1.45    69.51222    77.60151    62.55350
   370  H   1.0    0.05    1.05    1.44    69.19565    80.04257    67.28852
   371  H   1.0    0.06    1.03    1.43    65.08984    79.16690    63.28885
   372  H   1.0    0.04    1.03    1.43    64.92235    81.44613    65.71253
   373  H   1.0    0.04    1.03    1.43    64.09028    83.50679    60.94122
   374  H   1.0    0.05    1.05    1.44    71.27406    81.72915    64.16292
   375  H   1.0    0.04    1.03    1.43    66.20021    86.15903    57.78504
   376  H   1.0    0.04    1.03    1.43    73.35193    83.94193    60.75252
   377  H   1.0    0.05    1.03    1.43    70.87029    86.44039    57.69575
   378  N   5.0   -0.14    3.53    2.10    65.38802    75.17117    66.66980
   379  C   4.0    0.03    4.43    4.44    63.82486    73.46608    68.12144
   380  C   4.0    0.16    3.48    3.11    65.42326    71.93860    69.97184
   381  O   6.0   -0.32    1.32    1.80    64.60292    71.36758    72.07109
   382  C   4.0   -0.04    4.34    4.27    62.23064    71.74046    66.44050
   383  C   4.0   -0.02    4.20    3.99    60.45984    73.13954    64.62396
   384  C   4.0   -0.08    4.13    3.87    59.03869    71.20349    63.03893
   385  C   4.0   -0.08    4.11    3.83    58.56105    74.83461    65.95977
   386  H   1.0    0.11    1.10    1.44    65.52960    74.91030    64.77767
   387  H   1.0    0.05    1.07    1.44    62.57051    74.60681    69.31090
   388  H   1.0    0.05    1.03    1.43    63.48633    70.54546    65.32054
   389  H   1.0    0.04    1.03    1.43    61.09590    70.52640    67.66354
   390  H   1.0    0.06    1.07    1.44    61.59319    74.29091    63.34546
   391  H   1.0    0.03    1.01    1.43    57.74617    72.17396    61.77989
   392  H   1.0    0.04    1.00    1.43    60.35431    70.10038    61.91010
   393  H   1.0    0.05    1.00    1.43    57.95797    69.92176    64.22943
   394  H   1.0    0.03    1.00    1.43    57.26822    75.61895    64.57099
   395  H   1.0    0.04    1.00    1.43    57.46589    73.74684    67.31112
   396  H   1.0    0.04    1.00    1.43    59.49227    76.38837    66.91777
   397  N   5.0   -0.13    3.54    2.11    67.74879    71.31012    69.25587
   398  C   4.0    0.04    4.47    4.49    69.29622    69.87542    70.99964
   399  C   4.0    0.16    3.52    3.12    69.87075    71.54743    73.28557
   400  O   6.0   -0.32    1.31    1.80    69.64989    70.78301    75.46641
   401  C   4.0   -0.03    4.31    4.22    71.65516    68.90224    69.65406
   402  C   4.0   -0.02    3.53    3.13    73.28993    67.12194    71.16725
   403  C   4.0   -0.04    3.46    3.10    75.47711    66.15720    70.05927
   404  C   4.0   -0.03    3.50    3.12    72.76000    66.46209    73.65125
   405  C   4.0   -0.04    3.37    3.07    77.18620    64.77795    71.47176
   406  C   4.0   -0.04    3.40    3.08    74.48666    65.11062    75.08510
   407  C   4.0   -0.04    3.38    3.07    76.74048    64.33456    74.01433
   408  H   1.0    0.12    1.11    1.45    68.41033    71.60765    67.48327
   409  H   1.0    0.06    1.06    1.44    68.14558    68.29250    71.69562
   410  H   1.0    0.05    1.03    1.43    71.00960    67.98171    67.92049
   411  H   1.0    0.05    1.03    1.43    72.81575    70.51962    69.08399
   412  H   1.0    0.05    1.03    1.43    75.83664    66.49409    68.07660
   413  H   1.0    0.07    1.05    1.44    71.01253    67.02369    74.52101
   414  H   1.0    0.05    1.03    1.43    78.89382    64.08177    70.60250
   415  H   1.0    0.05    1.03    1.43    74.08121    64.69157    77.04465
   416  H   1.0    0.04    1.03    1.43    78.12757    63.38459    75.15714
   417  N   5.0   -0.14    3.51    2.09    70.55779    73.91943    72.78900
   418  C   4.0    0.04    4.47    4.49    71.15106    75.50170    74.93809
   419  C   4.0    0.15    3.54    3.13    68.80881    75.93414    76.54758
   420  O   6.0   -0.32    1.35    1.80    68.99321    76.09791    78.87056
   421  C   4.0   -0.04    4.34    4.28    72.33706    78.04469    74.26320
   422  C   4.0   -0.02    4.19    3.98    74.77638    77.80405    72.72516
   423  C   4.0   -0.08    4.11    3.82    75.82032    80.43440    72.16174
   424  C   4.0   -0.07    4.11    3.82    76.76803    76.20724    74.06283
   425  H   1.0    0.12    1.10    1.44    70.71167    74.57740    70.99435
   426  H   1.0    0.06    1.06    1.44    72.46514    74.44350    76.15143
   427  H   1.0    0.05    1.03    1.43    70.97404    79.16063    73.19163
   428  H   1.0    0.05    1.03    1.43    72.74953    79.00372    76.04376
   429  H   1.0    0.05    1.07    1.44    74.29564    76.88739    70.94593
   430  H   1.0    0.04    1.00    1.43    77.60888    80.29351    71.16538
   431  H   1.0    0.04    1.00    1.43    74.50554    81.49724    70.99624
   432  H   1.0    0.04    1.00    1.43    76.14698    81.45677    73.91201
   433  H   1.0    0.04    1.00    1.43    78.49958    76.15944    72.95965
   434  H   1.0    0.05    1.00    1.43    77.21463    76.96217    75.92226
   435  H   1.0    0.05    1.00    1.43    76.13239    74.26904    74.30313
   436  N   5.0   -0.14    3.52    2.09    66.57469    76.20158    75.41860
   437  C   4.0    0.03    4.55    4.61    64.40169    76.54649    77.07020
   438  C   4.0    0.15    3.51    3.12    64.09102    74.17978    78.70992
   439  O   6.0   -0.33    1.27    1.80    63.44344    74.33772    80.93539
   440  C   4.0   -0.03    4.30    4.19    61.93335    77.33870    75.74115
   441  C   4.0   -0.04    4.22    4.03    60.76638    75.05182    74.41011
   442  C   4.0   -0.08    4.13    3.87    62.45989    79.58325    74.00683
   443  C   4.0   -0.08    4.02    3.66    58.74425    75.65968    72.46034
   444  H   1.0    0.11    1.08    1.44    66.40239    76.19842    73.50774
   445  H   1.0    0.05    1.07    1.44    64.90307    78.04335    78.40918
   446  H   1.0    0.04    1.05    1.44    60.64911    77.95547    77.24281
   447  H   1.0    0.07    1.06    1.44    62.25492    74.03431    73.42998
   448  H   1.0    0.04    1.03    1.43    60.00808    73.79721    75.86160
   449  H   1.0    0.03    1.00    1.43    60.72576    80.37056    73.24569
   450  H   1.0    0.04    1.00    1.43    63.41332    81.05331    75.07045
   451  H   1.0    0.06    1.02    1.43    63.65963    79.01396    72.44614
   452  H   1.0    0.04    1.00    1.43    58.19049    73.92873    71.50098
   453  H   1.0    0.04    1.00    1.43    57.07435    76.51391    73.28743
   454  H   1.0    0.04    1.01    1.43    59.52165    76.94675    71.06789
   455  N   5.0   -0.14    3.55    2.11    64.64790    72.00017    77.58433
   456  C   4.0    0.04    4.33    4.26    64.59660    69.61765    78.90136
   457  C   4.0    0.15    3.39    3.08    66.74814    69.38102    80.85905
   458  O   6.0   -0.32    1.24    1.80    66.84119    67.51544    82.22084
   459  C   4.0   -0.06    4.13    3.86    64.86326    67.44941    77.02092
   460  H   1.0    0.11    1.10    1.44    64.99282    71.88863    75.70101
   461  H   1.0    0.05    1.05    1.44    62.78629    69.46008    79.91771
   462  H   1.0    0.05    1.00    1.43    64.57987    65.65333    77.97182
   463  H   1.0    0.05    1.00    1.43    63.52983    67.61402    75.46651
   464  H   1.0    0.06    1.01    1.43    66.76967    67.54003    76.27023
   465  N   5.0   -0.13    3.51    2.08    68.40836    71.29146    80.99161
   466  C   4.0    0.03    4.40    4.38    70.40901    71.50143    82.84330
   467  C   4.0    0.14    3.46    3.10    69.80672    73.34332    84.99500
   468  O   6.0   -0.31    1.24    1.80    70.72195    72.99894    87.09805
   469  C   4.0   -0.03    4.32    4.24    72.91106    72.37717    81.69825
   470  C   4.0   -0.03    4.22    4.04    74.03030    70.45665    79.87148
   471  C   4.0    0.14    3.22    3.04    76.55690    71.40617    78.88814
   472  O   6.0   -0.30    1.23    1.80    77.55409    73.34125    79.65037
   473  N   5.0   -0.20    3.18    1.95    77.63664    69.98010    77.08314
   474  H   1.0    0.12    1.13    1.45    68.47280    72.59827    79.59662
   475  H   1.0    0.06    1.06    1.44    70.69080    69.67093    83.76293
   476  H   1.0    0.07    1.03    1.43    72.62552    74.16988    80.72246
   477  H   1.0    0.06    1.03    1.43    74.23276    72.68889    83.25513
   478  H   1.0    0.04    1.03    1.43    74.31603    68.66879    80.85747
   479  H   1.0    0.06    1.03    1.43    72.72395    70.12960    78.30876
   480  H   1.0    0.08    1.05    1.44    76.86674    68.36380    76.43305
   481  H   1.0    0.09    1.03    1.43    79.35408    70.51514    76.44246
   482  N   5.0   -0.14    3.48    2.06    68.22295    75.24587    84.45705
   483  C   4.0    0.04    4.39    4.37    67.37569    76.97061    86.41929
   484  C   4.0    0.15    3.46    3.10    65.09472    75.84747    87.80230
   485  O   6.0   -0.32    1.34    1.80    64.90815    76.03210    90.12080
   486  C   4.0   -0.04    4.25    4.09    66.78156    79.66237    85.50086
   487  C   4.0   -0.04    4.20    4.00    64.98668    79.77823    83.23512
   488  C   4.0   -0.05    4.18    3.95    63.61743    82.32262    83.00077
   489  C   4.0   -0.04    4.13    3.85    65.42397    84.56654    82.87213
   490  N   5.0   -0.12    4.00    2.86    67.00497    84.30263    80.58169
   491  H   1.0    0.11    1.08    1.44    67.72968    75.53180    82.63077
   492  H   1.0    0.07    1.06    1.44    68.88469    77.08338    87.84732
   493  H   1.0    0.05    1.03    1.43    65.96883    80.66244    87.11242
   494  H   1.0    0.05    1.02    1.43    68.56947    80.57814    85.03018
   495  H   1.0    0.05    1.03    1.43    66.10696    79.34924    81.55659
   496  H   1.0    0.05    1.04    1.43    63.54416    78.32185    83.38307
   497  H   1.0    0.04    1.02    1.43    62.43724    82.29959    81.30816
   498  H   1.0    0.04    1.03    1.43    62.39027    82.54987    84.63556
   499  H   1.0    0.04    1.02    1.43    64.37142    86.33506    82.78861
   500  H   1.0    0.04    1.02    1.43    66.62757    84.59271    84.53954
   501  H   1.0    0.05    0.95    1.42    68.88317    85.24629    80.51119
   502  H   1.0    0.05    1.05    1.44    67.51925    82.44205    80.44117
   503  H   1.0    0.05    1.02    1.43    65.99432    84.79578    79.01067
   504  N   5.0   -0.15    3.52    2.09    63.34459    74.69602    86.40914
   505  C   4.0    0.03    4.50    4.54    61.16465    73.48422    87.54379
   506  C   4.0    0.15    3.54    3.13    61.82937    71.55890    89.60115
   507  O   6.0   -0.32    1.31    1.80    60.51170    71.48623    91.51810
   508  C   4.0   -0.02    4.27    4.13    59.50232    72.34599    85.43846
   509  C   4.0   -0.07    4.13    3.87    57.49325    70.57914    86.50607
   510  C   4.0   -0.07    4.12    3.85    58.22472    74.47815    83.96886
   511  H   1.0    0.10    1.10    1.44    63.57149    74.44877    84.51402
   512  H   1.0    0.05    1.06    1.44    60.03845    74.92291    88.53561
   513  H   1.0    0.05    1.05    1.44    60.75341    71.28610    84.17494
   514  H   1.0    0.04    1.00    1.43    56.34155    69.84335    84.97362
   515  H   1.0    0.05    1.00    1.43    58.34775    69.01020    87.51749
   516  H   1.0    0.04    1.00    1.43    56.27592    71.59099    87.81506
   517  H   1.0    0.04    1.00    1.43    57.05951    73.68595    82.47662
   518  H   1.0    0.04    1.00    1.43    57.01678    75.57938    85.21289
   519  H   1.0    0.05    1.00    1.43    59.62689    75.70807    83.12257
   520  N   5.0   -0.10    3.66    2.22    63.69664    69.88525    89.23281
   521  C   4.0    0.03    4.59    4.66    64.23100    67.97087    91.13735
   522  C   4.0    0.16    3.49    3.11    65.20117    69.21612    93.53114
   523  O   6.0   -0.30    1.33    1.80    64.22636    68.77430    95.59134
   524  C   4.0   -0.05    4.31    4.21    66.23459    66.23804    89.97062
   525  C   4.0   -0.04    4.24    4.08    67.51922    67.84749    87.93861
   526  C   4.0    0.00    4.43    4.44    65.77570    70.10714    87.46975
   527  H   1.0    0.06    1.05    1.44    62.49904    66.96021    91.65203
   528  H   1.0    0.05    1.02    1.43    67.57327    65.60858    91.40201
   529  H   1.0    0.04    1.02    1.43    65.34136    64.57423    89.15618
   530  H   1.0    0.05    1.02    1.43    69.36809    68.52720    88.55064
   531  H   1.0    0.06    1.04    1.43    67.75621    66.80683    86.18474
   532  H   1.0    0.07    1.08    1.44    66.80580    71.85252    87.83078
   533  H   1.0    0.06    1.03    1.43    65.09905    70.13509    85.52642
   534  N   5.0   -0.14    3.54    2.11    67.11342    70.83017    93.26988
   535  C   4.0    0.04    4.43    4.43    68.15816    72.11930    95.44388
   536  C   4.0    0.17    3.50    3.12    66.01262    73.44477    96.85696
   537  O   6.0   -0.26    1.24    1.80    65.74818    73.25260    99.14769
   538  C   4.0   -0.03    4.28    4.15    70.19205    73.98951    94.60278
   539  C   4.0   -0.02    4.18    3.96    72.40615    72.69867    93.29956
   540  C   4.0    0.26    3.08    3.02    74.58766    74.57466    92.58015
   541  O   6.0   -0.27    1.18    1.80    74.24457    76.86323    93.00016
   542  O   6.0   -0.27    1.16    1.80    76.49659    73.58187    91.62034
   543  H   1.0    0.08    1.08    1.44    68.01440    71.09094    91.61325
   544  H   1.0    0.06    1.05    1.44    68.96978    70.72801    96.75848
   545  H   1.0    0.07    1.03    1.43    69.38888    75.38473    93.31295
   546  H   1.0    0.06    1.03    1.43    70.89257    75.00187    96.25639
   547  H   1.0    0.05    1.02    1.43    73.21532    71.23051    94.50130
   548  H   1.0    0.06    1.03    1.43    71.85140    71.83819    91.50939
   549  N   5.0   -0.13    3.51    2.09    64.45910    74.80529    95.39798
   550  C   4.0    0.04    4.47    4.49    62.27841    76.08965    96.45277
   551  C   4.0    0.16    3.52    3.12    60.77500    74.21514    98.05167
   552  O   6.0   -0.27    1.23    1.80    60.16221    74.67897   100.23344
   553  C   4.0    0.06    4.25    4.09    60.54682    77.15620    94.34662
   554  O   6.0   -0.25    2.12    1.84    61.75467    79.05971    92.94757
   555  C   4.0   -0.06    4.10    3.81    58.15571    78.29079    95.48698
   556  H   1.0    0.11    1.10    1.44    64.79797    74.99356    93.52227
   557  H   1.0    0.07    1.05    1.44    62.89740    77.63976    97.68908
   558  H   1.0    0.06    1.04    1.43    60.03752    75.56410    93.11149
   559  H   1.0    0.15    1.07    1.44    63.07025    78.29928    91.91871
   560  H   1.0    0.05    1.00    1.43    57.00483    79.09719    93.99229
   561  H   1.0    0.05    1.01    1.43    57.08417    76.84960    96.47726
   562  H   1.0    0.06    1.00    1.43    58.67238    79.78313    96.79661
   563  N   5.0   -0.13    3.50    2.08    60.11003    72.11232    96.83654
   564  C   4.0    0.04    4.28    4.16    58.42489    70.26479    97.94516
   565  C   4.0    0.12    3.21    3.04    59.47789    69.16275   100.41841
   566  O   6.0   -0.27    1.12    1.80    58.07059    68.71512   102.18614
   567  C   4.0    0.04    4.14    3.89    57.84086    68.22094    95.95677
   568  O   6.0   -0.24    2.05    1.83    59.62980    66.27359    95.82601
   569  H   1.0    0.11    1.11    1.45    60.61811    71.83606    95.00557
   570  H   1.0    0.06    1.05    1.44    56.64875    71.19218    98.49434
   571  H   1.0    0.05    1.02    1.43    56.04206    67.31383    96.38231
   572  H   1.0    0.05    1.02    1.43    57.69957    69.18682    94.12484
   573  H   1.0    0.15    1.07    1.44    61.29848    67.04313    95.67897
   574  N   5.0   -0.22    3.19    1.95    44.51262    64.75515    86.48502
   575  C   4.0    0.03    4.22    4.04    47.01471    64.07357    85.57966
   576  C   4.0    0.07    3.21    3.04    46.87214    62.27483    83.32202
   577  O   6.0   -0.30    1.12    1.80    48.35647    62.49411    81.55478
   578  C   4.0   -0.05    4.35    4.28    48.57783    62.77044    87.64645
   579  C   4.0   -0.03    4.17    3.94    49.11257    64.40057    89.98849
   580  C   4.0   -0.08    4.10    3.81    50.73997    62.90535    91.84965
   581  C   4.0   -0.08    4.11    3.83    50.44846    66.85218    89.27440
   582  H   1.0    0.08    1.03    1.43    44.27815    64.80272    88.37926
   583  H   1.0    0.04    1.05    1.44    48.00159    65.76227    84.89177
   584  H   1.0    0.04    1.03    1.43    47.61676    61.02903    88.19931
   585  H   1.0    0.05    1.03    1.43    50.38845    62.24657    86.80800
   586  H   1.0    0.04    1.05    1.44    47.33870    64.87702    90.94333
   587  H   1.0    0.04    1.00    1.43    51.04695    64.00412    93.55802
   588  H   1.0    0.04    1.00    1.43    49.84373    61.13409    92.37068
   589  H   1.0    0.04    1.00    1.43    52.57567    62.48202    91.03153
   590  H   1.0    0.04    1.00    1.43    50.93924    67.89937    90.96964
   591  H   1.0    0.04    1.00    1.43    52.18403    66.46348    88.24403
   592  H   1.0    0.04    1.00    1.43    49.24536    68.04056    88.11197
   593  N   5.0   -0.20    3.21    1.96    44.91724    65.99263    77.59157
   594  C   4.0    0.03    4.29    4.19    47.07913    67.31007    76.53944
   595  C   4.0    0.08    3.25    3.04    48.62855    65.40324    75.02528
   596  O   6.0   -0.32    1.19    1.80    49.34651    65.81484    72.86028
   597  C   4.0   -0.02    4.26    4.11    48.72528    68.52314    78.60591
   598  C   4.0   -0.07    4.14    3.87    51.13210    69.60189    77.43268
   599  C   4.0   -0.08    4.11    3.82    47.30321    70.61362    79.99302
   600  H   1.0    0.08    1.02    1.43    44.61967    66.05241    79.48551
   601  H   1.0    0.04    1.05    1.44    46.43633    68.75975    75.19767
   602  H   1.0    0.05    1.05    1.44    49.23843    67.03774    79.95272
   603  H   1.0    0.04    1.00    1.43    52.29638    70.48435    78.87471
   604  H   1.0    0.05    1.00    1.43    52.22886    68.13168    76.50744
   605  H   1.0    0.04    1.00    1.43    50.66064    71.02833    76.03002
   606  H   1.0    0.04    1.00    1.43    48.53510    71.44686    81.40928
   607  H   1.0    0.04    1.00    1.43    46.75190    72.09504    78.68128
   608  H   1.0    0.04    1.00    1.43    45.62406    69.88203    80.91711
   609  N   5.0   -0.21    3.22    1.96    49.37133    65.85812    67.65207
   610  C   4.0    0.04    4.20    4.01    51.95845    66.10051    66.80702
   611  C   4.0    0.09    3.22    3.04    52.68292    63.81705    65.19711
   612  O   6.0   -0.33    1.23    1.80    53.60158    64.07465    63.08704
   613  C   4.0    0.04    4.15    3.89    53.75437    66.38143    69.05617
   614  O   6.0   -0.26    2.06    1.83    56.17180    66.92758    68.09410
   615  H   1.0    0.12    1.08    1.44    49.03626    65.89801    69.53931
   616  H   1.0    0.04    1.05    1.44    52.17617    67.75006    65.56233
   617  H   1.0    0.05    1.01    1.43    53.07590    67.92038    70.27252
   618  H   1.0    0.05    1.01    1.43    53.75786    64.62091    70.15129
   619  H   1.0    0.12    1.02    1.43    57.37376    66.92750    69.46434
   620  N   5.0   -0.20    3.27    1.97    49.26042    64.41734    58.92288
   621  C   4.0    0.03    4.39    4.36    50.29950    66.35671    57.28980
   622  C   4.0    0.15    3.49    3.11    52.75952    65.22414    56.29227
   623  O   6.0   -0.28    1.22    1.80    53.18565    65.30718    54.00689
   624  C   4.0   -0.03    4.30    4.19    50.56346    69.04750    58.39216
   625  C   4.0   -0.05    4.19    3.98    52.93051    69.38190    60.01964
   626  C   4.0   -0.08    4.10    3.81    48.15281    69.81028    59.78099
   627  C   4.0   -0.07    4.06    3.73    55.27368    69.75446    58.37287
   628  H   1.0    0.09    1.02    1.43    49.27256    64.65014    60.82310
   629  H   1.0    0.05    1.06    1.44    49.06436    66.52205    55.62740
   630  H   1.0    0.04    1.06    1.44    50.77532    70.28941    56.74381
   631  H   1.0    0.03    1.03    1.43    52.68766    71.03843    61.22177
   632  H   1.0    0.06    1.04    1.43    53.17101    67.75426    61.24969
   633  H   1.0    0.04    1.00    1.43    48.32488    71.72419    60.50582
   634  H   1.0    0.04    1.00    1.43    46.54056    69.73811    58.51291
   635  H   1.0    0.04    1.00    1.43    47.80195    68.55025    61.35571
   636  H   1.0    0.04    1.00    1.43    56.95663    69.03246    59.28581
   637  H   1.0    0.06    1.03    1.43    55.08786    68.78161    56.58193
   638  H   1.0    0.04    1.00    1.43    55.54425    71.73991    57.93418
   639  N   5.0   -0.15    3.52    2.09    54.23627    64.06788    57.96238
   640  C   4.0    0.04    4.40    4.37    56.67468    62.97049    57.40035
   641  C   4.0    0.09    3.28    3.05    56.40284    60.86508    55.46396
   642  O   6.0   -0.28    1.12    1.80    57.87124    60.72906    53.66895
   643  C   4.0   -0.02    4.27    4.14    57.94840    62.03256    59.84554
   644  C   4.0   -0.07    4.14    3.89    59.89376    59.98149    59.29393
   645  C   4.0   -0.07    4.11    3.83    59.19763    64.24954    61.20522
   646  H   1.0    0.11    1.14    1.45    53.77434    64.05101    59.82347
   647  H   1.0    0.06    1.06    1.44    57.90789    64.39616    56.52284
   648  H   1.0    0.06    1.06    1.44    56.47196    61.23759    61.04467
   649  H   1.0    0.04    1.00    1.43    60.76702    59.38097    61.05120
   650  H   1.0    0.05    1.00    1.43    59.04433    58.33250    58.41133
   651  H   1.0    0.05    1.00    1.43    61.32588    60.69880    58.00773
   652  H   1.0    0.05    1.00    1.43    60.11490    63.62356    62.93214
   653  H   1.0    0.04    1.00    1.43    60.61525    65.09554    59.98098
   654  H   1.0    0.05    1.00    1.43    57.80974    65.67379    61.70480
   655  H   1.0    0.09    1.07    1.44    70.59625    91.82831    50.37705
   656  H   1.0    0.05    1.05    1.44    75.98803    91.81100    54.09428
   657  H   1.0    0.09    1.07    1.44    70.54166    97.71972    58.24910
   658  H   1.0    0.06    1.05    1.44    75.36971    94.90854    65.22223
   659  H   1.0    0.09    1.07    1.44    67.81806    96.93920    69.05741
   660  H   1.0    0.07    1.04    1.43    71.70938    93.83965    73.22059
   661  H   1.0    0.10    1.07    1.44    64.04523    50.92771    80.43264
   662  H   1.0    0.06    1.04    1.43    70.24091    51.10254    78.99667
   663  H   1.0    0.09    1.07    1.44    88.78239    69.40081    42.10128
   664  H   1.0    0.05    1.04    1.43    86.05227    63.84228    47.52972
   665  H   1.0    0.09    1.07    1.44    87.63374    70.24270    53.88741
   666  H   1.0    0.07    1.05    1.44    84.18386    65.46102    56.41672
   667  H   1.0    0.09    1.07    1.44    85.70603    67.78392    65.06633
   668  H   1.0    0.05    1.05    1.44    85.19065    61.71838    66.95166
   669  H   1.0    0.09    1.07    1.44    90.57340    65.26147    72.67442
   670  H   1.0    0.06    1.04    1.43    87.96809    58.57625    77.65714
   671  H   1.0    0.10    1.07    1.44    86.87543    64.62538    83.96290
   672  H   1.0    0.07    1.04    1.44    85.17714    58.76843    86.65399
   673  H   1.0    0.09    1.07    1.44    53.34016    86.25786    59.22023
   674  H   1.0    0.05    1.05    1.44    49.34565    81.75128    57.21291
   675  H   1.0    0.09    1.07    1.44    67.20173    72.56638    39.01729
   676  H   1.0    0.08    1.04    1.44    61.32688    68.80915   100.58353
   677  H   1.0    0.09    1.07    1.44    44.11145    66.31102    85.92743
   678  H   1.0    0.06    1.04    1.44    45.56425    60.91144    83.28131
   679  H   1.0    0.09    1.07    1.44    43.48718    66.61942    76.91732
   680  H   1.0    0.06    1.05    1.44    49.09622    63.74195    75.79500
   681  H   1.0    0.09    1.07    1.44    48.44300    67.13069    67.01070
   682  H   1.0    0.06    1.05    1.44    52.41007    62.06865    65.86023
   683  H   1.0    0.09    1.07    1.44    47.61722    64.18321    58.55186
   684  H   1.0    0.06    1.04    1.44    55.02561    59.58427    55.64785

  Z AO/shell   Hii/eV     exponent
  1     Wed Apr 25 08:07:45 CEST 2018   EN: 2.200 GM2: 0.406  GM3: 0.0800  RAES: 1.40
     1s    -10.707211    1.230000
  6     Wed Apr 25 08:07:45 CEST 2018   EN: 2.550 GM2: 0.538  GM3: 0.1500  RAES: 3.00
     2s    -13.970922    2.096432
     2p    -10.063292    1.800000
  7     Wed Apr 25 08:07:45 CEST 2018   EN: 3.040 GM2: 0.461  GM3:-0.0640  RAES: 1.90
     2s    -16.686243    2.339881
     2p    -12.523956    2.014332
  8     Wed Apr 25 08:07:45 CEST 2018   EN: 3.440 GM2: 0.452  GM3:-0.0517  RAES: 1.80
     2s    -20.229985    2.439742
     2p    -15.503117    2.137023
 no old-style atom pair restraining (fixing) potential

molecular fragmentation (1/2 indicates fragments):
111111111111111111122222222222222222222222222222222222222222222222222222
222222222222222222222222222222222222222222222222222222222222222222222222
222222222222222222222222222222222222222222222222222222222222222222222222
222222222222222222222222222222222222222222222222222222222222222222222222
222222222222222222222222222222222222222222222222222222222222222222222222
222222222222222222222222222222222222222222222222222222222222222222222222
222222222222222222222222222222222222222222222222222222222222222222222222
222222222222222222222222222222222222222222222222222222222222222222222222
222222222222222222222222222222222222222222222222222222222222222222222222
222222112222222222222222222222222222
# atoms in fragment 1/2:    21   663
 fragment masses (1/2) :      115.17     4240.37
CMA distance (Bohr)    :  23.787
constraining FC (au)   :  0.0500
           ------------------------------------------------- 
          |        Self-Consistent Charge Iterations        |
           ------------------------------------------------- 

 Ncao       : 1602
 Nao        : 1602
 Nshell     : 990
 Nel        : 1752
 T(el)      :   500.0
 intcut     :    35.0
 scfconv/Eh :  0.100E-06
   qconv/e  :  0.100E-04
 intneglect :  0.100E-08
 broydamp   :      0.400
 iter      E             dE          RMSdq      gap      omega  full diag
   1   -994.7363122 -0.994736E+03  0.433E+00    3.06       0.0  T
   2   -996.8926073 -0.215630E+01  0.204E+00    1.81       1.0  T
   3   -997.0224466 -0.129839E+00  0.118E+00    1.84       1.0  T
   4   -997.1794321 -0.156986E+00  0.221E-01    1.17       1.0  T
   5   -997.1871300 -0.769794E-02  0.102E-01    1.35       1.0  T
   6   -997.1883124 -0.118231E-02  0.416E-02    1.30       1.0  T
   7   -997.1885972 -0.284804E-03  0.186E-02    1.29       1.0  T
   8   -997.1886385 -0.413506E-04  0.834E-03    1.28       1.0  T
   9   -997.1886513 -0.127464E-04  0.386E-03    1.27       1.0  T
  10   -997.1886536 -0.238851E-05  0.172E-03    1.27       2.2  T
  11   -997.1886540 -0.368807E-06  0.790E-04    1.27       4.8  T
  12   -997.1886541 -0.793361E-07  0.357E-04    1.27      10.7  T
  13   -997.1886541 -0.293280E-07  0.181E-04    1.27      21.1  T
  14   -997.1886541 -0.477939E-08  0.882E-05    1.27      43.3  T
  15   -997.1886541 -0.136356E-08  0.349E-05    1.27     109.5  T
speedup  1.00
cpu  time for SCC   21.52 s
wall time for SCC   21.52 s

   *** convergence criteria satisfied after 15 iterations ***

          eigenvalues
 #    :         864        865        866        867        868        869        870        871
 occ. :        2.000      2.000      2.000      2.000      2.000      2.000      2.000      2.000
 eps  :       -10.095    -10.036    -10.027    -10.000     -9.985     -9.950     -9.931     -9.928
 #    :         872        873        874        875        876        877        878        879
 occ. :        2.000      2.000      2.000      2.000      2.000      0.000      0.000      0.000
 eps  :        -9.819     -9.769     -9.660     -9.577     -9.398     -8.126     -7.996     -7.888
 #    :         880        881        882        883        884        885        886        887
 occ. :        0.000      0.000      0.000      0.000      0.000      0.000      0.000      0.000
 eps  :        -7.792     -7.721     -7.702     -7.695     -7.693     -7.686     -7.612     -7.577


   #   Z            q   n(s)   n(p)   n(d)      C6AA      α(0)
   1   7 N     -0.386  1.308  4.079  0.000    29.994     8.134
   2   6 C      0.041  1.054  2.905  0.000    19.906     6.356
   3   6 C      0.194  1.096  2.710  0.000    23.851     7.998
   4   8 O     -0.365  1.742  4.623  0.000    21.000     6.144
   5   6 C     -0.077  1.059  3.017  0.000    21.956     6.670
   6   6 C     -0.010  1.055  2.954  0.000    20.715     6.474
   7   6 C     -0.121  1.042  3.079  0.000    22.862     6.817
   8   6 C     -0.124  1.038  3.086  0.000    22.928     6.827
   9   1 H      0.171  0.829  0.000  0.000     1.264     1.761
  10   1 H      0.049  0.951  0.000  0.000     2.330     2.387
  11   1 H      0.046  0.954  0.000  0.000     2.371     2.408
  12   1 H      0.048  0.952  0.000  0.000     2.344     2.394
  13   1 H      0.036  0.964  0.000  0.000     2.505     2.475
  14   1 H      0.060  0.940  0.000  0.000     2.200     2.319
  15   1 H      0.033  0.967  0.000  0.000     2.546     2.495
  16   1 H      0.037  0.963  0.000  0.000     2.490     2.468
  17   1 H      0.046  0.954  0.000  0.000     2.367     2.406
  18   1 H      0.048  0.952  0.000  0.000     2.341     2.393
  19   1 H      0.039  0.961  0.000  0.000     2.466     2.456
  20   7 N     -0.392  1.315  4.078  0.000    30.156     8.156
  21   6 C      0.022  1.063  2.915  0.000    20.223     6.405
  22   6 C      0.264  1.050  2.686  0.000    22.550     7.777
  23   8 O     -0.493  1.744  4.749  0.000    23.625     6.517
  24   6 C      0.116  1.048  2.836  0.000    18.784     6.188
  25   8 O     -0.476  1.724  4.751  0.000    22.378     6.386
  26   6 C     -0.123  1.040  3.083  0.000    22.921     6.827
  27   1 H      0.156  0.844  0.000  0.000     1.359     1.826
  28   1 H      0.040  0.960  0.000  0.000     2.449     2.447
  29   1 H      0.027  0.973  0.000  0.000     2.624     2.533
  30   1 H      0.321  0.679  0.000  0.000     0.661     1.277
  31   1 H      0.065  0.935  0.000  0.000     2.140     2.288
  32   1 H      0.051  0.949  0.000  0.000     2.304     2.374
  33   1 H      0.050  0.950  0.000  0.000     2.315     2.379
  34   7 N     -0.177  1.250  3.927  0.000    24.827     7.400
  35   6 C      0.029  1.063  2.908  0.000    20.087     6.380
  36   6 C      0.209  1.082  2.709  0.000    23.572     7.951
  37   8 O     -0.367  1.756  4.611  0.000    21.034     6.149
  38   6 C     -0.016  1.061  2.955  0.000    20.819     6.489
  39   6 C     -0.121  1.042  3.079  0.000    22.862     6.817
  40   6 C     -0.135  1.040  3.095  0.000    23.156     6.861
  41   1 H      0.244  0.756  0.000  0.000     0.908     1.492
  42   1 H      0.072  0.928  0.000  0.000     2.062     2.246
  43   1 H      0.044  0.956  0.000  0.000     2.395     2.420
  44   1 H      0.058  0.942  0.000  0.000     2.227     2.334
  45   1 H      0.039  0.961  0.000  0.000     2.465     2.455
  46   1 H      0.052  0.948  0.000  0.000     2.291     2.367
  47   1 H      0.060  0.940  0.000  0.000     2.201     2.320
  48   1 H      0.065  0.935  0.000  0.000     2.138     2.287
  49   1 H      0.059  0.941  0.000  0.000     2.216     2.328
  50   7 N     -0.412  1.320  4.092  0.000    30.698     8.229
  51   6 C      0.045  1.056  2.899  0.000    19.840     6.345
  52   6 C      0.200  1.097  2.704  0.000    23.750     7.981
  53   8 O     -0.386  1.751  4.635  0.000    21.407     6.203
  54   6 C     -0.066  1.060  3.006  0.000    21.754     6.639
  55   6 C     -0.010  1.055  2.955  0.000    20.728     6.476
  56   6 C     -0.111  1.042  3.069  0.000    22.678     6.790
  57   6 C     -0.116  1.041  3.075  0.000    22.773     6.804
  58   1 H      0.188  0.812  0.000  0.000     1.172     1.696
  59   1 H      0.044  0.956  0.000  0.000     2.397     2.421
  60   1 H      0.049  0.951  0.000  0.000     2.338     2.391
  61   1 H      0.041  0.959  0.000  0.000     2.437     2.441
  62   1 H      0.046  0.954  0.000  0.000     2.372     2.409
  63   1 H      0.044  0.956  0.000  0.000     2.400     2.423
  64   1 H      0.025  0.975  0.000  0.000     2.654     2.548
  65   1 H      0.045  0.955  0.000  0.000     2.381     2.413
  66   1 H      0.042  0.958  0.000  0.000     2.426     2.436
  67   1 H      0.047  0.953  0.000  0.000     2.361     2.403
  68   1 H      0.029  0.971  0.000  0.000     2.594     2.519
  69   7 N     -0.391  1.312  4.080  0.000    30.133     8.153
  70   6 C      0.043  1.054  2.903  0.000    19.870     6.349
  71   6 C      0.195  1.094  2.711  0.000    23.830     7.994
  72   8 O     -0.373  1.758  4.616  0.000    21.157     6.167
  73   6 C     -0.101  1.064  3.037  0.000    22.420     6.740
  74   6 C      0.298  1.036  2.667  0.000    21.951     7.671
  75   8 O     -0.503  1.748  4.754  0.000    23.840     6.546
  76   7 N     -0.276  1.260  4.016  0.000    27.145     7.738
  77   1 H      0.173  0.827  0.000  0.000     1.257     1.756
  78   1 H      0.081  0.919  0.000  0.000     1.965     2.192
  79   1 H      0.080  0.920  0.000  0.000     1.978     2.200
  80   1 H      0.057  0.943  0.000  0.000     2.230     2.335
  81   1 H      0.216  0.784  0.000  0.000     1.029     1.589
  82   1 H      0.225  0.775  0.000  0.000     0.989     1.557
  83   7 N     -0.399  1.305  4.094  0.000    30.355     8.183
  84   6 C      0.015  1.063  2.922  0.000    20.338     6.424
  85   6 C      0.274  1.044  2.682  0.000    22.370     7.745
  86   8 O     -0.502  1.750  4.752  0.000    23.835     6.546
  87   6 C      0.071  1.039  2.891  0.000    19.616     6.346
  88   8 O     -0.454  1.717  4.737  0.000    21.931     6.322
  89   1 H      0.174  0.826  0.000  0.000     1.251     1.752
  90   1 H      0.039  0.961  0.000  0.000     2.468     2.457
  91   1 H      0.054  0.946  0.000  0.000     2.275     2.359
  92   1 H      0.039  0.961  0.000  0.000     2.459     2.452
  93   1 H      0.329  0.671  0.000  0.000     0.641     1.258
  94   7 N     -0.155  1.238  3.916  0.000    24.346     7.328
  95   6 C      0.015  1.064  2.922  0.000    20.331     6.420
  96   6 C      0.200  1.087  2.713  0.000    23.741     7.980
  97   8 O     -0.352  1.763  4.589  0.000    20.748     6.107
  98   6 C     -0.021  1.062  2.959  0.000    20.909     6.504
  99   6 C     -0.122  1.040  3.082  0.000    22.891     6.822
 100   6 C     -0.127  1.042  3.085  0.000    22.984     6.836
 101   1 H      0.224  0.776  0.000  0.000     0.994     1.562
 102   1 H      0.100  0.900  0.000  0.000     1.788     2.091
 103   1 H      0.058  0.942  0.000  0.000     2.223     2.332
 104   1 H      0.062  0.938  0.000  0.000     2.178     2.308
 105   1 H      0.035  0.965  0.000  0.000     2.513     2.479
 106   1 H      0.054  0.946  0.000  0.000     2.274     2.358
 107   1 H      0.064  0.936  0.000  0.000     2.153     2.294
 108   1 H      0.057  0.943  0.000  0.000     2.230     2.335
 109   1 H      0.054  0.946  0.000  0.000     2.275     2.359
 110   7 N     -0.397  1.311  4.086  0.000    30.284     8.173
 111   6 C      0.033  1.057  2.910  0.000    20.041     6.377
 112   6 C      0.202  1.094  2.703  0.000    23.698     7.973
 113   8 O     -0.369  1.745  4.624  0.000    21.073     6.155
 114   6 C      0.089  1.035  2.877  0.000    19.311     6.293
 115   8 O     -0.475  1.710  4.765  0.000    22.354     6.382
 116   1 H      0.184  0.816  0.000  0.000     1.193     1.711
 117   1 H      0.042  0.958  0.000  0.000     2.424     2.435
 118   1 H      0.038  0.962  0.000  0.000     2.472     2.459
 119   1 H      0.032  0.968  0.000  0.000     2.559     2.502
 120   1 H      0.336  0.664  0.000  0.000     0.621     1.238
 121   7 N     -0.402  1.313  4.089  0.000    30.416     8.191
 122   6 C      0.046  1.053  2.901  0.000    19.824     6.343
 123   6 C      0.192  1.097  2.711  0.000    23.894     8.005
 124   8 O     -0.364  1.747  4.617  0.000    20.982     6.141
 125   6 C     -0.071  1.055  3.016  0.000    21.846     6.653
 126   6 C      0.020  1.082  2.898  0.000    27.564     8.612
 127   6 C     -0.045  1.081  2.964  0.000    29.110     8.848
 128   6 C     -0.035  1.077  2.958  0.000    28.865     8.811
 129   6 C     -0.035  1.079  2.956  0.000    28.872     8.811
 130   6 C     -0.037  1.081  2.957  0.000    28.929     8.820
 131   6 C     -0.040  1.077  2.962  0.000    28.990     8.830
 132   1 H      0.196  0.804  0.000  0.000     1.126     1.662
 133   1 H      0.041  0.959  0.000  0.000     2.442     2.444
 134   1 H      0.067  0.933  0.000  0.000     2.117     2.276
 135   1 H      0.053  0.947  0.000  0.000     2.286     2.364
 136   1 H      0.035  0.965  0.000  0.000     2.520     2.482
 137   1 H      0.041  0.959  0.000  0.000     2.429     2.437
 138   1 H      0.030  0.970  0.000  0.000     2.583     2.513
 139   1 H      0.042  0.958  0.000  0.000     2.427     2.436
 140   1 H      0.030  0.970  0.000  0.000     2.579     2.512
 141   7 N     -0.390  1.312  4.079  0.000    30.103     8.149
 142   6 C      0.032  1.060  2.907  0.000    20.043     6.376
 143   6 C      0.265  1.053  2.683  0.000    22.537     7.775
 144   8 O     -0.522  1.756  4.766  0.000    24.275     6.606
 145   6 C     -0.015  1.062  2.953  0.000    20.807     6.488
 146   6 C     -0.109  1.039  3.070  0.000    22.642     6.784
 147   6 C     -0.113  1.040  3.073  0.000    22.712     6.795
 148   1 H      0.155  0.845  0.000  0.000     1.365     1.830
 149   1 H      0.036  0.964  0.000  0.000     2.497     2.471
 150   1 H      0.039  0.961  0.000  0.000     2.459     2.452
 151   1 H      0.040  0.960  0.000  0.000     2.455     2.450
 152   1 H      0.036  0.964  0.000  0.000     2.502     2.474
 153   1 H      0.038  0.962  0.000  0.000     2.481     2.463
 154   1 H      0.049  0.951  0.000  0.000     2.335     2.390
 155   1 H      0.039  0.961  0.000  0.000     2.463     2.454
 156   1 H      0.043  0.957  0.000  0.000     2.405     2.425
 157   7 N     -0.171  1.245  3.926  0.000    24.698     7.381
 158   6 C      0.028  1.064  2.907  0.000    20.093     6.381
 159   6 C      0.204  1.087  2.709  0.000    23.660     7.966
 160   8 O     -0.366  1.761  4.605  0.000    21.019     6.147
 161   6 C     -0.021  1.067  2.954  0.000    20.915     6.505
 162   6 C     -0.071  1.053  3.018  0.000    21.851     6.654
 163   6 C     -0.114  1.038  3.076  0.000    22.743     6.800
 164   6 C     -0.110  1.036  3.074  0.000    22.670     6.790
 165   1 H      0.237  0.763  0.000  0.000     0.937     1.516
 166   1 H      0.075  0.925  0.000  0.000     2.030     2.228
 167   1 H      0.057  0.943  0.000  0.000     2.237     2.339
 168   1 H      0.044  0.956  0.000  0.000     2.402     2.424
 169   1 H      0.062  0.938  0.000  0.000     2.174     2.306
 170   1 H      0.061  0.939  0.000  0.000     2.183     2.311
 171   1 H      0.034  0.966  0.000  0.000     2.528     2.486
 172   1 H      0.044  0.956  0.000  0.000     2.395     2.420
 173   1 H      0.042  0.958  0.000  0.000     2.419     2.432
 174   1 H      0.042  0.958  0.000  0.000     2.420     2.433
 175   1 H      0.042  0.958  0.000  0.000     2.422     2.434
 176   7 N     -0.385  1.306  4.079  0.000    29.966     8.130
 177   6 C      0.043  1.057  2.900  0.000    19.868     6.350
 178   6 C      0.202  1.097  2.701  0.000    23.708     7.974
 179   8 O     -0.391  1.762  4.629  0.000    21.501     6.217
 180   6 C     -0.067  1.059  3.008  0.000    21.785     6.645
 181   6 C     -0.009  1.056  2.952  0.000    20.698     6.471
 182   6 C     -0.111  1.041  3.070  0.000    22.672     6.789
 183   6 C     -0.105  1.037  3.067  0.000    22.550     6.771
 184   1 H      0.172  0.828  0.000  0.000     1.258     1.757
 185   1 H      0.047  0.953  0.000  0.000     2.363     2.404
 186   1 H      0.050  0.950  0.000  0.000     2.316     2.380
 187   1 H      0.032  0.968  0.000  0.000     2.553     2.499
 188   1 H      0.051  0.949  0.000  0.000     2.312     2.378
 189   1 H      0.039  0.961  0.000  0.000     2.469     2.457
 190   1 H      0.043  0.957  0.000  0.000     2.407     2.426
 191   1 H      0.033  0.967  0.000  0.000     2.538     2.491
 192   1 H      0.034  0.966  0.000  0.000     2.529     2.487
 193   1 H      0.027  0.973  0.000  0.000     2.635     2.538
 194   1 H      0.028  0.972  0.000  0.000     2.619     2.531
 195   7 N     -0.397  1.324  4.073  0.000    30.290     8.174
 196   6 C      0.034  1.058  2.908  0.000    20.025     6.374
 197   6 C      0.209  1.088  2.703  0.000    23.572     7.952
 198   8 O     -0.388  1.757  4.631  0.000    21.436     6.207
 199   6 C     -0.024  1.072  2.952  0.000    20.969     6.513
 200   6 C     -0.065  1.052  3.013  0.000    21.746     6.639
 201   6 C     -0.116  1.036  3.079  0.000    22.772     6.805
 202   6 C     -0.110  1.034  3.076  0.000    22.656     6.788
 203   1 H      0.167  0.833  0.000  0.000     1.289     1.778
 204   1 H      0.058  0.942  0.000  0.000     2.228     2.334
 205   1 H      0.054  0.946  0.000  0.000     2.275     2.359
 206   1 H      0.041  0.959  0.000  0.000     2.430     2.438
 207   1 H      0.046  0.954  0.000  0.000     2.370     2.407
 208   1 H      0.051  0.949  0.000  0.000     2.302     2.372
 209   1 H      0.044  0.956  0.000  0.000     2.394     2.420
 210   1 H      0.033  0.967  0.000  0.000     2.543     2.494
 211   1 H      0.032  0.968  0.000  0.000     2.561     2.503
 212   1 H      0.032  0.968  0.000  0.000     2.559     2.502
 213   1 H      0.046  0.954  0.000  0.000     2.368     2.407
 214   7 N     -0.396  1.310  4.086  0.000    30.266     8.171
 215   6 C      0.023  1.055  2.922  0.000    20.203     6.401
 216   6 C      0.264  1.050  2.687  0.000    22.554     7.778
 217   8 O     -0.484  1.738  4.746  0.000    23.439     6.491
 218   6 C     -0.028  1.065  2.962  0.000    21.020     6.519
 219   6 C     -0.062  1.046  3.016  0.000    21.679     6.628
 220   6 C     -0.120  1.038  3.082  0.000    22.850     6.816
 221   6 C     -0.114  1.033  3.081  0.000    22.745     6.801
 222   1 H      0.165  0.835  0.000  0.000     1.301     1.787
 223   1 H      0.051  0.949  0.000  0.000     2.305     2.374
 224   1 H      0.040  0.960  0.000  0.000     2.448     2.447
 225   1 H      0.035  0.965  0.000  0.000     2.512     2.478
 226   1 H      0.045  0.955  0.000  0.000     2.379     2.412
 227   1 H      0.054  0.946  0.000  0.000     2.273     2.358
 228   1 H      0.043  0.957  0.000  0.000     2.405     2.425
 229   1 H      0.046  0.954  0.000  0.000     2.373     2.409
 230   1 H      0.036  0.964  0.000  0.000     2.499     2.472
 231   1 H      0.047  0.953  0.000  0.000     2.360     2.403
 232   1 H      0.037  0.963  0.000  0.000     2.485     2.465
 233   7 N     -0.180  1.243  3.937  0.000    24.895     7.410
 234   6 C      0.001  1.067  2.932  0.000    20.566     6.457
 235   6 C      0.282  1.038  2.679  0.000    22.217     7.719
 236   8 O     -0.472  1.736  4.735  0.000    23.170     6.454
 237   6 C      0.062  1.040  2.898  0.000    19.751     6.368
 238   8 O     -0.459  1.724  4.734  0.000    22.022     6.335
 239   1 H      0.218  0.782  0.000  0.000     1.017     1.580
 240   1 H      0.084  0.916  0.000  0.000     1.936     2.176
 241   1 H      0.076  0.924  0.000  0.000     2.023     2.224
 242   1 H      0.058  0.942  0.000  0.000     2.227     2.334
 243   1 H      0.333  0.667  0.000  0.000     0.631     1.248
 244   7 N     -0.170  1.238  3.932  0.000    24.687     7.379
 245   6 C      0.010  1.066  2.924  0.000    20.405     6.431
 246   6 C      0.272  1.043  2.686  0.000    22.410     7.753
 247   8 O     -0.488  1.730  4.758  0.000    23.518     6.502
 248   6 C     -0.023  1.062  2.961  0.000    20.955     6.511
 249   6 C     -0.129  1.040  3.088  0.000    23.020     6.841
 250   6 C     -0.129  1.042  3.087  0.000    23.023     6.841
 251   1 H      0.210  0.790  0.000  0.000     1.057     1.611
 252   1 H      0.092  0.908  0.000  0.000     1.857     2.131
 253   1 H      0.047  0.953  0.000  0.000     2.354     2.399
 254   1 H      0.063  0.937  0.000  0.000     2.169     2.303
 255   1 H      0.040  0.960  0.000  0.000     2.450     2.448
 256   1 H      0.059  0.941  0.000  0.000     2.206     2.322
 257   1 H      0.064  0.936  0.000  0.000     2.156     2.296
 258   1 H      0.060  0.940  0.000  0.000     2.200     2.319
 259   1 H      0.051  0.949  0.000  0.000     2.304     2.373
 260   7 N     -0.165  1.240  3.924  0.000    24.565     7.361
 261   6 C      0.021  1.057  2.922  0.000    20.213     6.400
 262   6 C      0.278  1.041  2.681  0.000    22.303     7.734
 263   8 O     -0.525  1.742  4.783  0.000    24.337     6.614
 264   6 C     -0.078  1.057  3.021  0.000    21.981     6.674
 265   6 C     -0.010  1.055  2.955  0.000    20.723     6.475
 266   6 C     -0.115  1.041  3.074  0.000    22.754     6.800
 267   6 C     -0.122  1.039  3.083  0.000    22.894     6.822
 268   1 H      0.207  0.793  0.000  0.000     1.072     1.622
 269   1 H      0.081  0.919  0.000  0.000     1.966     2.193
 270   1 H      0.068  0.932  0.000  0.000     2.112     2.273
 271   1 H      0.051  0.949  0.000  0.000     2.311     2.377
 272   1 H      0.033  0.967  0.000  0.000     2.539     2.492
 273   1 H      0.046  0.954  0.000  0.000     2.370     2.407
 274   1 H      0.044  0.956  0.000  0.000     2.395     2.420
 275   1 H      0.040  0.960  0.000  0.000     2.444     2.445
 276   1 H      0.045  0.955  0.000  0.000     2.380     2.412
 277   1 H      0.052  0.948  0.000  0.000     2.289     2.366
 278   1 H      0.034  0.966  0.000  0.000     2.525     2.485
 279   7 N     -0.179  1.252  3.927  0.000    24.869     7.406
 280   6 C      0.029  1.057  2.914  0.000    20.078     6.379
 281   6 C      0.274  1.042  2.684  0.000    22.363     7.744
 282   8 O     -0.505  1.740  4.765  0.000    23.906     6.555
 283   6 C     -0.078  1.059  3.019  0.000    21.982     6.673
 284   6 C     -0.018  1.057  2.962  0.000    20.865     6.497
 285   6 C     -0.113  1.040  3.073  0.000    22.709     6.794
 286   6 C     -0.130  1.040  3.090  0.000    23.048     6.845
 287   1 H      0.248  0.752  0.000  0.000     0.891     1.479
 288   1 H      0.062  0.938  0.000  0.000     2.174     2.306
 289   1 H      0.063  0.937  0.000  0.000     2.162     2.300
 290   1 H      0.048  0.952  0.000  0.000     2.348     2.396
 291   1 H      0.054  0.946  0.000  0.000     2.270     2.356
 292   1 H      0.059  0.941  0.000  0.000     2.213     2.326
 293   1 H      0.036  0.964  0.000  0.000     2.508     2.477
 294   1 H      0.030  0.970  0.000  0.000     2.582     2.513
 295   1 H      0.046  0.954  0.000  0.000     2.367     2.406
 296   1 H      0.063  0.937  0.000  0.000     2.168     2.303
 297   1 H      0.022  0.978  0.000  0.000     2.700     2.570
 298   7 N     -0.188  1.253  3.935  0.000    25.080     7.438
 299   6 C      0.023  1.057  2.920  0.000    20.189     6.398
 300   6 C      0.271  1.042  2.687  0.000    22.416     7.754
 301   8 O     -0.491  1.737  4.754  0.000    23.575     6.510
 302   6 C     -0.135  1.044  3.091  0.000    23.145     6.858
 303   1 H      0.238  0.762  0.000  0.000     0.930     1.511
 304   1 H      0.072  0.928  0.000  0.000     2.066     2.248
 305   1 H      0.072  0.928  0.000  0.000     2.064     2.247
 306   1 H      0.080  0.920  0.000  0.000     1.982     2.201
 307   1 H      0.070  0.930  0.000  0.000     2.087     2.259
 308   7 N     -0.200  1.256  3.943  0.000    25.340     7.476
 309   6 C      0.021  1.062  2.917  0.000    20.215     6.401
 310   6 C      0.279  1.042  2.679  0.000    22.284     7.730
 311   8 O     -0.482  1.730  4.752  0.000    23.388     6.484
 312   6 C     -0.083  1.056  3.028  0.000    22.086     6.691
 313   6 C     -0.106  1.051  3.055  0.000    22.518     6.755
 314   6 C      0.289  1.038  2.673  0.000    22.099     7.697
 315   8 O     -0.505  1.756  4.749  0.000    23.891     6.553
 316   7 N     -0.286  1.263  4.023  0.000    27.381     7.772
 317   1 H      0.252  0.748  0.000  0.000     0.874     1.464
 318   1 H      0.082  0.918  0.000  0.000     1.963     2.191
 319   1 H      0.073  0.927  0.000  0.000     2.056     2.242
 320   1 H      0.083  0.917  0.000  0.000     1.950     2.184
 321   1 H      0.096  0.904  0.000  0.000     1.819     2.109
 322   1 H      0.059  0.941  0.000  0.000     2.212     2.326
[...]
 398   6 C      0.030  1.057  2.913  0.000    20.066     6.377
 399   6 C      0.275  1.042  2.682  0.000    22.347     7.742
 400   8 O     -0.503  1.746  4.757  0.000    23.850     6.548
 401   6 C     -0.077  1.054  3.023  0.000    21.958     6.670
 402   6 C      0.010  1.082  2.908  0.000    27.795     8.648
 403   6 C     -0.041  1.080  2.961  0.000    29.023     8.835
 404   6 C     -0.048  1.081  2.967  0.000    29.191     8.860
 405   6 C     -0.033  1.080  2.952  0.000    28.811     8.802
 406   6 C     -0.042  1.080  2.962  0.000    29.046     8.838
 407   6 C     -0.042  1.081  2.961  0.000    29.054     8.839
 408   1 H      0.233  0.767  0.000  0.000     0.953     1.529
 409   1 H      0.068  0.932  0.000  0.000     2.109     2.271
 410   1 H      0.073  0.927  0.000  0.000     2.058     2.243
 411   1 H      0.065  0.935  0.000  0.000     2.147     2.291
 412   1 H      0.041  0.959  0.000  0.000     2.439     2.442
 413   1 H      0.042  0.958  0.000  0.000     2.416     2.430
 414   1 H      0.049  0.951  0.000  0.000     2.328     2.386
 415   1 H      0.033  0.967  0.000  0.000     2.538     2.491
 416   1 H      0.046  0.954  0.000  0.000     2.375     2.410
 417   7 N     -0.186  1.251  3.936  0.000    25.040     7.432
 418   6 C      0.029  1.055  2.916  0.000    20.081     6.379
 419   6 C      0.265  1.049  2.685  0.000    22.525     7.773
 420   8 O     -0.517  1.742  4.775  0.000    24.166     6.591
 421   6 C     -0.080  1.060  3.020  0.000    22.015     6.679
 422   6 C     -0.020  1.057  2.963  0.000    20.889     6.501
 423   6 C     -0.121  1.043  3.078  0.000    22.867     6.818
 424   6 C     -0.111  1.037  3.074  0.000    22.686     6.791
 425   1 H      0.236  0.764  0.000  0.000     0.940     1.519
 426   1 H      0.066  0.934  0.000  0.000     2.134     2.285
 427   1 H      0.067  0.933  0.000  0.000     2.124     2.279
 428   1 H      0.063  0.937  0.000  0.000     2.167     2.302
 429   1 H      0.054  0.946  0.000  0.000     2.265     2.353
 430   1 H      0.049  0.951  0.000  0.000     2.337     2.391
 431   1 H      0.045  0.955  0.000  0.000     2.384     2.414
 432   1 H      0.046  0.954  0.000  0.000     2.365     2.405
 433   1 H      0.042  0.958  0.000  0.000     2.426     2.436
 434   1 H      0.039  0.961  0.000  0.000     2.456     2.451
 435   1 H      0.020  0.980  0.000  0.000     2.726     2.582
 436   7 N     -0.173  1.248  3.925  0.000    24.735     7.386
 437   6 C      0.005  1.071  2.924  0.000    20.477     6.441
 438   6 C      0.268  1.046  2.687  0.000    22.480     7.764
 439   8 O     -0.497  1.731  4.766  0.000    23.726     6.531
 440   6 C     -0.029  1.068  2.961  0.000    21.054     6.526
 441   6 C     -0.078  1.049  3.029  0.000    21.985     6.675
 442   6 C     -0.138  1.042  3.096  0.000    23.209     6.869
 443   6 C     -0.115  1.038  3.077  0.000    22.757     6.803
 444   1 H      0.231  0.769  0.000  0.000     0.963     1.537
 445   1 H      0.086  0.914  0.000  0.000     1.916     2.165
 446   1 H      0.064  0.936  0.000  0.000     2.158     2.297
 447   1 H      0.056  0.944  0.000  0.000     2.248     2.345
 448   1 H      0.025  0.975  0.000  0.000     2.659     2.550
 449   1 H      0.066  0.934  0.000  0.000     2.134     2.284
 450   1 H      0.056  0.944  0.000  0.000     2.251     2.346
 451   1 H      0.065  0.935  0.000  0.000     2.137     2.286
 452   1 H      0.040  0.960  0.000  0.000     2.455     2.450
 453   1 H      0.047  0.953  0.000  0.000     2.358     2.401
 454   1 H      0.048  0.952  0.000  0.000     2.343     2.394
 455   7 N     -0.180  1.248  3.932  0.000    24.898     7.411
 456   6 C      0.030  1.058  2.912  0.000    20.069     6.380
 457   6 C      0.273  1.046  2.681  0.000    22.393     7.749
 458   8 O     -0.490  1.744  4.746  0.000    23.563     6.508
 459   6 C     -0.125  1.040  3.084  0.000    22.941     6.828
 460   1 H      0.231  0.769  0.000  0.000     0.963     1.537
 461   1 H      0.070  0.930  0.000  0.000     2.084     2.257
 462   1 H      0.066  0.934  0.000  0.000     2.132     2.283
 463   1 H      0.074  0.926  0.000  0.000     2.040     2.234
 464   1 H      0.060  0.940  0.000  0.000     2.194     2.316
 465   7 N     -0.187  1.244  3.944  0.000    25.064     7.436
 466   6 C      0.021  1.058  2.920  0.000    20.223     6.404
 467   6 C      0.272  1.047  2.681  0.000    22.408     7.752
 468   8 O     -0.518  1.766  4.752  0.000    24.190     6.594
 469   6 C     -0.056  1.047  3.010  0.000    21.578     6.612
 470   6 C     -0.099  1.056  3.043  0.000    22.390     6.736
 471   6 C      0.289  1.038  2.673  0.000    22.096     7.697
 472   8 O     -0.493  1.752  4.742  0.000    23.634     6.518
 473   7 N     -0.281  1.257  4.024  0.000    27.258     7.754
 474   1 H      0.224  0.776  0.000  0.000     0.992     1.560
 475   1 H      0.070  0.930  0.000  0.000     2.089     2.260
 476   1 H      0.071  0.929  0.000  0.000     2.078     2.254
 477   1 H      0.046  0.954  0.000  0.000     2.365     2.405
 478   1 H      0.061  0.939  0.000  0.000     2.182     2.310
 479   1 H      0.084  0.916  0.000  0.000     1.936     2.176
 480   1 H      0.207  0.793  0.000  0.000     1.069     1.620
 481   1 H      0.213  0.787  0.000  0.000     1.040     1.597
 482   7 N     -0.189  1.246  3.943  0.000    25.090     7.439
 483   6 C      0.021  1.060  2.920  0.000    20.234     6.406
 484   6 C      0.271  1.048  2.681  0.000    22.427     7.755
 485   8 O     -0.526  1.748  4.779  0.000    24.372     6.619
 486   6 C     -0.090  1.057  3.033  0.000    22.222     6.711
 487   6 C     -0.093  1.053  3.040  0.000    22.268     6.719
 488   6 C     -0.102  1.056  3.046  0.000    22.438     6.744
 489   6 C     -0.055  1.058  2.996  0.000    21.652     6.642
 490   7 N     -0.140  1.232  3.908  0.000    24.022     7.279
 491   1 H      0.237  0.763  0.000  0.000     0.935     1.514
 492   1 H      0.066  0.934  0.000  0.000     2.132     2.283
 493   1 H      0.079  0.921  0.000  0.000     1.990     2.206
 494   1 H      0.078  0.922  0.000  0.000     2.003     2.213
 495   1 H      0.058  0.942  0.000  0.000     2.228     2.334
 496   1 H      0.074  0.926  0.000  0.000     2.039     2.233
 497   1 H      0.097  0.903  0.000  0.000     1.811     2.105
 498   1 H      0.097  0.903  0.000  0.000     1.811     2.104
 499   1 H      0.133  0.867  0.000  0.000     1.511     1.922
 500   1 H      0.113  0.887  0.000  0.000     1.669     2.020
 501   1 H      0.308  0.692  0.000  0.000     0.690     1.302
 502   1 H      0.267  0.733  0.000  0.000     0.821     1.419
 503   1 H      0.296  0.704  0.000  0.000     0.724     1.333
 504   7 N     -0.178  1.253  3.924  0.000    24.850     7.404
 505   6 C      0.018  1.067  2.915  0.000    20.281     6.412
 506   6 C      0.263  1.050  2.687  0.000    22.565     7.779
 507   8 O     -0.498  1.742  4.757  0.000    23.751     6.534
 508   6 C     -0.019  1.063  2.956  0.000    20.869     6.497
 509   6 C     -0.118  1.038  3.079  0.000    22.811     6.810
 510   6 C     -0.132  1.044  3.088  0.000    23.089     6.851
 511   1 H      0.244  0.756  0.000  0.000     0.909     1.493
 512   1 H      0.086  0.914  0.000  0.000     1.917     2.165
 513   1 H      0.043  0.957  0.000  0.000     2.403     2.424
 514   1 H      0.065  0.935  0.000  0.000     2.138     2.287
 515   1 H      0.029  0.971  0.000  0.000     2.596     2.520
 516   1 H      0.056  0.944  0.000  0.000     2.248     2.345
 517   1 H      0.065  0.935  0.000  0.000     2.143     2.289
 518   1 H      0.060  0.940  0.000  0.000     2.200     2.320
 519   1 H      0.067  0.933  0.000  0.000     2.117     2.275
 520   7 N     -0.095  1.240  3.855  0.000    23.098     7.138
 521   6 C      0.018  1.065  2.916  0.000    20.247     6.403
 522   6 C      0.276  1.040  2.684  0.000    22.334     7.739
 523   8 O     -0.492  1.752  4.740  0.000    23.604     6.514
 524   6 C     -0.077  1.056  3.021  0.000    21.961     6.669
 525   6 C     -0.075  1.050  3.025  0.000    21.913     6.662
 526   6 C      0.002  1.047  2.952  0.000    20.596     6.469
 527   1 H      0.090  0.910  0.000  0.000     1.879     2.144
 528   1 H      0.057  0.943  0.000  0.000     2.238     2.340
 529   1 H      0.089  0.911  0.000  0.000     1.885     2.147
 530   1 H      0.039  0.961  0.000  0.000     2.466     2.456
 531   1 H      0.096  0.904  0.000  0.000     1.820     2.110
 532   1 H      0.038  0.962  0.000  0.000     2.473     2.459
 533   1 H      0.067  0.933  0.000  0.000     2.114     2.273
 534   7 N     -0.175  1.242  3.933  0.000    24.789     7.395
 535   6 C      0.029  1.062  2.909  0.000    20.093     6.382
 536   6 C      0.286  1.038  2.676  0.000    22.159     7.709
 537   8 O     -0.501  1.754  4.747  0.000    23.808     6.542
 538   6 C     -0.049  1.048  3.001  0.000    21.452     6.593
 539   6 C     -0.092  1.066  3.026  0.000    22.256     6.717
 540   6 C      0.375  1.024  2.601  0.000    20.647     7.436
 541   8 O     -0.638  1.767  4.871  0.000    27.064     6.975
 542   8 O     -0.651  1.774  4.877  0.000    27.408     7.019
 543   1 H      0.209  0.791  0.000  0.000     1.062     1.614
 544   1 H      0.056  0.944  0.000  0.000     2.247     2.344
 545   1 H      0.047  0.953  0.000  0.000     2.354     2.399
 546   1 H      0.040  0.960  0.000  0.000     2.454     2.450
 547   1 H      0.015  0.985  0.000  0.000     2.810     2.622
 548   1 H      0.033  0.967  0.000  0.000     2.546     2.495
 549   7 N     -0.197  1.250  3.948  0.000    25.280     7.467
 550   6 C      0.013  1.069  2.918  0.000    20.361     6.425
 551   6 C      0.286  1.038  2.676  0.000    22.162     7.709
 552   8 O     -0.499  1.749  4.750  0.000    23.769     6.537
 553   6 C      0.114  1.046  2.840  0.000    18.810     6.192
 554   8 O     -0.464  1.707  4.757  0.000    22.131     6.351
 555   6 C     -0.129  1.042  3.087  0.000    23.040     6.845
 556   1 H      0.222  0.778  0.000  0.000     1.002     1.568
 557   1 H      0.063  0.937  0.000  0.000     2.160     2.299
 558   1 H      0.033  0.967  0.000  0.000     2.549     2.497
 559   1 H      0.326  0.674  0.000  0.000     0.648     1.264
 560   1 H      0.088  0.912  0.000  0.000     1.897     2.154
 561   1 H      0.043  0.957  0.000  0.000     2.406     2.426
 562   1 H      0.063  0.937  0.000  0.000     2.169     2.303
 563   7 N     -0.188  1.249  3.939  0.000    25.084     7.438
 564   6 C      0.020  1.064  2.917  0.000    20.258     6.410
 565   6 C      0.222  1.080  2.698  0.000    23.322     7.909
 566   8 O     -0.357  1.745  4.613  0.000    20.848     6.122
 567   6 C      0.071  1.040  2.888  0.000    19.596     6.342
 568   8 O     -0.480  1.714  4.766  0.000    22.462     6.398
 569   1 H      0.227  0.773  0.000  0.000     0.977     1.549
 570   1 H      0.085  0.915  0.000  0.000     1.926     2.170
 571   1 H      0.076  0.924  0.000  0.000     2.020     2.222
 572   1 H      0.069  0.931  0.000  0.000     2.100     2.266
 573   1 H      0.324  0.676  0.000  0.000     0.652     1.269
 574   7 N     -0.390  1.313  4.077  0.000    30.092     8.147
 575   6 C      0.041  1.056  2.904  0.000    19.908     6.356
 576   6 C      0.195  1.093  2.712  0.000    23.833     7.995
 577   8 O     -0.376  1.756  4.620  0.000    21.208     6.174
 578   6 C     -0.068  1.059  3.009  0.000    21.791     6.645
 579   6 C     -0.007  1.057  2.950  0.000    20.662     6.466
 580   6 C     -0.116  1.042  3.074  0.000    22.766     6.803
 581   6 C     -0.117  1.040  3.077  0.000    22.791     6.807
 582   1 H      0.167  0.833  0.000  0.000     1.289     1.778
 583   1 H      0.047  0.953  0.000  0.000     2.355     2.400
 584   1 H      0.048  0.952  0.000  0.000     2.340     2.392
 585   1 H      0.045  0.955  0.000  0.000     2.387     2.416
 586   1 H      0.035  0.965  0.000  0.000     2.518     2.482
 587   1 H      0.039  0.961  0.000  0.000     2.460     2.453
 588   1 H      0.039  0.961  0.000  0.000     2.464     2.455
 589   1 H      0.040  0.960  0.000  0.000     2.454     2.450
 590   1 H      0.041  0.959  0.000  0.000     2.430     2.438
 591   1 H      0.041  0.959  0.000  0.000     2.431     2.438
 592   1 H      0.044  0.956  0.000  0.000     2.393     2.419
 593   7 N     -0.383  1.311  4.073  0.000    29.911     8.123
 594   6 C      0.038  1.060  2.902  0.000    19.948     6.362
 595   6 C      0.204  1.096  2.700  0.000    23.667     7.967
 596   8 O     -0.380  1.744  4.636  0.000    21.286     6.186
 597   6 C     -0.017  1.063  2.955  0.000    20.845     6.494
 598   6 C     -0.117  1.041  3.077  0.000    22.802     6.808
 599   6 C     -0.114  1.039  3.075  0.000    22.740     6.799
 600   1 H      0.153  0.847  0.000  0.000     1.379     1.840
 601   1 H      0.050  0.950  0.000  0.000     2.316     2.380
 602   1 H      0.047  0.953  0.000  0.000     2.354     2.400
 603   1 H      0.053  0.947  0.000  0.000     2.284     2.363
 604   1 H      0.030  0.970  0.000  0.000     2.581     2.512
 605   1 H      0.051  0.949  0.000  0.000     2.309     2.376
 606   1 H      0.053  0.947  0.000  0.000     2.279     2.361
 607   1 H      0.050  0.950  0.000  0.000     2.323     2.384
 608   1 H      0.037  0.963  0.000  0.000     2.485     2.465
 609   7 N     -0.406  1.315  4.091  0.000    30.544     8.208
 610   6 C      0.039  1.054  2.907  0.000    19.941     6.361
 611   6 C      0.201  1.096  2.703  0.000    23.713     7.975
 612   8 O     -0.353  1.736  4.617  0.000    20.767     6.110
 613   6 C      0.079  1.041  2.879  0.000    19.467     6.320
 614   8 O     -0.475  1.718  4.758  0.000    22.369     6.385
 615   1 H      0.197  0.803  0.000  0.000     1.122     1.659
 616   1 H      0.063  0.937  0.000  0.000     2.163     2.300
 617   1 H      0.047  0.953  0.000  0.000     2.352     2.399
 618   1 H      0.033  0.967  0.000  0.000     2.540     2.492
 619   1 H      0.330  0.670  0.000  0.000     0.636     1.253
 620   7 N     -0.394  1.318  4.077  0.000    30.218     8.164
 621   6 C      0.030  1.064  2.906  0.000    20.085     6.383
 622   6 C      0.280  1.045  2.674  0.000    22.254     7.725
 623   8 O     -0.544  1.761  4.783  0.000    24.776     6.674
 624   6 C     -0.024  1.067  2.957  0.000    20.964     6.512
 625   6 C     -0.075  1.052  3.022  0.000    21.924     6.666
 626   6 C     -0.111  1.038  3.073  0.000    22.682     6.791
 627   6 C     -0.113  1.037  3.077  0.000    22.729     6.798
 628   1 H      0.156  0.844  0.000  0.000     1.361     1.827
 629   1 H      0.034  0.966  0.000  0.000     2.536     2.490
 630   1 H      0.031  0.969  0.000  0.000     2.578     2.511
 631   1 H      0.046  0.954  0.000  0.000     2.365     2.405
 632   1 H      0.054  0.946  0.000  0.000     2.275     2.359
 633   1 H      0.049  0.951  0.000  0.000     2.334     2.389
 634   1 H      0.038  0.962  0.000  0.000     2.482     2.463
 635   1 H      0.041  0.959  0.000  0.000     2.434     2.440
 636   1 H      0.049  0.951  0.000  0.000     2.336     2.390
 637   1 H      0.023  0.977  0.000  0.000     2.686     2.563
 638   1 H      0.038  0.962  0.000  0.000     2.481     2.463
 639   7 N     -0.182  1.248  3.935  0.000    24.953     7.419
 640   6 C      0.027  1.061  2.912  0.000    20.134     6.390
 641   6 C      0.212  1.082  2.706  0.000    23.512     7.941
 642   8 O     -0.382  1.758  4.624  0.000    21.328     6.192
 643   6 C     -0.019  1.065  2.955  0.000    20.886     6.500
 644   6 C     -0.118  1.039  3.079  0.000    22.818     6.811
 645   6 C     -0.121  1.042  3.079  0.000    22.863     6.817
 646   1 H      0.251  0.749  0.000  0.000     0.881     1.470
 647   1 H      0.074  0.926  0.000  0.000     2.046     2.237
 648   1 H      0.066  0.934  0.000  0.000     2.134     2.284
 649   1 H      0.061  0.939  0.000  0.000     2.187     2.313
 650   1 H      0.035  0.965  0.000  0.000     2.522     2.483
 651   1 H      0.048  0.952  0.000  0.000     2.346     2.395
 652   1 H      0.057  0.943  0.000  0.000     2.240     2.341
 653   1 H      0.042  0.958  0.000  0.000     2.417     2.431
 654   1 H      0.061  0.939  0.000  0.000     2.185     2.312
 655   1 H      0.178  0.822  0.000  0.000     1.224     1.733
 656   1 H      0.075  0.925  0.000  0.000     2.034     2.230
 657   1 H      0.186  0.814  0.000  0.000     1.180     1.702
 658   1 H      0.064  0.936  0.000  0.000     2.152     2.294
 659   1 H      0.170  0.830  0.000  0.000     1.275     1.768
 660   1 H      0.067  0.933  0.000  0.000     2.118     2.276
 661   1 H      0.191  0.809  0.000  0.000     1.155     1.683
 662   1 H      0.086  0.914  0.000  0.000     1.916     2.165
 663   1 H      0.181  0.819  0.000  0.000     1.210     1.723
 664   1 H      0.081  0.919  0.000  0.000     1.970     2.195
 665   1 H      0.179  0.821  0.000  0.000     1.217     1.728
 666   1 H      0.081  0.919  0.000  0.000     1.964     2.192
 667   1 H      0.170  0.830  0.000  0.000     1.272     1.766
 668   1 H      0.076  0.924  0.000  0.000     2.015     2.220
 669   1 H      0.184  0.816  0.000  0.000     1.194     1.711
 670   1 H      0.072  0.928  0.000  0.000     2.065     2.247
 671   1 H      0.177  0.823  0.000  0.000     1.229     1.737
 672   1 H      0.079  0.921  0.000  0.000     1.987     2.204
 673   1 H      0.187  0.813  0.000  0.000     1.174     1.697
 674   1 H      0.068  0.932  0.000  0.000     2.111     2.272
 675   1 H      0.180  0.820  0.000  0.000     1.212     1.724
 676   1 H      0.065  0.935  0.000  0.000     2.143     2.289
 677   1 H      0.177  0.823  0.000  0.000     1.229     1.736
 678   1 H      0.073  0.927  0.000  0.000     2.050     2.239
 679   1 H      0.187  0.813  0.000  0.000     1.172     1.696
 680   1 H      0.072  0.928  0.000  0.000     2.065     2.247
 681   1 H      0.184  0.816  0.000  0.000     1.190     1.709
 682   1 H      0.079  0.921  0.000  0.000     1.989     2.205
 683   1 H      0.182  0.818  0.000  0.000     1.203     1.718
 684   1 H      0.067  0.933  0.000  0.000     2.121     2.278

 Mol. C6AA /au·bohr⁶  :    3999014.721755
 Mol. C8AA /au·bohr⁸  :   87614111.475757
 Mol. α(0) /au        :       2988.776631

 
molecular dipole:
                 x           y           z       tot (Debye)
 q only:       -6.460      14.076     -58.719
   full:       -4.572      14.913     -64.227     167.997
molecular quadrupole (traceless):
                xx          xy          yy          xz          yz          zz
 q only:     2361.828     664.758    6829.685   -7418.393   -5073.269   -9191.513
  q+dip:     2953.072     971.028    7119.573   -7822.033   -5627.354  -10072.645
   full:     2958.135     970.290    7124.273   -7821.153   -5624.279  -10082.408
speedup  1.00
cpu  time for grad   26.71 s
wall time for grad   26.71 s

SCC energy    :    -997.2240516
rep           :      12.5614838
ES            :       2.4480480
AES           :      -0.0411901
AXC           :       0.3643471
disp          :      -0.8905051
XB            :       0.0000000
fix           :       0.0000000
Gborn         :       0.0000000
Gsasa         :       0.0000000
Ghb           :       0.0000000
Gshift        :       0.0000000
Gsolv         :      -0.4858677     -304.89
Etot ala COSMO:    -997.2240516
grad norm     :       0.8601484
total E       :    -984.5806030
atomizationE  :     185.7255291   116544.53
(atE without considering molecular charge,
 total energy contains solvation terms)
H-L gap (eV)  :          1.2715

------------------------------------------------------------------------
 * finished run on 2019/03/14 at 15:08:49.426     
------------------------------------------------------------------------
 total:
 * wall-time:     0 d,  0 h,  0 min, 28.672 sec
 *  cpu-time:     0 d,  0 h,  0 min, 28.459 sec
 * ratio c/w:     0.993 speedup
 SCF:
 * wall-time:     0 d,  0 h,  0 min, 27.798 sec
 *  cpu-time:     0 d,  0 h,  0 min, 27.791 sec
 * ratio c/w:     1.000 speedup

