      -----------------------------------------------------------      
     |                   =====================                   |     
     |                           x T B                           |     
     |                   =====================                   |     
     |                         S. Grimme                         |     
     |          Mulliken Center for Theoretical Chemistry        |     
     |                    University of Bonn                     |     
     |                 Version 6.0.1 (SAW181210)                 |     
      -----------------------------------------------------------      

   This program is distributed in the hope that it will be useful,
   but WITHOUT ANY WARRANTY; without even the implied warranty of
   MERCHANTABILITY or FITNESS FOR A PARTICULAR PURPOSE.
   
   FOR NON-COMMERCIAL, ACADEMIA USE ONLY.
   
   Cite this work as:
   S. Grimme, C. Bannwarth, P. Shushkov, J. Comput. Theory Chem., 2017,
   13, 1989-2009.
   C. Bannwarth, S. Ehlert and S. Grimme., ChemRxiv, 2018, preprint.
   http://doi.org/10.26434/chemrxiv.7246238.v1
   
   for sTDA-xTB:
   S. Grimme and C. Bannwarth, J. Chem. Phys., 2016, 145, 054103.
   
   in the mass-spec context:
   V. Asgeirsson, C. Bauer and S. Grimme, Chem. Sci., 2017, 8, 4879.
   
   if GBSA is used:
   P. Shushkov, F. März and S. Grimme, unpublished.
   
   for ANC optimizer:
   S. Grimme, unpublished.
   Rational Function algorithm used in ANCopt:
   F. Eckert, P. Pulay, H.-J. Werner, J. Comput. Chem., 1997, 18, 1473.
   
   with help from (in alphabetical order)
   C. Bannwarth, F. Bohle, G. Brandenburg, E. Caldeweyher, M. Checinski,
   S. Dohm, S. Ehlert, S. Ehrlich, F. März, H. Neugebauer, J. Pisarek,
   P. Pracht, P. Shushkov, and S. Spicher.
   
 * started run on 2019/02/13 at 00:17:26.307     
========================================================================
 # omp threads = 16
========================================================================
number of atoms            : 304
number of electrons        : 862
charge                     : -1
spin                       : .0
first test random number   : .2581

########################################################################
# WARNING! Please study the warnings concerning your input carefully
#  - Process number higher than OMP_NUM_THREADS, I hope you know what you are doing.
########################################################################

           ------------------------------------------------- 
          |                 G F N 2 - x T B                 |
          | Geometry, Frequencies, Noncovalent interactions |
          |            JCTC 2018 parametrisation            |
           ------------------------------------------------- 
 
      method parameters     
 k(s)        :  1.8500
 k(p)        :  2.2300
 k(d)        :  2.2300
 k(f)        :  2.0000
 kEN (H0ij)  : -2.0000
 D4 a1       :  0.5200
 D4 a2       :  5.0000
 D4 s6       :  1.0000
 D4 s8       :  2.7000
 D4 s9       :  5.0000
 alphaj      :  2.0000

 Solvent             : h2o
 Using internal parameter file: .param_gbsa2_h2o
 Gsolv ref. state (COSMO-RS): gsolv [1 M gas/solution]
 temperature (mdtemp)       :    298.150000000000     
 dielectric constant        :    80.2000000000000     
 rho                        :    1.00000000000000     
 mass                       :    18.0000000000000     
 surface tension            :    15.5689454083859     
 probe radius               :   0.975313790000000     
 vdW radii scaling          :    1.00000000000000     
 Gshift (Eh)                :   1.857443126794793E-003
 c1                         :    1.55243817000000     
 soset                      :   0.130326360000000     
 HB correction              :  T

            Z     q(EN)     CN     RAES       Cart. coordinates
     1  N   5.0   -0.22    3.23    1.96   204.52912   123.77455   314.51476
     2  C   4.0    0.02    4.24    4.09   203.90068   125.41365   312.41744
     3  C   4.0    0.14    3.42    3.09   205.84742   127.53209   312.09996
     4  O   6.0   -0.33    1.31    1.80   206.51328   128.16951   309.96587
     5  C   4.0   -0.08    4.11    3.81   201.25875   126.50373   312.74592
     6  H   1.0    0.07    1.03    1.43   203.43581   123.88359   316.08344
     7  H   1.0    0.04    1.05    1.44   204.00511   124.30336   310.66779
     8  H   1.0    0.04    1.00    1.43   200.77604   127.67834   311.13300
     9  H   1.0    0.04    1.00    1.43   199.90054   124.97554   312.92060
    10  H   1.0    0.04    1.00    1.43   201.21023   127.64682   314.44902
    11  N   5.0   -0.15    3.47    2.06   206.67069   128.62629   314.20506
    12  C   4.0    0.03    4.42    4.41   208.74469   130.40809   314.16812
    13  C   4.0    0.08    3.27    3.05   211.11701   129.13164   313.12098
    14  O   6.0   -0.31    1.15    1.80   212.46206   130.17731   311.54111
    15  C   4.0   -0.03    4.32    4.23   209.31041   131.53698   316.78178
    16  C   4.0   -0.05    4.18    3.97   206.92241   132.50383   318.11557
    17  C   4.0   -0.08    4.12    3.85   211.29291   133.61812   316.51495
    18  C   4.0   -0.08    4.01    3.64   205.35526   134.41609   316.63894
    19  H   1.0    0.07    1.07    1.44   206.13215   127.93516   315.90623
    20  H   1.0    0.05    1.06    1.44   208.28195   131.94122   312.84921
    21  H   1.0    0.03    1.06    1.44   210.11702   130.02785   317.95085
    22  H   1.0    0.03    1.03    1.43   205.72871   130.88751   318.56646
    23  H   1.0    0.03    1.03    1.43   207.52306   133.34863   319.90001
    24  H   1.0    0.04    1.00    1.43   211.72201   134.42306   318.35467
    25  H   1.0    0.05    1.00    1.43   213.03437   132.85634   315.73156
    26  H   1.0    0.04    1.00    1.43   210.63251   135.11498   315.27247
    27  H   1.0    0.04    1.00    1.43   203.84306   135.10992   317.84174
    28  H   1.0    0.04    1.00    1.43   206.47881   136.02701   316.04280
    29  H   1.0    0.04    1.00    1.43   204.51016   133.54529   314.98441
    30  N   5.0   -0.20    3.23    1.96   211.37839   124.72684   309.13266
    31  C   4.0    0.03    4.31    4.21   210.88617   124.78396   306.43714
    32  C   4.0    0.15    3.49    3.11   211.38293   127.42808   305.37079
    33  O   6.0   -0.27    1.28    1.80   212.59263   127.70380   303.40257
    34  C   4.0   -0.05    4.29    4.18   208.15235   124.05298   305.85067
    35  C   4.0   -0.05    4.16    3.91   207.63399   121.23388   306.22103
    36  C   4.0   -0.01    4.21    4.02   204.77172   120.76820   306.04334
    37  N   5.0   -0.14    3.38    2.01   204.06846   118.17519   305.49655
    38  C   4.0    0.09    3.34    3.06   204.04228   116.28878   307.15648
    39  N   5.0   -0.19    3.26    1.97   204.96063   116.57802   309.47496
    40  N   5.0   -0.19    3.24    1.96   203.03892   114.07342   306.49122
    41  H   1.0    0.08    1.02    1.43   209.97779   124.19532   310.33605
    42  H   1.0    0.05    1.05    1.44   212.21559   123.50512   305.48098
    43  H   1.0    0.06    1.04    1.43   206.93388   125.17629   307.07710
    44  H   1.0    0.05    1.03    1.43   207.76846   124.58181   303.89480
    45  H   1.0    0.05    1.02    1.43   208.61809   120.16570   304.76077
    46  H   1.0    0.04    1.03    1.43   208.37659   120.67981   308.06031
    47  H   1.0    0.04    1.02    1.43   203.86748   121.36096   307.80402
    48  H   1.0    0.04    1.03    1.43   204.01766   121.92816   304.51778
    49  H   1.0    0.08    1.07    1.44   203.49411   117.81211   303.71310
    50  H   1.0    0.08    1.03    1.43   205.99000   118.10484   309.97082
    51  H   1.0    0.08    1.03    1.43   204.98515   115.10401   310.68187
    52  H   1.0    0.08    1.03    1.43   202.05772   113.88625   304.87001
    53  H   1.0    0.08    1.03    1.43   202.90542   112.66745   307.77068
    54  N   5.0   -0.13    3.54    2.11   210.35712   129.36894   306.60980
    55  C   4.0    0.04    4.46    4.48   210.54724   131.85203   305.47609
    56  C   4.0    0.17    3.48    3.11   213.32431   132.41383   304.89381
    57  O   6.0   -0.27    1.21    1.80   213.98367   133.66013   303.05899
    58  C   4.0   -0.04    4.34    4.27   209.40684   133.85866   307.21799
    59  C   4.0   -0.02    4.17    3.95   206.54208   134.12595   306.82768
    60  C   4.0   -0.07    4.09    3.79   205.25701   135.23236   309.16121
    61  C   4.0   -0.07    4.11    3.81   206.02014   135.77505   304.51833
    62  H   1.0    0.12    1.11    1.45   209.05683   129.06068   308.00110
    63  H   1.0    0.07    1.05    1.44   209.58983   131.86502   303.62575
    64  H   1.0    0.06    1.03    1.43   209.84455   133.31559   309.15619
    65  H   1.0    0.05    1.03    1.43   210.31193   135.67019   306.82793
    66  H   1.0    0.05    1.05    1.44   205.75806   132.24196   306.47120
    67  H   1.0    0.04    1.00    1.43   203.26661   135.56432   308.77763
    68  H   1.0    0.04    1.00    1.43   205.39165   133.91607   310.72616
    69  H   1.0    0.05    1.00    1.43   206.12364   137.01486   309.69739
    70  H   1.0    0.04    1.00    1.43   204.00656   135.88824   304.11450
    71  H   1.0    0.04    1.00    1.43   206.74013   137.67890   304.80813
    72  H   1.0    0.06    1.00    1.43   206.91690   135.00340   302.83193
    73  N   5.0   -0.14    3.50    2.08   214.93799   131.55190   306.64920
    74  C   4.0    0.05    4.29    4.17   217.62955   131.94831   306.51323
    75  C   4.0    0.11    3.22    3.04   218.95912   130.35584   304.47749
    76  O   6.0   -0.26    1.11    1.80   220.45138   131.30154   302.99696
    77  C   4.0    0.03    4.16    3.92   218.78818   131.31896   309.09143
    78  O   6.0   -0.24    2.06    1.83   221.42512   131.62979   308.95609
    79  H   1.0    0.10    1.10    1.44   214.24717   130.65334   308.19095
    80  H   1.0    0.07    1.05    1.44   218.02393   133.92490   306.01936
    81  H   1.0    0.04    1.01    1.43   217.95824   132.58005   310.51622
    82  H   1.0    0.04    1.01    1.43   218.29306   129.36078   309.57449
    83  H   1.0    0.11    1.02    1.43   222.13877   131.33165   310.60809
    84  N   5.0   -0.18    3.30    1.98   208.38150   122.10282   289.17481
    85  C   4.0    0.03    4.33    4.25   206.93574   124.27717   289.95310
    86  C   4.0    0.15    3.46    3.10   208.52634   126.67576   289.63434
    87  O   6.0   -0.28    1.25    1.80   210.80918   126.57232   289.35123
    88  C   4.0   -0.03    4.29    4.18   206.37951   123.97269   292.78132
    89  C   4.0    0.26    3.17    3.03   208.92948   123.85632   294.28137
    90  O   6.0   -0.29    1.24    1.80   210.31892   121.98628   293.85369
    91  O   6.0   -0.26    1.16    1.80   209.36686   125.60486   295.77769
    92  H   1.0    0.12    1.10    1.44   209.58041   121.51514   290.57486
    93  H   1.0    0.04    1.04    1.43   205.21147   124.40248   288.81090
    94  H   1.0    0.07    1.02    1.43   205.26503   125.54399   293.50837
    95  H   1.0    0.05    1.02    1.43   205.36172   122.20527   293.07284
    96  N   5.0   -0.13    3.42    2.03   207.20911   128.88619   289.74407
    97  C   4.0    0.04    4.39    4.35   208.48001   131.13106   290.71876
    98  C   4.0    0.16    3.46    3.10   206.50716   133.14650   291.22431
    99  O   6.0   -0.31    1.29    1.80   204.68334   133.48310   289.83712
   100  C   4.0    0.05    4.13    3.87   210.47378   132.23779   288.86088
   101  O   6.0   -0.24    2.05    1.83   209.36380   133.39798   286.75370
   102  H   1.0    0.09    1.08    1.44   205.39055   128.72216   290.32976
   103  H   1.0    0.06    1.05    1.44   209.47288   130.64045   292.47795
   104  H   1.0    0.05    1.01    1.43   211.54208   133.70720   289.86404
   105  H   1.0    0.06    1.01    1.43   211.71203   130.67273   288.29257
   106  H   1.0    0.13    1.02    1.43   208.46373   132.16517   285.74009
   107  N   5.0   -0.14    3.48    2.06   207.03842   134.66900   293.17406
   108  C   4.0    0.04    4.46    4.48   205.21538   136.49544   294.12027
   109  C   4.0    0.15    3.38    3.07   205.44877   138.98733   292.63463
   110  O   6.0   -0.30    1.22    1.80   206.40380   140.89364   293.49828
   111  C   4.0   -0.03    4.27    4.14   205.53976   136.77544   296.95355
   112  C   4.0    0.24    3.14    3.03   204.40097   134.30390   298.11623
   113  O   6.0   -0.28    1.16    1.80   205.91650   132.62169   298.75513
   114  O   6.0   -0.30    1.18    1.80   202.04747   134.22840   298.22216
   115  H   1.0    0.09    1.08    1.44   208.36965   134.12074   294.42505
   116  H   1.0    0.06    1.07    1.44   203.31204   135.73453   293.76912
   117  H   1.0    0.06    1.02    1.43   207.52613   136.96770   297.46332
   118  H   1.0    0.05    1.02    1.43   204.48473   138.40668   297.62788
   119  N   5.0   -0.14    3.46    2.05   204.37276   138.83437   290.33965
   120  C   4.0    0.03    4.42    4.41   204.41234   140.91800   288.55476
   121  C   4.0    0.15    3.43    3.09   201.81222   142.22447   288.45530
   122  O   6.0   -0.30    1.22    1.80   201.52929   144.38735   289.17415
   123  C   4.0   -0.04    4.31    4.22   205.26917   140.05176   285.92204
   124  C   4.0   -0.01    3.59    3.16   204.72752   142.07357   283.99179
   125  C   4.0   -0.05    3.46    3.10   203.10144   141.62712   281.98101
   126  C   4.0   -0.04    3.48    3.11   205.79979   144.45830   284.23056
   127  C   4.0   -0.04    3.44    3.09   202.52893   143.50971   280.26613
   128  C   4.0   -0.04    3.43    3.09   205.23473   146.36027   282.53405
   129  C   4.0    0.07    3.45    3.09   203.57887   145.90368   280.54280
   130  O   6.0   -0.25    2.11    1.84   202.93948   147.71316   278.84385
   131  H   1.0    0.10    1.10    1.44   203.98626   137.06714   289.69025
   132  H   1.0    0.07    1.07    1.44   205.71507   142.32640   289.33227
   133  H   1.0    0.05    1.02    1.43   207.28697   139.62178   285.99931
   134  H   1.0    0.05    1.03    1.43   204.30032   138.29792   285.42479
   135  H   1.0    0.05    1.03    1.43   202.28180   139.77468   281.73997
   136  H   1.0    0.05    1.03    1.43   207.08642   144.83203   285.76848
   137  H   1.0    0.05    1.03    1.43   201.26614   143.16700   278.70501
   138  H   1.0    0.05    1.03    1.43   206.07829   148.20505   282.76506
   139  H   1.0    0.11    1.04    1.43   203.78770   149.28249   279.25259
   140  N   5.0   -0.14    3.46    2.05   199.90841   140.81325   287.52544
   141  C   4.0    0.03    4.32    4.23   197.39308   141.85422   287.09491
   142  C   4.0    0.14    3.43    3.09   195.46339   140.19947   288.48229
   143  O   6.0   -0.31    1.34    1.80   195.21128   140.32717   290.78508
   144  C   4.0   -0.08    4.11    3.82   196.89258   142.22031   284.28118
   145  H   1.0    0.07    1.06    1.44   200.28957   139.08238   286.82408
   146  H   1.0    0.06    1.07    1.44   197.41217   143.68929   288.05816
   147  H   1.0    0.04    1.00    1.43   194.99285   142.93759   283.98866
   148  H   1.0    0.05    1.00    1.43   198.23502   143.59503   283.55328
   149  H   1.0    0.04    1.00    1.43   197.15282   140.47182   283.23577
   150  N   5.0   -0.15    3.52    2.09   194.13135   138.56144   287.10508
   151  C   4.0    0.04    4.49    4.53   192.19294   136.98521   288.23807
   152  C   4.0    0.16    3.50    3.11   193.11925   135.91624   290.76241
   153  O   6.0   -0.29    1.24    1.80   191.87533   136.02208   292.69715
   154  C   4.0    0.05    4.24    4.08   191.50313   134.86477   286.35361
   155  O   6.0   -0.27    2.16    1.85   191.24180   136.05131   283.98018
   156  C   4.0   -0.07    4.07    3.74   189.10117   133.51063   287.18055
   157  H   1.0    0.08    1.09    1.44   194.12703   138.58468   285.19096
   158  H   1.0    0.05    1.05    1.44   190.50110   138.12458   288.61839
   159  H   1.0    0.04    1.03    1.43   193.07577   133.49738   286.28247
   160  H   1.0    0.11    1.02    1.43   190.44976   134.90578   282.80379
   161  H   1.0    0.04    1.00    1.43   188.69618   131.94680   285.91085
   162  H   1.0    0.05    1.00    1.43   189.34905   132.75521   289.07460
   163  H   1.0    0.04    1.00    1.43   187.51927   134.82045   287.16920
   164  N   5.0   -0.14    3.52    2.09   195.39418   134.80069   290.61037
   165  C   4.0    0.04    4.40    4.39   196.62647   133.61723   292.74787
   166  C   4.0    0.17    3.50    3.11   196.77356   135.45290   294.97165
   167  O   6.0   -0.29    1.29    1.80   195.78184   134.98034   297.00657
   168  C   4.0   -0.04    4.30    4.20   199.27635   132.78737   291.98068
   169  C   4.0   -0.03    4.17    3.94   199.27982   130.43739   290.30683
   170  C   4.0    0.25    3.11    3.02   199.31296   128.01812   291.99094
   171  O   6.0   -0.29    1.17    1.80   201.24849   127.71079   293.31233
   172  O   6.0   -0.28    1.16    1.80   197.43290   126.60851   291.88037
   173  H   1.0    0.07    1.07    1.44   196.29377   134.67887   288.93371
   174  H   1.0    0.07    1.05    1.44   195.53492   131.96571   293.38418
   175  H   1.0    0.05    1.03    1.43   200.21846   134.34714   291.00139
   176  H   1.0    0.07    1.03    1.43   200.38357   132.36683   293.68173
   177  H   1.0    0.05    1.02    1.43   197.63298   130.36615   289.07033
   178  H   1.0    0.06    1.03    1.43   201.00907   130.41437   289.18308
   179  N   5.0   -0.13    3.51    2.09   197.95174   137.65153   294.52437
   180  C   4.0    0.04    4.53    4.58   198.46336   139.29207   296.66537
   181  C   4.0    0.17    3.58    3.15   195.95634   139.99026   297.87241
   182  O   6.0   -0.31    1.40    1.80   195.68764   139.95198   300.17075
   183  C   4.0   -0.02    4.25    4.10   200.04100   141.64725   296.03091
   184  C   4.0   -0.06    4.13    3.86   198.59692   143.64912   294.54162
   185  C   4.0   -0.07    4.12    3.84   201.03032   142.79255   298.49233
   186  H   1.0    0.08    1.06    1.44   198.91889   137.93398   292.91055
   187  H   1.0    0.06    1.06    1.44   199.51290   138.15666   298.06084
   188  H   1.0    0.06    1.06    1.44   201.65388   140.99549   294.90374
   189  H   1.0    0.06    1.00    1.43   199.93149   145.01199   293.78164
   190  H   1.0    0.07    1.01    1.43   197.58889   142.80833   292.96853
   191  H   1.0    0.05    1.00    1.43   197.26884   144.62659   295.76429
   192  H   1.0    0.05    1.00    1.43   202.20893   144.41773   298.06926
   193  H   1.0    0.06    1.00    1.43   199.46086   143.37694   299.68487
   194  H   1.0    0.04    1.00    1.43   202.16567   141.42466   299.52961
   195  N   5.0   -0.14    3.52    2.09   194.08662   140.65904   296.32650
   196  C   4.0    0.04    4.41    4.40   191.64493   141.36788   297.35010
   197  C   4.0    0.18    3.56    3.14   190.89703   139.58141   299.50650
   198  O   6.0   -0.30    1.25    1.80   190.23395   140.31965   301.58597
   199  C   4.0    0.03    4.16    3.93   189.61937   141.22548   295.27002
   200  O   6.0   -0.25    2.08    1.84   187.23097   140.95158   296.41537
   201  H   1.0    0.11    1.09    1.44   194.33293   140.59023   294.43127
   202  H   1.0    0.05    1.05    1.44   191.74906   143.27771   298.15319
   203  H   1.0    0.04    1.01    1.43   189.72409   142.94187   294.12233
   204  H   1.0    0.07    1.02    1.43   190.04699   139.58429   294.07167
   205  H   1.0    0.11    1.02    1.43   185.92497   141.42605   295.23125
   206  N   5.0   -0.13    3.56    2.12   190.82591   137.15025   298.79771
   207  C   4.0    0.04    4.44    4.44   190.07288   135.16231   300.52470
   208  C   4.0    0.16    3.44    3.09   191.58693   135.22740   302.99717
   209  O   6.0   -0.32    1.27    1.80   190.51954   134.95603   305.02877
   210  C   4.0   -0.03    4.31    4.22   190.41610   132.60113   299.24395
   211  C   4.0    0.16    3.21    3.04   188.90015   132.15935   296.82973
   212  O   6.0   -0.28    1.20    1.80   189.17168   130.20351   295.62876
   213  N   5.0   -0.18    3.21    1.96   187.15854   133.89777   296.19985
   214  H   1.0    0.11    1.08    1.44   191.72063   136.61746   297.19372
   215  H   1.0    0.06    1.05    1.44   188.09216   135.46881   301.06728
   216  H   1.0    0.07    1.03    1.43   192.40239   132.36338   298.72120
   217  H   1.0    0.05    1.03    1.43   189.95796   131.07819   300.55552
   218  H   1.0    0.10    1.03    1.43   186.30336   133.65581   294.51250
   219  H   1.0    0.09    1.05    1.44   187.24826   135.67980   296.86669
   220  N   5.0   -0.13    3.50    2.08   194.07321   135.52570   302.74151
   221  C   4.0    0.04    4.45    4.47   195.76444   135.53654   304.88225
   222  C   4.0    0.15    3.44    3.09   195.61107   137.95633   306.46566
   223  O   6.0   -0.33    1.31    1.80   195.98791   137.85384   308.75812
   224  C   4.0   -0.04    4.36    4.30   198.50121   135.16185   304.03621
   225  C   4.0   -0.03    4.06    3.73   199.00791   132.50964   303.05627
   226  S   6.0   -0.05    2.54    3.10   198.71412   130.17681   305.54612
   227  C   4.0   -0.06    3.88    3.44   200.51306   127.60783   304.19897
   228  H   1.0    0.11    1.09    1.44   194.84404   135.75308   301.00746
   229  H   1.0    0.05    1.08    1.44   195.24735   133.97102   306.14807
   230  H   1.0    0.06    1.03    1.43   198.95233   136.50109   302.52853
   231  H   1.0    0.04    1.04    1.43   199.75161   135.53037   305.63764
   232  H   1.0    0.06    1.06    1.44   197.71545   132.01237   301.52391
   233  H   1.0    0.06    1.07    1.44   200.92684   132.37836   302.30961
   234  H   1.0    0.04    1.05    1.44   200.32426   126.01283   305.46935
   235  H   1.0    0.05    1.04    1.43   199.75966   127.15668   302.33955
   236  H   1.0    0.05    1.04    1.43   202.48352   128.17120   304.01410
   237  N   5.0   -0.13    3.53    2.10   195.09833   140.09467   305.26475
   238  C   4.0    0.04    4.39    4.37   194.67486   142.43420   306.63197
   239  C   4.0    0.16    3.47    3.10   192.44218   142.01559   308.43379
   240  O   6.0   -0.29    1.23    1.80   192.58355   142.40587   310.70801
   241  C   4.0    0.03    4.15    3.91   194.12351   144.57056   304.74128
   242  O   6.0   -0.25    2.04    1.83   196.20340   145.09956   303.18451
   243  H   1.0    0.13    1.13    1.45   195.06577   140.18442   303.34594
   244  H   1.0    0.05    1.05    1.44   196.33250   142.91339   307.78413
   245  H   1.0    0.06    1.02    1.43   192.60686   143.97895   303.47016
   246  H   1.0    0.04    1.01    1.43   193.51431   146.25431   305.78400
   247  H   1.0    0.11    1.02    1.43   197.51076   145.91526   304.16085
   248  N   5.0   -0.14    3.52    2.09   190.38757   141.11003   307.28346
   249  C   4.0    0.04    4.42    4.41   188.09214   140.55641   308.67810
   250  C   4.0    0.16    3.49    3.11   188.70706   138.74317   310.84695
   251  O   6.0   -0.28    1.25    1.80   188.08126   139.22069   313.02425
   252  C   4.0   -0.04    4.27    4.14   186.09837   139.48741   306.87528
   253  C   4.0   -0.05    4.19    3.99   183.63076   138.79313   308.24094
   254  C   4.0   -0.01    4.19    3.99   183.40391   135.95364   308.72219
   255  N   5.0   -0.14    3.42    2.03   183.19676   134.64949   306.31740
   256  C   4.0    0.10    3.33    3.06   184.12916   132.40615   305.68859
   257  N   5.0   -0.18    3.25    1.97   185.39911   130.98846   307.32425
   258  N   5.0   -0.19    3.24    1.97   183.82623   131.58816   303.32002
   259  H   1.0    0.11    1.09    1.44   190.35604   140.85195   305.38282
   260  H   1.0    0.05    1.05    1.44   187.39714   142.29757   309.56946
   261  H   1.0    0.05    1.03    1.43   185.74135   140.92833   305.44751
   262  H   1.0    0.07    1.03    1.43   186.88927   137.83452   305.92938
   263  H   1.0    0.05    1.03    1.43   183.53796   139.77327   310.04957
   264  H   1.0    0.04    1.03    1.43   182.01349   139.41684   307.12970
   265  H   1.0    0.05    1.03    1.43   185.07064   135.30802   309.74351
   266  H   1.0    0.04    1.02    1.43   181.72545   135.57967   309.87213
   267  H   1.0    0.07    1.08    1.44   182.14402   135.57490   305.01600
   268  H   1.0    0.08    1.03    1.43   185.62507   131.52004   309.13393
   269  H   1.0    0.08    1.03    1.43   186.12524   129.31272   306.79201
   270  H   1.0    0.08    1.03    1.43   182.74984   132.55407   302.08186
   271  H   1.0    0.08    1.03    1.43   184.36110   129.82991   302.82437
   272  N   5.0   -0.14    3.49    2.07   189.88705   136.61619   310.18417
   273  C   4.0    0.04    4.34    4.28   190.50973   134.68080   312.03170
   274  C   4.0    0.17    3.48    3.11   191.78756   135.83058   314.35844
   275  O   6.0   -0.28    1.24    1.80   191.06150   135.33475   316.50239
   276  C   4.0   -0.07    4.12    3.83   192.21574   132.69453   310.83133
   277  H   1.0    0.11    1.10    1.44   190.32602   136.24061   308.34648
   278  H   1.0    0.05    1.05    1.44   188.75768   133.81058   312.73016
   279  H   1.0    0.04    1.00    1.43   192.47918   131.12146   312.12105
   280  H   1.0    0.05    1.00    1.43   191.36918   132.01231   309.09020
   281  H   1.0    0.05    1.00    1.43   194.05622   133.50285   310.40932
   282  N   5.0   -0.13    3.48    2.06   193.78054   137.29575   313.87173
   283  C   4.0    0.04    4.33    4.26   195.21576   138.43025   315.90635
   284  C   4.0    0.10    3.25    3.04   193.49215   139.95378   317.65434
   285  O   6.0   -0.28    1.11    1.80   193.55645   139.65222   319.95159
   286  C   4.0   -0.04    4.28    4.15   197.31160   140.11797   314.85166
   287  C   4.0   -0.04    4.23    4.07   199.57384   138.54038   313.96546
   288  C   4.0    0.15    3.22    3.04   201.40968   140.18447   312.49422
   289  O   6.0   -0.30    1.19    1.80   203.34713   141.06483   313.38388
   290  N   5.0   -0.19    3.20    1.96   200.66135   140.60628   310.10764
   291  H   1.0    0.11    1.09    1.44   194.34395   137.65270   312.07238
   292  H   1.0    0.06    1.05    1.44   196.03175   136.92893   317.08551
   293  H   1.0    0.07    1.03    1.43   196.53362   141.21743   313.28947
   294  H   1.0    0.05    1.03    1.43   197.92976   141.43580   316.31140
   295  H   1.0    0.04    1.03    1.43   200.55774   137.74734   315.58977
   296  H   1.0    0.05    1.03    1.43   198.92148   137.01470   312.74699
   297  H   1.0    0.11    1.06    1.44   199.04998   139.79255   309.47835
   298  H   1.0    0.09    1.03    1.43   201.73407   141.67436   308.95628
   299  H   1.0    0.09    1.07    1.44   204.43474   122.15162   314.01503
   300  H   1.0    0.05    1.05    1.44   211.60491   127.40720   313.72042
   301  H   1.0    0.09    1.07    1.44   212.64478   123.63847   309.45558
   302  H   1.0    0.07    1.05    1.44   218.60710   128.50375   304.34735
   303  H   1.0    0.09    1.07    1.44   207.32536   120.82436   288.79709
   304  H   1.0    0.07    1.04    1.44   192.28977   141.21810   316.92849

  Z AO/shell   Hii/eV     exponent
  1     Wed Apr 25 08:07:45 CEST 2018   EN: 2.200 GM2: 0.406  GM3: 0.0800  RAES: 1.40
     1s    -10.707211    1.230000
  6     Wed Apr 25 08:07:45 CEST 2018   EN: 2.550 GM2: 0.538  GM3: 0.1500  RAES: 3.00
     2s    -13.970922    2.096432
     2p    -10.063292    1.800000
  7     Wed Apr 25 08:07:45 CEST 2018   EN: 3.040 GM2: 0.461  GM3:-0.0640  RAES: 1.90
     2s    -16.686243    2.339881
     2p    -12.523956    2.014332
  8     Wed Apr 25 08:07:45 CEST 2018   EN: 3.440 GM2: 0.452  GM3:-0.0517  RAES: 1.80
     2s    -20.229985    2.439742
     2p    -15.503117    2.137023
 16     Tue Apr 24 11:44:34 CEST 2018   EN: 2.580 GM2: 0.340  GM3:-0.0502  RAES: 3.10
     3s    -20.029654    1.981333
     3p    -11.377694    2.025643
     3d     -0.420282    1.702555
 no old-style atom pair restraining (fixing) potential

molecular fragmentation (1/2 indicates fragments):
111111111111111111111111111112222222222222222222222222222222222222222222
222222222222222222222222222222222222222222222222222222222222222222222222
222222222222222222222222222222222222222222222222222222222222222222222222
222222222222222222222222222222222222222222222222222222222222222222222222
2222222222112222
# atoms in fragment 1/2:    31   273
 fragment masses (1/2) :      186.25     2015.16
CMA distance (Bohr)    :  17.247
constraining FC (au)   :  0.0500
           ------------------------------------------------- 
          |        Self-Consistent Charge Iterations        |
           ------------------------------------------------- 

 Ncao       : 769
 Nao        : 768
 Nshell     : 458
 Nel        : 862
 T(el)      :   500.0
 intcut     :    35.0
 scfconv/Eh :  0.100E-06
   qconv/e  :  0.100E-04
 intneglect :  0.100E-08
 broydamp   :      0.400
 iter      E             dE          RMSdq      gap      omega  full diag
   1   -498.0934871 -0.498093E+03  0.490E+00    3.00       0.0  T
   2   -499.3986346 -0.130515E+01  0.227E+00    1.83       1.0  T
   3   -499.4831091 -0.844745E-01  0.127E+00    2.17       1.0  T
   4   -499.5649496 -0.818405E-01  0.313E-01    1.73       1.0  T
   5   -499.5699070 -0.495734E-02  0.167E-01    2.01       1.0  T
   6   -499.5710444 -0.113740E-02  0.722E-02    2.03       1.0  T
   7   -499.5713908 -0.346453E-03  0.360E-02    2.09       1.0  T
   8   -499.5714387 -0.478531E-04  0.155E-02    2.10       1.0  T
   9   -499.5714570 -0.182718E-04  0.698E-03    2.11       1.0  T
  10   -499.5714596 -0.262583E-05  0.301E-03    2.11       1.9  T
  11   -499.5714602 -0.631011E-06  0.117E-03    2.11       4.9  T
  12   -499.5714603 -0.715590E-07  0.532E-04    2.11      10.8  T
  13   -499.5714603 -0.159018E-07  0.244E-04    2.11      23.5  T
  14   -499.5714603 -0.291601E-08  0.104E-04    2.11      54.9  T
  15   -499.5714603 -0.661203E-09  0.511E-05    2.11     112.3  T
  16   -499.5714603 -0.169621E-09  0.254E-05    2.11     225.5  T
speedup 14.13
cpu  time for SCC   23.64 s
wall time for SCC    1.67 s

   *** convergence criteria satisfied after 16 iterations ***

          eigenvalues
 #    :         419        420        421        422        423        424        425        426
 occ. :        2.000      2.000      2.000      2.000      2.000      2.000      2.000      2.000
 eps  :       -10.808    -10.761    -10.641    -10.554    -10.533    -10.513    -10.468    -10.314
 #    :         427        428        429        430        431        432        433        434
 occ. :        2.000      2.000      2.000      2.000      2.000      0.000      0.000      0.000
 eps  :       -10.261    -10.139    -10.130    -10.072    -10.047     -7.934     -7.893     -7.531
 #    :         435        436        437        438        439        440        441        442
 occ. :        0.000      0.000      0.000      0.000      0.000      0.000      0.000      0.000
 eps  :        -7.187     -7.084     -6.947     -6.876     -6.827     -6.664     -6.653     -6.580


   #   Z            q   n(s)   n(p)   n(d)      C6AA      α(0)
   1   7 N     -0.397  1.313  4.084  0.000    30.287     8.173
   2   6 C      0.030  1.056  2.915  0.000    20.094     6.385
   3   6 C      0.263  1.049  2.688  0.000    22.561     7.778
   4   8 O     -0.508  1.756  4.752  0.000    23.967     6.564
   5   6 C     -0.133  1.044  3.089  0.000    23.112     6.854
   6   1 H      0.176  0.824  0.000  0.000     1.236     1.742
   7   1 H      0.040  0.960  0.000  0.000     2.454     2.450
   8   1 H      0.048  0.952  0.000  0.000     2.351     2.398
   9   1 H      0.074  0.926  0.000  0.000     2.045     2.236
  10   1 H      0.061  0.939  0.000  0.000     2.190     2.314
  11   7 N     -0.154  1.240  3.914  0.000    24.332     7.326
  12   6 C      0.019  1.061  2.920  0.000    20.266     6.410
  13   6 C      0.198  1.091  2.711  0.000    23.778     7.986
  14   8 O     -0.374  1.760  4.614  0.000    21.178     6.170
  15   6 C     -0.025  1.068  2.958  0.000    20.989     6.516
  16   6 C     -0.070  1.053  3.017  0.000    21.836     6.653
  17   6 C     -0.119  1.039  3.081  0.000    22.843     6.815
  18   6 C     -0.113  1.035  3.079  0.000    22.731     6.799
  19   1 H      0.232  0.768  0.000  0.000     0.958     1.533
  20   1 H      0.081  0.919  0.000  0.000     1.969     2.194
  21   1 H      0.063  0.937  0.000  0.000     2.160     2.298
  22   1 H      0.054  0.946  0.000  0.000     2.267     2.354
  23   1 H      0.063  0.937  0.000  0.000     2.164     2.300
  24   1 H      0.063  0.937  0.000  0.000     2.165     2.301
  25   1 H      0.038  0.962  0.000  0.000     2.473     2.459
  26   1 H      0.047  0.953  0.000  0.000     2.363     2.404
  27   1 H      0.046  0.954  0.000  0.000     2.375     2.410
  28   1 H      0.041  0.959  0.000  0.000     2.440     2.443
  29   1 H      0.036  0.964  0.000  0.000     2.502     2.473
  30   7 N     -0.393  1.317  4.076  0.000    30.185     8.160
  31   6 C      0.036  1.057  2.907  0.000    19.981     6.367
  32   6 C      0.274  1.048  2.678  0.000    22.371     7.746
  33   8 O     -0.558  1.782  4.776  0.000    25.105     6.718
  34   6 C     -0.068  1.052  3.016  0.000    21.791     6.645
  35   6 C     -0.078  1.055  3.022  0.000    21.981     6.675
  36   6 C     -0.018  1.051  2.967  0.000    20.974     6.534
  37   7 N     -0.142  1.206  3.936  0.000    24.081     7.288
  38   6 C      0.235  1.018  2.748  0.000    23.082     7.866
  39   7 N     -0.236  1.224  4.012  0.000    26.168     7.597
  40   7 N     -0.256  1.238  4.018  0.000    26.656     7.668
  41   1 H      0.175  0.825  0.000  0.000     1.245     1.748
  42   1 H      0.030  0.970  0.000  0.000     2.593     2.518
  43   1 H      0.072  0.928  0.000  0.000     2.062     2.245
  44   1 H     -0.002  1.002  0.000  0.000     3.093     2.750
  45   1 H      0.056  0.944  0.000  0.000     2.251     2.346
  46   1 H      0.078  0.922  0.000  0.000     2.001     2.212
  47   1 H      0.090  0.910  0.000  0.000     1.881     2.145
  48   1 H      0.058  0.942  0.000  0.000     2.221     2.331
  49   1 H      0.222  0.778  0.000  0.000     1.002     1.568
  50   1 H      0.236  0.764  0.000  0.000     0.939     1.518
  51   1 H      0.270  0.730  0.000  0.000     0.811     1.411
  52   1 H      0.246  0.754  0.000  0.000     0.899     1.485
  53   1 H      0.270  0.730  0.000  0.000     0.809     1.409
  54   7 N     -0.197  1.264  3.933  0.000    25.267     7.466
  55   6 C      0.044  1.054  2.903  0.000    19.836     6.340
  56   6 C      0.291  1.041  2.667  0.000    22.061     7.691
  57   8 O     -0.528  1.761  4.767  0.000    24.416     6.625
  58   6 C     -0.077  1.061  3.015  0.000    21.959     6.671
  59   6 C      0.001  1.054  2.945  0.000    20.532     6.445
  60   6 C     -0.114  1.042  3.072  0.000    22.730     6.798
  61   6 C     -0.089  1.034  3.055  0.000    22.255     6.726
  62   1 H      0.255  0.745  0.000  0.000     0.865     1.457
  63   1 H      0.019  0.981  0.000  0.000     2.746     2.592
  64   1 H      0.086  0.914  0.000  0.000     1.918     2.166
  65   1 H      0.047  0.953  0.000  0.000     2.356     2.400
  66   1 H      0.025  0.975  0.000  0.000     2.655     2.548
  67   1 H      0.043  0.957  0.000  0.000     2.414     2.429
  68   1 H      0.063  0.937  0.000  0.000     2.165     2.301
  69   1 H      0.053  0.947  0.000  0.000     2.286     2.365
  70   1 H      0.018  0.982  0.000  0.000     2.765     2.601
  71   1 H      0.039  0.961  0.000  0.000     2.459     2.452
  72   1 H     -0.005  1.005  0.000  0.000     3.152     2.776
  73   7 N     -0.186  1.243  3.943  0.000    25.037     7.431
  74   6 C      0.028  1.057  2.915  0.000    20.108     6.386
  75   6 C      0.217  1.082  2.701  0.000    23.416     7.925
  76   8 O     -0.358  1.752  4.605  0.000    20.853     6.122
  77   6 C      0.073  1.042  2.885  0.000    19.572     6.336
  78   8 O     -0.487  1.732  4.755  0.000    22.610     6.419
  79   1 H      0.236  0.764  0.000  0.000     0.938     1.517
  80   1 H      0.087  0.913  0.000  0.000     1.905     2.159
  81   1 H      0.069  0.931  0.000  0.000     2.094     2.263
  82   1 H      0.056  0.944  0.000  0.000     2.252     2.347
  83   1 H      0.370  0.630  0.000  0.000     0.543     1.158
  84   7 N     -0.410  1.327  4.084  0.000    30.662     8.224
  85   6 C      0.055  1.053  2.892  0.000    19.668     6.317
  86   6 C      0.281  1.054  2.664  0.000    22.236     7.722
  87   8 O     -0.455  1.740  4.715  0.000    22.809     6.403
  88   6 C     -0.083  1.066  3.017  0.000    22.080     6.689
  89   6 C      0.378  1.022  2.600  0.000    20.599     7.427
  90   8 O     -0.613  1.758  4.855  0.000    26.436     6.894
  91   8 O     -0.659  1.784  4.875  0.000    27.619     7.046
  92   1 H      0.186  0.814  0.000  0.000     1.181     1.702
  93   1 H      0.017  0.983  0.000  0.000     2.774     2.605
  94   1 H     -0.008  1.008  0.000  0.000     3.194     2.795
  95   1 H      0.025  0.975  0.000  0.000     2.662     2.551
  96   7 N     -0.203  1.270  3.933  0.000    25.419     7.488
  97   6 C      0.039  1.056  2.905  0.000    19.919     6.355
  98   6 C      0.282  1.042  2.676  0.000    22.221     7.720
  99   8 O     -0.463  1.722  4.741  0.000    22.985     6.428
 100   6 C      0.072  1.043  2.885  0.000    19.593     6.343
 101   8 O     -0.450  1.700  4.751  0.000    21.853     6.311
 102   1 H      0.172  0.828  0.000  0.000     1.259     1.758
 103   1 H      0.010  0.990  0.000  0.000     2.889     2.658
 104   1 H      0.060  0.940  0.000  0.000     2.197     2.318
 105   1 H      0.069  0.931  0.000  0.000     2.101     2.267
 106   1 H      0.348  0.652  0.000  0.000     0.594     1.211
 107   7 N     -0.194  1.260  3.933  0.000    25.203     7.456
 108   6 C      0.054  1.054  2.892  0.000    19.669     6.314
 109   6 C      0.271  1.044  2.685  0.000    22.417     7.753
 110   8 O     -0.456  1.738  4.718  0.000    22.837     6.407
 111   6 C     -0.090  1.064  3.026  0.000    22.219     6.711
 112   6 C      0.379  1.020  2.601  0.000    20.579     7.424
 113   8 O     -0.651  1.786  4.866  0.000    27.413     7.020
 114   8 O     -0.633  1.764  4.869  0.000    26.948     6.960
 115   1 H      0.188  0.812  0.000  0.000     1.168     1.693
 116   1 H      0.031  0.969  0.000  0.000     2.567     2.506
 117   1 H      0.025  0.975  0.000  0.000     2.658     2.549
 118   1 H      0.047  0.953  0.000  0.000     2.356     2.400
 119   7 N     -0.202  1.263  3.939  0.000    25.382     7.482
 120   6 C      0.020  1.066  2.914  0.000    20.243     6.407
 121   6 C      0.276  1.043  2.681  0.000    22.338     7.739
 122   8 O     -0.447  1.738  4.708  0.000    22.634     6.379
 123   6 C     -0.076  1.055  3.021  0.000    21.939     6.667
 124   6 C     -0.006  1.076  2.930  0.000    28.167     8.705
 125   6 C     -0.044  1.082  2.962  0.000    29.098     8.846
 126   6 C     -0.037  1.082  2.955  0.000    28.923     8.820
 127   6 C     -0.062  1.074  2.988  0.000    29.552     8.915
 128   6 C     -0.073  1.078  2.995  0.000    29.815     8.954
 129   6 C      0.147  1.044  2.809  0.000    24.809     8.163
 130   8 O     -0.423  1.714  4.709  0.000    21.305     6.231
 131   1 H      0.205  0.795  0.000  0.000     1.081     1.629
 132   1 H      0.083  0.917  0.000  0.000     1.943     2.180
 133   1 H      0.060  0.940  0.000  0.000     2.195     2.317
 134   1 H      0.049  0.951  0.000  0.000     2.331     2.387
 135   1 H      0.046  0.954  0.000  0.000     2.366     2.406
 136   1 H      0.032  0.968  0.000  0.000     2.562     2.503
 137   1 H      0.069  0.931  0.000  0.000     2.098     2.265
 138   1 H      0.051  0.949  0.000  0.000     2.310     2.377
 139   1 H      0.354  0.646  0.000  0.000     0.578     1.194
 140   7 N     -0.179  1.243  3.935  0.000    24.867     7.406
 141   6 C      0.011  1.063  2.925  0.000    20.396     6.432
 142   6 C      0.265  1.046  2.689  0.000    22.522     7.771
 143   8 O     -0.494  1.747  4.746  0.000    23.641     6.519
 144   6 C     -0.147  1.044  3.102  0.000    23.390     6.896
 145   1 H      0.188  0.812  0.000  0.000     1.167     1.692
 146   1 H      0.108  0.892  0.000  0.000     1.716     2.049
 147   1 H      0.091  0.909  0.000  0.000     1.871     2.139
 148   1 H      0.079  0.921  0.000  0.000     1.993     2.208
 149   1 H      0.069  0.931  0.000  0.000     2.094     2.263
 150   7 N     -0.172  1.247  3.925  0.000    24.732     7.386
 151   6 C      0.007  1.070  2.924  0.000    20.467     6.441
 152   6 C      0.285  1.039  2.676  0.000    22.175     7.711
 153   8 O     -0.464  1.730  4.733  0.000    22.996     6.429
 154   6 C      0.112  1.047  2.841  0.000    18.844     6.198
 155   8 O     -0.471  1.712  4.759  0.000    22.287     6.373
 156   6 C     -0.142  1.044  3.097  0.000    23.290     6.882
 157   1 H      0.250  0.750  0.000  0.000     0.883     1.472
 158   1 H      0.103  0.897  0.000  0.000     1.760     2.075
 159   1 H      0.013  0.987  0.000  0.000     2.844     2.638
 160   1 H      0.359  0.641  0.000  0.000     0.567     1.183
 161   1 H      0.072  0.928  0.000  0.000     2.067     2.248
 162   1 H      0.044  0.956  0.000  0.000     2.396     2.421
 163   1 H      0.087  0.913  0.000  0.000     1.909     2.160
 164   7 N     -0.192  1.245  3.947  0.000    25.171     7.451
 165   6 C      0.043  1.053  2.904  0.000    19.854     6.345
 166   6 C      0.290  1.042  2.668  0.000    22.090     7.697
 167   8 O     -0.480  1.729  4.752  0.000    23.352     6.479
 168   6 C     -0.027  1.044  2.983  0.000    21.058     6.532
 169   6 C     -0.094  1.067  3.027  0.000    22.295     6.723
 170   6 C      0.373  1.023  2.604  0.000    20.680     7.442
 171   8 O     -0.677  1.793  4.885  0.000    28.095     7.106
 172   8 O     -0.625  1.761  4.864  0.000    26.741     6.933
 173   1 H      0.200  0.800  0.000  0.000     1.106     1.647
 174   1 H      0.049  0.951  0.000  0.000     2.329     2.387
 175   1 H      0.028  0.972  0.000  0.000     2.620     2.531
 176   1 H      0.004  0.996  0.000  0.000     2.993     2.705
 177   1 H      0.039  0.961  0.000  0.000     2.461     2.453
 178   1 H      0.026  0.974  0.000  0.000     2.641     2.541
 179   7 N     -0.177  1.246  3.930  0.000    24.826     7.400
 180   6 C      0.038  1.058  2.904  0.000    19.938     6.356
 181   6 C      0.289  1.037  2.674  0.000    22.111     7.701
 182   8 O     -0.478  1.720  4.758  0.000    23.307     6.473
 183   6 C     -0.008  1.057  2.950  0.000    20.683     6.469
 184   6 C     -0.134  1.042  3.092  0.000    23.129     6.857
 185   6 C     -0.115  1.040  3.075  0.000    22.760     6.802
 186   1 H      0.179  0.821  0.000  0.000     1.219     1.730
 187   1 H      0.046  0.954  0.000  0.000     2.376     2.410
 188   1 H      0.008  0.992  0.000  0.000     2.923     2.674
 189   1 H      0.065  0.935  0.000  0.000     2.138     2.287
 190   1 H      0.063  0.937  0.000  0.000     2.160     2.298
 191   1 H      0.061  0.939  0.000  0.000     2.183     2.310
 192   1 H      0.066  0.934  0.000  0.000     2.128     2.281
 193   1 H      0.070  0.930  0.000  0.000     2.082     2.256
 194   1 H      0.017  0.983  0.000  0.000     2.786     2.610
 195   7 N     -0.181  1.247  3.934  0.000    24.921     7.414
 196   6 C      0.014  1.065  2.921  0.000    20.337     6.421
 197   6 C      0.292  1.038  2.670  0.000    22.042     7.688
 198   8 O     -0.456  1.720  4.736  0.000    22.829     6.406
 199   6 C      0.061  1.043  2.896  0.000    19.767     6.369
 200   8 O     -0.476  1.718  4.759  0.000    22.389     6.388
 201   1 H      0.224  0.776  0.000  0.000     0.992     1.560
 202   1 H      0.085  0.915  0.000  0.000     1.925     2.170
 203   1 H      0.056  0.944  0.000  0.000     2.247     2.344
 204   1 H      0.053  0.947  0.000  0.000     2.284     2.363
 205   1 H      0.370  0.630  0.000  0.000     0.544     1.159
 206   7 N     -0.176  1.238  3.938  0.000    24.803     7.397
 207   6 C      0.007  1.065  2.928  0.000    20.472     6.443
 208   6 C      0.268  1.041  2.691  0.000    22.474     7.763
 209   8 O     -0.445  1.710  4.735  0.000    22.607     6.375
 210   6 C     -0.107  1.060  3.048  0.000    22.539     6.758
 211   6 C      0.294  1.036  2.671  0.000    22.019     7.683
 212   8 O     -0.509  1.762  4.747  0.000    23.986     6.566
 213   7 N     -0.272  1.266  4.006  0.000    27.038     7.723
 214   1 H      0.198  0.802  0.000  0.000     1.118     1.657
 215   1 H      0.117  0.883  0.000  0.000     1.638     2.001
 216   1 H      0.060  0.940  0.000  0.000     2.195     2.317
 217   1 H      0.107  0.893  0.000  0.000     1.725     2.054
 218   1 H      0.232  0.768  0.000  0.000     0.955     1.531
 219   1 H      0.231  0.769  0.000  0.000     0.960     1.535
 220   7 N     -0.166  1.237  3.929  0.000    24.587     7.364
 221   6 C      0.019  1.060  2.922  0.000    20.266     6.410
 222   6 C      0.265  1.044  2.691  0.000    22.533     7.773
 223   8 O     -0.484  1.728  4.756  0.000    23.433     6.490
 224   6 C     -0.044  1.045  2.999  0.000    21.324     6.569
 225   6 C      0.015  1.056  2.929  0.000    20.327     6.420
 226  16 S     -0.169  1.882  4.242  0.046   148.218    20.491
 227   6 C     -0.046  1.047  2.999  0.000    21.468     6.609
 228   1 H      0.196  0.804  0.000  0.000     1.128     1.664
 229   1 H      0.107  0.893  0.000  0.000     1.726     2.054
 230   1 H      0.031  0.969  0.000  0.000     2.566     2.505
 231   1 H      0.056  0.944  0.000  0.000     2.247     2.344
 232   1 H      0.017  0.983  0.000  0.000     2.781     2.608
 233   1 H      0.011  0.989  0.000  0.000     2.868     2.648
 234   1 H      0.100  0.900  0.000  0.000     1.783     2.088
 235   1 H      0.023  0.977  0.000  0.000     2.683     2.562
 236   1 H      0.020  0.980  0.000  0.000     2.732     2.585
 237   7 N     -0.181  1.252  3.929  0.000    24.915     7.413
 238   6 C      0.003  1.069  2.928  0.000    20.526     6.451
 239   6 C      0.271  1.038  2.691  0.000    22.430     7.756
 240   8 O     -0.477  1.747  4.730  0.000    23.276     6.468
 241   6 C      0.063  1.040  2.897  0.000    19.734     6.364
 242   8 O     -0.472  1.722  4.750  0.000    22.290     6.373
 243   1 H      0.245  0.755  0.000  0.000     0.903     1.489
 244   1 H      0.072  0.928  0.000  0.000     2.061     2.245
 245   1 H      0.078  0.922  0.000  0.000     1.997     2.210
 246   1 H      0.053  0.947  0.000  0.000     2.278     2.360
 247   1 H      0.338  0.662  0.000  0.000     0.618     1.235
 248   7 N     -0.185  1.250  3.935  0.000    25.001     7.426
 249   6 C      0.013  1.067  2.920  0.000    20.365     6.426
 250   6 C      0.283  1.037  2.680  0.000    22.208     7.717
 251   8 O     -0.497  1.756  4.741  0.000    23.727     6.531
 252   6 C     -0.098  1.061  3.037  0.000    22.364     6.732
 253   6 C     -0.088  1.054  3.034  0.000    22.173     6.704
 254   6 C     -0.028  1.053  2.974  0.000    21.157     6.564
 255   7 N     -0.137  1.208  3.929  0.000    23.965     7.271
 256   6 C      0.228  1.019  2.753  0.000    23.203     7.886
 257   7 N     -0.236  1.219  4.017  0.000    26.183     7.600
 258   7 N     -0.257  1.233  4.024  0.000    26.664     7.669
 259   1 H      0.226  0.774  0.000  0.000     0.984     1.554
 260   1 H      0.077  0.923  0.000  0.000     2.014     2.219
 261   1 H      0.083  0.917  0.000  0.000     1.949     2.183
 262   1 H      0.082  0.918  0.000  0.000     1.961     2.190
 263   1 H      0.071  0.929  0.000  0.000     2.078     2.254
 264   1 H      0.088  0.912  0.000  0.000     1.902     2.157
 265   1 H      0.073  0.927  0.000  0.000     2.051     2.240
 266   1 H      0.096  0.904  0.000  0.000     1.821     2.111
 267   1 H      0.241  0.759  0.000  0.000     0.919     1.501
 268   1 H      0.238  0.762  0.000  0.000     0.933     1.513
 269   1 H      0.250  0.750  0.000  0.000     0.883     1.472
 270   1 H      0.249  0.751  0.000  0.000     0.889     1.477
 271   1 H      0.242  0.758  0.000  0.000     0.914     1.498
 272   7 N     -0.191  1.250  3.941  0.000    25.150     7.448
 273   6 C      0.020  1.062  2.918  0.000    20.243     6.407
 274   6 C      0.284  1.038  2.678  0.000    22.184     7.713
 275   8 O     -0.499  1.753  4.746  0.000    23.753     6.534
 276   6 C     -0.147  1.047  3.100  0.000    23.382     6.894
 277   1 H      0.230  0.770  0.000  0.000     0.965     1.539
 278   1 H      0.076  0.924  0.000  0.000     2.021     2.223
 279   1 H      0.082  0.918  0.000  0.000     1.953     2.186
 280   1 H      0.088  0.912  0.000  0.000     1.901     2.156
 281   1 H      0.058  0.942  0.000  0.000     2.226     2.333
 282   7 N     -0.173  1.243  3.930  0.000    24.744     7.388
 283   6 C      0.030  1.058  2.911  0.000    20.068     6.379
 284   6 C      0.214  1.083  2.703  0.000    23.470     7.934
 285   8 O     -0.365  1.752  4.614  0.000    20.997     6.144
 286   6 C     -0.066  1.054  3.012  0.000    21.754     6.639
 287   6 C     -0.105  1.061  3.045  0.000    22.504     6.753
 288   6 C      0.293  1.037  2.671  0.000    22.037     7.687
 289   8 O     -0.495  1.750  4.745  0.000    23.666     6.522
 290   7 N     -0.293  1.266  4.027  0.000    27.550     7.795
 291   1 H      0.222  0.778  0.000  0.000     0.999     1.565
 292   1 H      0.089  0.911  0.000  0.000     1.892     2.151
 293   1 H      0.072  0.928  0.000  0.000     2.065     2.247
 294   1 H      0.063  0.937  0.000  0.000     2.163     2.300
 295   1 H      0.080  0.920  0.000  0.000     1.975     2.198
 296   1 H      0.078  0.922  0.000  0.000     2.000     2.211
 297   1 H      0.216  0.784  0.000  0.000     1.028     1.589
 298   1 H      0.208  0.792  0.000  0.000     1.067     1.618
 299   1 H      0.189  0.811  0.000  0.000     1.161     1.688
 300   1 H      0.093  0.907  0.000  0.000     1.852     2.128
 301   1 H      0.196  0.804  0.000  0.000     1.128     1.664
 302   1 H      0.069  0.931  0.000  0.000     2.100     2.266
 303   1 H      0.192  0.808  0.000  0.000     1.150     1.680
 304   1 H      0.070  0.930  0.000  0.000     2.088     2.259

 Mol. C6AA /au·bohr⁶  :     888706.421886
 Mol. C8AA /au·bohr⁸  :   19898162.524976
 Mol. α(0) /au        :       1407.237518

 
molecular dipole:
                 x           y           z       tot (Debye)
 q only:     -230.061    -138.547    -281.738
   full:     -228.389    -140.160    -285.339     994.961
molecular quadrupole (traceless):
                xx          xy          yy          xz          yz          zz
 q only:    -3016.359  -47560.704   46490.465  -97733.450  -59256.798  -43474.106
  q+dip:    -1075.926  -47703.313   46864.033  -98032.277  -60699.864  -45788.107
   full:    -1073.167  -47704.471   46862.542  -98034.377  -60699.809  -45789.375
speedup 14.26
cpu  time for grad   25.93 s
wall time for grad    1.82 s

SCC energy    :    -499.5801946
rep           :       5.5940017
ES            :       2.0731204
AES           :      -0.1585852
AXC           :       0.1245495
disp          :      -0.4082011
XB            :       0.0000000
fix           :       0.0000000
Gborn         :       0.0000000
Gsasa         :       0.0000000
Ghb           :       0.0000000
Gshift        :       0.0000000
Gsolv         :      -0.7097812     -445.39
Etot ala COSMO:    -499.5801946
grad norm     :       0.3851282
total E       :    -493.9521450
atomizationE  :      86.4365581    54239.76
(atE without considering molecular charge,
 total energy contains solvation terms)
H-L gap (eV)  :          2.1136

------------------------------------------------------------------------
 * finished run on 2019/02/13 at 00:17:28.368     
------------------------------------------------------------------------
 total:
 * wall-time:     0 d,  0 h,  0 min,  2.060 sec
 *  cpu-time:     0 d,  0 h,  0 min, 29.415 sec
 * ratio c/w:    14.280 speedup
 SCF:
 * wall-time:     0 d,  0 h,  0 min,  1.921 sec
 *  cpu-time:     0 d,  0 h,  0 min, 27.561 sec
 * ratio c/w:    14.351 speedup

