      -----------------------------------------------------------      
     |                   =====================                   |     
     |                           x T B                           |     
     |                   =====================                   |     
     |                         S. Grimme                         |     
     |          Mulliken Center for Theoretical Chemistry        |     
     |                    University of Bonn                     |     
     |                Version 6.1 RC1 (SAW190329)                |     
      -----------------------------------------------------------      

   This program is distributed in the hope that it will be useful,
   but WITHOUT ANY WARRANTY; without even the implied warranty of
   MERCHANTABILITY or FITNESS FOR A PARTICULAR PURPOSE.
   
   FOR NON-COMMERCIAL, ACADEMIA USE ONLY.
   
   Cite this work as:
   S. Grimme, C. Bannwarth, P. Shushkov, J. Comput. Theory Chem., 2017,
   13, 1989-2009. DOI: 10.1021/acs.jctc.7b00118
   C. Bannwarth, S. Ehlert and S. Grimme., J. Comput. Theory Chem., 2019,
   just accepted. DOI: 10.1021/acs.jctc.8b01176
   
   for sTDA-xTB:
   S. Grimme and C. Bannwarth, J. Chem. Phys., 2016, 145, 054103.
   DOI: 10.1063/1.4959605
   
   in the mass-spec context:
   V. Asgeirsson, C. Bauer and S. Grimme, Chem. Sci., 2017, 8, 4879.
   DOI: 10.1039/c7sc00601b
   
   for metadynamics refer to:
   S. Grimme, ChemRxiv, Preprint. DOI: 10.26434/chemrxiv.7660532.v1
   
   with help from (in alphabetical order)
   C. Bannwarth, F. Bohle, G. Brandenburg, E. Caldeweyher, M. Checinski,
   S. Dohm, S. Ehlert, S. Ehrlich, F. März, H. Neugebauer, J. Pisarek,
   P. Pracht, P. Shushkov, and S. Spicher.
   
 * started run on 2019/05/31 at 05:35:02.442     

           -------------------------------------------------
          |                Calculation Setup                |
           -------------------------------------------------

          program call               : /home/lum/install/xtb/xtb-190329/bin/xtb xtb_tmp.xyz --chrg 0 --grad --gfn 2 --etemp 500 --acc 0.1 --gbsa h2o --parallel 2
          hostname                   : cpu02
          coordinate file            : xtb_tmp.xyz
          omp threads                :                     2
          number of atoms            :                   419
          number of electrons        :                  1112
          charge                     :                     0
          spin                       :                   0.0
          first test random number   :      0.70926218167286


molecular fragmentation (1/2 indicates fragments):
111111111111111111111111111111111111111111111111111111111111111111111111
111111111111111111111111111111111111111111122222222222222222222222222222
222222222222222222222222222222222222222222222222222222222222222222222222
222222222222222222222222222222222222222222222222222222222222222222222222
222222222222222222222222222222222222222222222222222222222222222222222222
22222222222222222222222222222222222222222222222112222222222
# atoms in fragment 1/2:   117   302
 fragment masses (1/2) :      784.93     1998.41
CMA distance (Bohr)    :  18.799
constraining FC (au)   :  0.0500

########################################################################
# WARNING! Please study the warnings concerning your input carefully
#  - XTBPATH is not set, using XTBHOME instead
#  - Process number higher than OMP_NUM_THREADS, I hope you know what you are doing.
########################################################################

           ------------------------------------------------- 
          |                 G F N 2 - x T B                 |
          | Geometry, Frequencies, Noncovalent interactions |
          |            JCTC 2018 parametrisation            |
           ------------------------------------------------- 
 
             k(s)              :                1.8500
             k(p)              :                2.2300
             k(d)              :                2.2300
             k(f)              :                2.0000
             kEN (H0ij)        :               -2.0000
             D4 a1             :                0.5200
             D4 a2             :                5.0000
             D4 s6             :                1.0000
             D4 s8             :                2.7000
             D4 s9             :                5.0000
             alphaj            :                2.0000

  Z AO/shell   Hii/eV     exponent
  1     Wed Apr 25 08:07:45 CEST 2018   EN: 2.200 GM2: 0.406  GM3: 0.0800  RAES: 1.40
     1s    -10.707211    1.230000
  6     Wed Apr 25 08:07:45 CEST 2018   EN: 2.550 GM2: 0.538  GM3: 0.1500  RAES: 3.00
     2s    -13.970922    2.096432
     2p    -10.063292    1.800000
  7     Wed Apr 25 08:07:45 CEST 2018   EN: 3.040 GM2: 0.461  GM3:-0.0640  RAES: 1.90
     2s    -16.686243    2.339881
     2p    -12.523956    2.014332
  8     Wed Apr 25 08:07:45 CEST 2018   EN: 3.440 GM2: 0.452  GM3:-0.0517  RAES: 1.80
     2s    -20.229985    2.439742
     2p    -15.503117    2.137023

 Solvent             : h2o
 Using internal parameter file: .param_gbsa2_h2o
 Gsolv ref. state (COSMO-RS): gsolv [1 M gas/solution]
 temperature (mdtemp)       :    298.150000000000     
 dielectric constant        :    80.2000000000000     
 rho                        :    1.00000000000000     
 mass                       :    18.0000000000000     
 surface tension            :    15.5689454083859     
 probe radius               :   0.975313790000000     
 vdW radii scaling          :    1.00000000000000     
 Gshift (Eh)                :   1.857443126794793E-003
 c1                         :    1.55243817000000     
 soset                      :   0.130326360000000     
 HB correction              :  T
 Number of grid points      :          230

            Z     q(EN)     CN     RAES       Cart. coordinates
     1  N   5.0   -0.72    3.00    1.93   282.78760   133.76777   199.35931
     2  C   4.0    0.06    3.98    3.59   282.45991   132.11078   197.20391
     3  C   4.0    0.27    3.01    3.02   281.21350   133.43556   194.94789
     4  O   6.0   -0.48    1.00    1.80   281.77056   132.84549   192.77104
     5  C   4.0   -0.14    3.99    3.60   280.95658   129.77151   197.99122
     6  C   4.0   -0.11    3.98    3.58   282.36149   128.11873   199.91984
     7  C   4.0   -0.23    3.98    3.59   280.57307   126.12538   200.99782
     8  C   4.0   -0.24    3.98    3.59   284.64469   126.82613   198.72540
     9  H   1.0    0.25    1.00    1.43   281.80748   133.37484   200.96349
    10  H   1.0    0.10    0.99    1.43   284.33765   131.55304   196.52530
    11  H   1.0    0.10    0.99    1.43   279.17371   130.42064   198.79811
    12  H   1.0    0.10    0.99    1.43   280.54570   128.66108   196.30417
    13  H   1.0    0.11    0.99    1.43   282.99342   129.31757   201.47948
    14  H   1.0    0.11    0.99    1.43   281.50099   125.07037   202.49516
    15  H   1.0    0.10    0.99    1.43   278.88973   127.00835   201.77555
    16  H   1.0    0.10    0.99    1.43   279.99191   124.80131   199.53754
    17  H   1.0    0.10    0.99    1.43   285.54868   125.58981   200.09151
    18  H   1.0    0.09    0.99    1.43   284.04973   125.70187   197.11309
    19  H   1.0    0.09    0.99    1.43   286.03813   128.19281   198.09152
    20  N   5.0   -0.49    3.01    1.93   279.50647   135.20426   195.48076
    21  C   4.0    0.06    4.00    3.61   278.34619   136.71363   193.51436
    22  C   4.0    0.29    3.01    3.02   280.37482   138.23578   192.10075
    23  O   6.0   -0.44    1.00    1.80   280.39196   138.42205   189.79143
    24  C   4.0   -0.14    3.99    3.60   276.38124   138.50520   194.63974
    25  C   4.0   -0.12    3.98    3.59   274.06069   137.10116   195.65427
    26  C   4.0    0.27    3.00    3.02   272.37205   138.93191   197.07347
    27  O   6.0   -0.39    1.00    1.80   273.02839   139.95974   199.03633
    28  N   5.0   -0.65    3.00    1.93   270.11556   139.37895   196.01296
    29  H   1.0    0.24    1.00    1.43   278.99566   135.54203   197.29774
    30  H   1.0    0.12    0.99    1.43   277.46435   135.45796   192.11828
    31  H   1.0    0.13    0.99    1.43   277.26411   139.57048   196.16964
    32  H   1.0    0.12    0.99    1.43   275.80588   139.84879   193.18361
    33  H   1.0    0.10    0.99    1.43   273.02483   136.21161   194.11697
    34  H   1.0    0.11    0.99    1.43   274.64233   135.65236   197.00087
    35  H   1.0    0.26    1.00    1.43   269.57947   138.53595   194.39894
    36  H   1.0    0.29    1.00    1.43   268.92204   140.60290   196.85139
    37  N   5.0   -0.48    3.01    1.93   282.09820   139.31230   193.58540
    38  C   4.0    0.07    4.00    3.61   284.20885   140.70595   192.52953
    39  C   4.0    0.29    3.02    3.02   285.76099   138.92166   190.86011
    40  O   6.0   -0.41    1.00    1.80   286.57144   139.53812   188.77700
    41  C   4.0   -0.16    3.99    3.60   285.82478   141.75544   194.68260
    42  C   4.0   -0.15    3.98    3.59   287.73915   143.71677   193.77935
    43  C   4.0   -0.03    3.99    3.60   286.46943   146.28642   193.43203
    44  N   5.0   -0.47    3.02    1.93   288.30039   148.15987   192.64317
    45  C   4.0    0.38    3.00    3.02   287.98039   149.95409   190.91319
    46  N   5.0   -0.62    3.01    1.93   285.89259   150.14964   189.55190
    47  N   5.0   -0.65    3.02    1.93   289.83588   151.65422   190.61635
    48  H   1.0    0.24    1.00    1.43   281.93845   139.22214   195.49079
    49  H   1.0    0.15    0.99    1.43   283.50664   142.23207   191.31031
    50  H   1.0    0.11    0.99    1.43   284.56572   142.61142   196.07563
    51  H   1.0    0.11    0.99    1.43   286.77295   140.16645   195.58905
    52  H   1.0    0.11    0.99    1.43   289.25183   143.89662   195.16753
    53  H   1.0    0.14    0.99    1.43   288.56029   143.10537   191.99066
    54  H   1.0    0.15    0.99    1.43   284.97763   146.13981   192.02696
    55  H   1.0    0.12    0.99    1.43   285.62662   146.88052   195.22723
    56  H   1.0    0.23    1.00    1.43   289.92082   148.16617   193.65854
    57  H   1.0    0.33    1.00    1.43   284.61772   148.66810   189.33973
    58  H   1.0    0.28    1.00    1.43   285.81324   151.45575   188.17120
    59  H   1.0    0.26    1.00    1.43   291.36599   151.63163   191.74373
    60  H   1.0    0.27    1.00    1.43   289.64987   153.07383   189.36712
    61  N   5.0   -0.47    3.01    1.93   286.15375   136.63194   191.84317
    62  C   4.0    0.08    4.00    3.62   287.57414   134.76400   190.43409
    63  C   4.0    0.30    3.01    3.02   286.34807   134.38405   187.84300
    64  O   6.0   -0.45    1.00    1.80   287.64653   134.35373   185.91838
    65  C   4.0   -0.10    3.98    3.58   287.86918   132.28366   191.90537
    66  C   4.0   -0.23    3.99    3.59   289.13049   130.29651   190.23959
    67  C   4.0   -0.23    3.98    3.59   289.46226   132.71380   194.27674
    68  H   1.0    0.24    1.00    1.43   285.63964   136.25466   193.65059
    69  H   1.0    0.13    0.99    1.43   289.46241   135.53067   190.02913
    70  H   1.0    0.13    0.99    1.43   285.97623   131.64294   192.42899
    71  H   1.0    0.09    0.99    1.43   289.37199   128.55395   191.29384
    72  H   1.0    0.11    0.99    1.43   288.00485   129.91659   188.57021
    73  H   1.0    0.10    0.99    1.43   290.97976   130.95192   189.62905
    74  H   1.0    0.09    0.99    1.43   289.68161   130.94898   195.30333
    75  H   1.0    0.10    0.99    1.43   291.33557   133.38817   193.76560
    76  H   1.0    0.10    0.99    1.43   288.60622   134.09321   195.53157
    77  N   5.0   -0.48    3.00    1.93   283.84646   134.07493   187.79127
    78  C   4.0    0.07    4.00    3.62   282.57314   133.82355   185.37735
    79  C   4.0    0.30    3.01    3.02   283.62203   135.74217   183.46654
    80  O   6.0   -0.47    1.00    1.80   284.18126   135.11949   181.31007
    81  C   4.0   -0.15    3.99    3.60   279.72798   134.26837   185.61093
    82  C   4.0   -0.15    3.98    3.58   278.33544   132.13996   186.97998
    83  C   4.0   -0.04    3.99    3.60   275.51378   132.79380   187.14564
    84  N   5.0   -0.48    3.01    1.93   274.02277   130.80242   188.29350
    85  C   4.0    0.37    3.01    3.02   273.29381   128.70181   187.09524
    86  N   5.0   -0.63    3.02    1.93   273.70692   128.35866   184.65426
    87  N   5.0   -0.65    3.02    1.93   272.01678   126.93198   188.34666
    88  H   1.0    0.30    1.00    1.43   282.82542   133.96523   189.41130
    89  H   1.0    0.11    0.99    1.43   282.94937   131.94020   184.58190
    90  H   1.0    0.15    0.99    1.43   279.43611   136.04783   186.60551
    91  H   1.0    0.10    0.99    1.43   278.97441   134.46624   183.70143
    92  H   1.0    0.11    0.99    1.43   278.58676   130.37199   185.95077
    93  H   1.0    0.13    0.99    1.43   279.10902   131.88564   188.87398
    94  H   1.0    0.11    0.99    1.43   275.26422   134.49937   188.27352
    95  H   1.0    0.11    0.99    1.43   274.77170   133.19487   185.26266
    96  H   1.0    0.22    1.00    1.43   273.85965   130.82521   190.19439
    97  H   1.0    0.26    1.00    1.43   274.66428   129.62016   183.60857
    98  H   1.0    0.33    1.00    1.43   273.23822   126.63506   183.91182
    99  H   1.0    0.25    1.00    1.43   271.63150   127.06855   190.20236
   100  H   1.0    0.31    1.00    1.43   271.57546   125.32740   187.39788
   101  N   5.0   -0.47    3.01    1.93   283.61420   138.13891   184.26510
   102  C   4.0    0.07    3.99    3.60   284.33345   140.20827   182.62845
   103  C   4.0    0.10    3.00    3.02   287.00039   139.85209   181.58053
   104  O   6.0   -0.40    1.00    1.80   287.53846   140.31107   179.36760
   105  C   4.0   -0.13    3.99    3.61   284.32583   142.72046   184.06777
   106  C   4.0   -0.11    3.98    3.58   281.73541   143.54875   185.03019
   107  C   4.0    0.31    3.00    3.02   282.16454   146.15918   186.29013
   108  O   6.0   -0.39    1.00    1.80   281.88376   148.08767   184.98751
   109  O   6.0   -0.47    1.00    1.80   282.89100   146.11211   188.54970
   110  H   1.0    0.29    1.00    1.43   283.17043   138.56871   186.07404
   111  H   1.0    0.13    0.99    1.43   283.03335   140.30197   181.01366
   112  H   1.0    0.16    0.99    1.43   285.59806   142.56329   185.68506
   113  H   1.0    0.13    0.99    1.43   285.05200   144.18957   182.80806
   114  H   1.0    0.12    0.99    1.43   280.39501   143.74606   183.47834
   115  H   1.0    0.14    0.99    1.43   281.01303   142.23049   186.43886
   116  N   5.0   -0.68    3.00    1.93   290.39294   134.64988   181.15543
   117  C   4.0    0.07    3.98    3.59   290.39449   132.54974   179.38753
   118  C   4.0    0.29    3.01    3.02   289.68537   133.52104   176.75786
   119  O   6.0   -0.39    1.00    1.80   291.02480   133.15333   174.89467
   120  C   4.0   -0.21    3.98    3.59   288.54458   130.53701   180.28525
   121  H   1.0    0.32    1.00    1.43   289.31976   134.48619   182.73993
   122  H   1.0    0.11    0.99    1.43   292.31408   131.77405   179.24011
   123  H   1.0    0.09    0.99    1.43   288.45818   129.01235   178.91522
   124  H   1.0    0.10    0.99    1.43   289.17694   129.78652   182.08797
   125  H   1.0    0.13    0.99    1.43   286.67890   131.36486   180.51179
   126  N   5.0   -0.48    3.01    1.93   287.49124   134.74594   176.61081
   127  C   4.0    0.08    4.00    3.62   286.63737   135.73934   174.19984
   128  C   4.0    0.10    3.00    3.02   288.79761   137.18185   172.92892
   129  O   6.0   -0.38    1.00    1.80   289.50348   136.74772   170.76826
   130  C   4.0   -0.09    3.98    3.58   284.29606   137.42326   174.53476
   131  C   4.0   -0.22    3.98    3.59   283.64146   138.71082   172.03523
   132  C   4.0   -0.22    3.98    3.59   282.06025   135.85367   175.46856
   133  H   1.0    0.29    1.00    1.43   286.44821   135.10472   178.17993
   134  H   1.0    0.13    0.99    1.43   286.18830   134.15245   172.93775
   135  H   1.0    0.15    0.99    1.43   284.75514   138.87201   175.93888
   136  H   1.0    0.11    0.99    1.43   281.96834   139.87978   172.25646
   137  H   1.0    0.13    0.99    1.43   285.18238   139.90979   171.39358
   138  H   1.0    0.11    0.99    1.43   283.27811   137.30747   170.57839
   139  H   1.0    0.10    0.99    1.43   280.39406   137.04606   175.59756
   140  H   1.0    0.10    0.99    1.43   281.66960   134.32774   174.15043
   141  H   1.0    0.13    0.99    1.43   282.44147   135.06844   177.32520
   142  N   5.0   -0.72    3.00    1.93   292.29533   115.40287   197.25070
   143  C   4.0    0.06    3.98    3.59   293.28557   117.52994   195.86807
   144  C   4.0    0.06    3.00    3.02   295.87641   118.42434   196.76577
   145  O   6.0   -0.46    1.00    1.80   296.94274   120.19157   195.72211
   146  C   4.0   -0.14    3.99    3.60   291.44615   119.76719   195.93421
   147  C   4.0   -0.11    3.98    3.58   288.87727   119.19838   194.72342
   148  C   4.0   -0.24    3.99    3.60   287.13606   121.45335   195.16980
   149  C   4.0   -0.23    3.98    3.59   289.11487   118.64731   191.90210
   150  H   1.0    0.26    1.00    1.43   291.93346   115.61328   199.11321
   151  H   1.0    0.11    0.99    1.43   293.53557   116.87907   193.91565
   152  H   1.0    0.11    0.99    1.43   291.17254   120.29846   197.91097
   153  H   1.0    0.11    0.99    1.43   292.35247   121.34561   194.96633
   154  H   1.0    0.10    0.99    1.43   288.07159   117.53168   195.65621
   155  H   1.0    0.09    0.99    1.43   285.28288   121.08922   194.36917
   156  H   1.0    0.09    0.99    1.43   286.91239   121.78701   197.18286
   157  H   1.0    0.09    0.99    1.43   287.92981   123.13928   194.30756
   158  H   1.0    0.11    0.99    1.43   287.24795   118.36115   191.09506
   159  H   1.0    0.09    0.99    1.43   290.02841   120.21794   190.94514
   160  H   1.0    0.09    0.99    1.43   290.20434   116.93399   191.59216
   161  N   5.0   -0.68    3.00    1.93   300.18498   119.13636   191.13464
   162  C   4.0    0.07    3.98    3.58   299.36467   120.64313   188.98504
   163  C   4.0    0.08    3.00    3.02   301.54834   122.36811   188.16288
   164  O   6.0   -0.38    1.00    1.80   302.47085   123.92343   189.61153
   165  C   4.0   -0.12    3.99    3.60   297.07111   122.19239   189.81091
   166  C   4.0   -0.11    3.98    3.58   296.07039   124.02518   187.80720
   167  C   4.0   -0.24    3.98    3.59   295.18498   122.65118   185.43412
   168  C   4.0   -0.24    3.99    3.60   293.88506   125.54182   188.92805
   169  H   1.0    0.31    1.00    1.43   299.49481   119.63990   192.84898
   170  H   1.0    0.12    0.99    1.43   298.91497   119.35262   187.43740
   171  H   1.0    0.10    0.99    1.43   295.58079   120.88465   190.38002
   172  H   1.0    0.14    0.99    1.43   297.62657   123.25854   191.48927
   173  H   1.0    0.12    0.99    1.43   297.60481   125.31904   187.29791
   174  H   1.0    0.09    0.99    1.43   294.37376   124.00460   184.12085
   175  H   1.0    0.10    0.99    1.43   296.75426   121.70595   184.51134
   176  H   1.0    0.09    0.99    1.43   293.74979   121.26705   185.92945
   177  H   1.0    0.09    0.99    1.43   293.24169   126.96575   187.59674
   178  H   1.0    0.09    0.99    1.43   292.31251   124.29202   189.36021
   179  H   1.0    0.10    0.99    1.43   294.46394   126.47035   190.66505
   180  N   5.0   -0.71    3.00    1.93   304.79894   126.36724   181.31149
   181  C   4.0    0.07    3.98    3.59   304.48500   127.29151   178.75774
   182  C   4.0    0.07    3.00    3.02   306.91048   128.43873   177.66974
   183  O   6.0   -0.40    1.00    1.80   306.86288   130.13603   176.09983
   184  C   4.0   -0.07    3.98    3.58   302.24878   129.14470   178.51504
   185  C   4.0   -0.23    3.98    3.59   299.76896   127.81734   179.14906
   186  C   4.0   -0.20    3.98    3.59   302.62249   131.48104   180.16821
   187  H   1.0    0.27    1.00    1.43   305.16803   127.65312   182.68423
   188  H   1.0    0.12    0.99    1.43   304.06294   125.62474   177.59286
   189  H   1.0    0.13    0.99    1.43   302.20777   129.73192   176.53180
   190  H   1.0    0.10    0.99    1.43   298.18640   128.98621   178.56573
   191  H   1.0    0.10    0.99    1.43   299.64293   126.02178   178.15854
   192  H   1.0    0.10    0.99    1.43   299.64652   127.46476   181.16951
   193  H   1.0    0.11    0.99    1.43   301.02154   132.74588   179.94581
   194  H   1.0    0.11    0.99    1.43   302.77164   130.96133   182.14940
   195  H   1.0    0.14    0.99    1.43   304.32114   132.49496   179.61332
   196  N   5.0   -0.68    3.00    1.93   302.23899   117.22140   178.88852
   197  C   4.0    0.08    3.98    3.59   300.01850   115.74570   179.51707
   198  C   4.0    0.28    3.01    3.02   298.20748   115.62408   177.25606
   199  O   6.0   -0.42    1.00    1.80   297.38655   117.53594   176.26089
   200  C   4.0    0.04    3.98    3.59   298.57896   117.00115   181.72268
   201  O   6.0   -0.52    1.99    1.82   300.22006   117.63401   183.71680
   202  C   4.0   -0.22    3.98    3.59   296.40937   115.32925   182.62949
   203  H   1.0    0.28    1.00    1.43   302.34609   119.03673   179.50131
   204  H   1.0    0.10    0.99    1.43   300.65219   113.84027   180.02838
   205  H   1.0    0.13    0.99    1.43   297.85931   118.81673   181.03369
   206  H   1.0    0.26    0.99    1.43   301.00096   116.14190   184.42792
   207  H   1.0    0.10    0.99    1.43   295.43849   116.27491   184.17270
   208  H   1.0    0.14    0.99    1.43   295.08586   114.99605   181.09682
   209  H   1.0    0.10    0.99    1.43   297.16811   113.54556   183.31129
   210  N   5.0   -0.49    3.01    1.93   297.43650   113.30030   176.59228
   211  C   4.0    0.07    4.00    3.61   295.57613   112.97240   174.60220
   212  C   4.0    0.29    3.01    3.02   292.96258   113.55471   175.68930
   213  O   6.0   -0.45    1.00    1.80   292.44828   113.15304   177.91268
   214  C   4.0   -0.14    3.98    3.59   295.61054   110.25816   173.60001
   215  C   4.0   -0.11    3.97    3.58   297.98414   109.65237   172.09155
   216  C   4.0    0.32    2.99    3.02   298.59255   106.75362   172.16279
   217  O   6.0   -0.38    1.00    1.80   298.12115   105.62697   174.17716
   218  O   6.0   -0.36    1.00    1.80   299.54867   105.83736   170.21625
   219  H   1.0    0.23    1.00    1.43   298.37650   111.74747   177.17555
   220  H   1.0    0.13    0.99    1.43   295.99877   114.30772   173.07558
   221  H   1.0    0.15    0.99    1.43   295.54807   108.93269   175.18345
   222  H   1.0    0.14    0.99    1.43   293.94302   109.92483   172.43145
   223  H   1.0    0.13    0.99    1.43   297.83810   110.22986   170.11982
   224  H   1.0    0.13    0.99    1.43   299.64135   110.57985   172.90987
   225  N   5.0   -0.49    3.01    1.93   291.31925   114.54748   174.05433
   226  C   4.0    0.08    3.99    3.61   288.67417   114.97522   174.65460
   227  C   4.0    0.28    3.02    3.02   288.36682   116.24679   177.24389
   228  O   6.0   -0.43    1.00    1.80   286.88162   115.46506   178.83504
   229  C   4.0   -0.08    3.99    3.60   287.14677   112.50874   174.57381
   230  C   4.0    0.28    3.00    3.02   287.16275   111.49108   171.89204
   231  O   6.0   -0.39    1.00    1.80   288.91220   110.23869   171.04729
   232  N   5.0   -0.65    3.00    1.93   285.14085   112.16000   170.52178
   233  H   1.0    0.24    1.00    1.43   291.81244   114.60779   172.21357
   234  H   1.0    0.11    0.99    1.43   287.91480   116.27924   173.23715
   235  H   1.0    0.14    0.99    1.43   288.01752   111.13904   175.83890
   236  H   1.0    0.13    0.99    1.43   285.23041   112.92309   175.19502
   237  H   1.0    0.29    1.00    1.43   285.01836   111.62463   168.69876
   238  H   1.0    0.29    1.00    1.43   283.80844   113.30661   171.25308
   239  N   5.0   -0.33    3.03    1.93   289.70173   118.35948   177.60646
   240  C   4.0    0.06    4.03    3.67   289.53919   119.61226   180.05177
   241  C   4.0    0.28    3.01    3.02   286.80169   120.18829   180.75513
   242  O   6.0   -0.47    1.00    1.80   285.95795   119.69065   182.84760
   243  C   4.0   -0.16    4.01    3.63   291.14560   122.01165   179.76052
   244  C   4.0   -0.15    4.00    3.63   291.35758   122.39570   176.90665
   245  C   4.0   -0.03    4.01    3.65   291.38657   119.69358   175.89481
   246  H   1.0    0.11    0.99    1.43   290.27369   118.36542   181.53157
   247  H   1.0    0.09    0.99    1.43   290.30399   123.62582   180.71552
   248  H   1.0    0.09    0.99    1.43   293.01435   121.67259   180.54717
   249  H   1.0    0.10    0.99    1.43   289.74495   123.44474   176.16769
   250  H   1.0    0.10    0.99    1.43   293.06300   123.41519   176.38951
   251  H   1.0    0.11    0.99    1.43   290.72757   119.57218   173.94890
   252  H   1.0    0.15    0.99    1.43   293.30133   118.91429   176.00612
   253  N   5.0   -0.49    3.01    1.93   285.43044   121.34065   178.96943
   254  C   4.0    0.07    3.99    3.61   282.90648   122.27806   179.48860
   255  C   4.0    0.30    3.01    3.02   281.28991   120.20910   180.69094
   256  O   6.0   -0.44    1.00    1.80   280.13597   120.58970   182.66143
   257  C   4.0   -0.14    3.99    3.60   281.65886   123.29356   177.09150
   258  C   4.0   -0.11    3.98    3.58   282.74175   125.84409   176.21723
   259  C   4.0   -0.22    3.98    3.59   281.74219   126.45179   173.57877
   260  C   4.0   -0.23    3.98    3.59   282.05090   127.97746   178.03218
   261  H   1.0    0.23    1.00    1.43   286.18034   121.70569   177.25483
   262  H   1.0    0.11    0.99    1.43   283.02118   123.78512   180.90974
   263  H   1.0    0.12    0.99    1.43   281.87841   121.89336   175.59074
   264  H   1.0    0.12    0.99    1.43   279.63889   123.51096   177.45710
   265  H   1.0    0.11    0.99    1.43   284.80555   125.71433   176.11785
   266  H   1.0    0.10    0.99    1.43   282.51974   128.23596   172.92309
   267  H   1.0    0.11    0.99    1.43   282.26109   124.98900   172.23277
   268  H   1.0    0.11    0.99    1.43   279.69381   126.60943   173.61590
   269  H   1.0    0.10    0.99    1.43   282.77560   129.76624   177.32904
   270  H   1.0    0.11    0.99    1.43   280.00912   128.12175   178.20372
   271  H   1.0    0.09    0.99    1.43   282.85004   127.67406   179.89888
   272  N   5.0   -0.47    3.01    1.93   281.24637   117.99903   179.47718
   273  C   4.0    0.08    4.00    3.61   279.65253   115.95023   180.36034
   274  C   4.0    0.30    3.01    3.02   280.16261   115.41066   183.15677
   275  O   6.0   -0.46    1.00    1.80   278.45304   114.94172   184.65216
   276  C   4.0   -0.14    3.98    3.59   280.16185   113.53766   178.84306
   277  C   4.0   -0.12    3.98    3.59   278.72367   113.47523   176.33613
   278  C   4.0    0.27    3.00    3.02   279.64429   115.42851   174.45163
   279  O   6.0   -0.45    1.00    1.80   281.86070   116.11089   174.33419
   280  N   5.0   -0.65    3.00    1.93   277.89123   116.29737   172.85864
   281  H   1.0    0.29    1.00    1.43   282.16934   117.74001   177.81824
   282  H   1.0    0.14    0.99    1.43   277.65954   116.52092   180.21029
   283  H   1.0    0.14    0.99    1.43   282.19457   113.40203   178.51304
   284  H   1.0    0.11    0.99    1.43   279.56728   111.92017   179.97319
   285  H   1.0    0.11    0.99    1.43   278.99391   111.62041   175.46746
   286  H   1.0    0.11    0.99    1.43   276.70959   113.73036   176.68426
   287  H   1.0    0.26    1.00    1.43   276.06676   115.78372   172.99889
   288  H   1.0    0.28    1.00    1.43   278.36443   117.59533   171.54549
   289  N   5.0   -0.48    3.01    1.93   282.59992   115.29885   183.77585
   290  C   4.0    0.07    4.00    3.61   283.43358   114.68335   186.31040
   291  C   4.0    0.29    3.01    3.02   282.65230   116.72457   188.20650
   292  O   6.0   -0.47    1.00    1.80   281.86324   116.16158   190.31531
   293  C   4.0   -0.15    3.98    3.59   286.29117   114.26315   186.25148
   294  C   4.0   -0.16    3.98    3.59   286.90671   111.86406   184.75825
   295  C   4.0   -0.15    3.98    3.59   289.66981   111.76736   183.93059
   296  C   4.0   -0.05    3.98    3.59   290.20658   109.25802   182.62299
   297  N   5.0   -0.73    3.98    2.81   292.76511   109.29670   181.46324
   298  H   1.0    0.29    1.00    1.43   283.93799   115.83816   182.51747
   299  H   1.0    0.12    0.99    1.43   282.46460   112.94983   186.91037
   300  H   1.0    0.13    0.99    1.43   287.15257   115.91133   185.36128
   301  H   1.0    0.10    0.99    1.43   286.99684   114.11031   188.17926
   302  H   1.0    0.10    0.99    1.43   286.45944   110.21799   185.91352
   303  H   1.0    0.13    0.99    1.43   285.72611   111.80121   183.07142
   304  H   1.0    0.14    0.99    1.43   290.01141   113.30238   182.59835
   305  H   1.0    0.10    0.99    1.43   290.89448   112.00850   185.56796
   306  H   1.0    0.11    0.99    1.43   290.08695   107.69887   183.96508
   307  H   1.0    0.12    0.99    1.43   288.82158   108.95927   181.12795
   308  H   1.0    0.25    1.00    1.43   293.15497   107.61720   180.57007
   309  H   1.0    0.30    0.99    1.43   292.84730   110.76308   180.12817
   310  H   1.0    0.24    1.00    1.43   294.11037   109.61623   182.82690
   311  N   5.0   -0.48    3.01    1.93   282.93678   119.10048   187.42942
   312  C   4.0    0.07    4.00    3.62   282.13495   121.20897   188.98329
   313  C   4.0    0.30    3.01    3.02   279.29679   120.99019   189.52166
   314  O   6.0   -0.45    1.00    1.80   278.43919   121.22153   191.66470
   315  C   4.0   -0.09    3.98    3.59   282.84475   123.72447   187.71770
   316  C   4.0   -0.16    3.98    3.59   285.73247   123.94369   187.50888
   317  C   4.0   -0.22    3.98    3.59   281.75140   125.93496   189.21669
   318  C   4.0   -0.24    3.98    3.58   286.57178   125.77910   185.45425
   319  H   1.0    0.30    1.00    1.43   283.56893   119.46740   185.65744
   320  H   1.0    0.11    0.99    1.43   283.07929   121.06678   190.82665
   321  H   1.0    0.14    0.99    1.43   282.01778   123.70322   185.82124
   322  H   1.0    0.09    0.99    1.43   286.48590   124.54888   189.32877
   323  H   1.0    0.12    0.99    1.43   286.53186   122.09910   187.06213
   324  H   1.0    0.10    0.99    1.43   282.37298   127.72090   188.42038
   325  H   1.0    0.12    0.99    1.43   279.69796   125.88277   189.19606
   326  H   1.0    0.10    0.99    1.43   282.37873   125.84535   191.17108
   327  H   1.0    0.09    0.99    1.43   288.61628   125.97219   185.48753
   328  H   1.0    0.11    0.99    1.43   286.02359   125.07371   183.60408
   329  H   1.0    0.10    0.99    1.43   285.74165   127.64216   185.69909
   330  N   5.0   -0.47    3.01    1.93   277.85313   120.50091   187.51327
   331  C   4.0    0.09    4.00    3.62   275.16712   120.06242   187.79310
   332  C   4.0    0.30    3.01    3.02   274.69780   118.07118   189.82412
   333  O   6.0   -0.45    1.00    1.80   273.17673   118.42032   191.54091
   334  C   4.0   -0.09    3.98    3.59   273.98018   119.16676   185.32676
   335  C   4.0    0.32    2.99    3.02   273.51731   121.36968   183.42169
   336  O   6.0   -0.38    1.00    1.80   274.02789   120.97528   181.17353
   337  O   6.0   -0.46    1.00    1.80   272.60794   123.34957   184.33623
   338  H   1.0    0.31    1.00    1.43   278.60048   120.38771   185.75359
   339  H   1.0    0.14    0.99    1.43   274.22581   121.80968   188.41093
   340  H   1.0    0.15    0.99    1.43   275.15793   117.73536   184.43275
   341  H   1.0    0.12    0.99    1.43   272.12794   118.34187   185.72708
   342  N   5.0   -0.47    3.01    1.93   275.99892   115.93606   189.52777
   343  C   4.0    0.07    3.99    3.61   275.62699   113.76595   191.16096
   344  C   4.0    0.30    3.01    3.02   276.04676   114.52504   193.92445
   345  O   6.0   -0.46    1.00    1.80   274.57926   113.88179   195.60387
   346  C   4.0   -0.21    3.98    3.59   277.44313   111.67560   190.37738
   347  H   1.0    0.30    1.00    1.43   277.09339   115.68835   187.97125
   348  H   1.0    0.12    0.99    1.43   273.65872   113.11879   191.00791
   349  H   1.0    0.10    0.99    1.43   277.10187   109.98559   191.48735
   350  H   1.0    0.12    0.99    1.43   277.15174   111.24728   188.38892
   351  H   1.0    0.14    0.99    1.43   279.37732   112.30819   190.65532
   352  N   5.0   -0.47    3.01    1.93   278.13434   115.85788   194.34084
   353  C   4.0    0.08    3.99    3.61   278.85143   116.73401   196.83839
   354  C   4.0    0.30    3.02    3.02   276.70010   118.24831   198.03347
   355  O   6.0   -0.41    1.00    1.80   275.95616   117.85773   200.19455
   356  C   4.0   -0.21    3.99    3.60   281.20296   118.37495   196.59542
   357  H   1.0    0.30    1.00    1.43   279.36677   116.21268   192.90850
   358  H   1.0    0.14    0.99    1.43   279.21004   115.10711   198.07723
   359  H   1.0    0.10    0.99    1.43   281.69100   119.18917   198.41439
   360  H   1.0    0.11    0.99    1.43   282.75988   117.21753   195.92168
   361  H   1.0    0.13    0.99    1.43   280.83557   119.88920   195.25612
   362  N   5.0   -0.48    3.01    1.93   275.78132   120.11558   196.60687
   363  C   4.0    0.08    4.00    3.62   273.75074   121.66694   197.58236
   364  C   4.0    0.29    3.01    3.02   271.39843   120.07420   198.09983
   365  O   6.0   -0.37    1.00    1.80   270.19429   120.33431   200.06773
   366  C   4.0   -0.14    3.99    3.59   273.17815   123.89352   195.83416
   367  C   4.0   -0.11    3.98    3.58   274.74463   126.23270   196.53734
   368  C   4.0   -0.23    3.98    3.59   274.71866   128.15935   194.38993
   369  C   4.0   -0.22    3.98    3.59   273.71787   127.43917   198.94826
   370  H   1.0    0.30    1.00    1.43   276.38137   120.37893   194.80616
   371  H   1.0    0.13    0.99    1.43   274.33646   122.36086   199.44711
   372  H   1.0    0.13    0.99    1.43   273.57347   123.30116   193.89810
   373  H   1.0    0.11    0.99    1.43   271.16857   124.34671   195.97472
   374  H   1.0    0.11    0.99    1.43   276.69587   125.63195   196.85044
   375  H   1.0    0.10    0.99    1.43   275.86818   129.78569   194.89859
   376  H   1.0    0.11    0.99    1.43   275.48893   127.31023   192.68439
   377  H   1.0    0.10    0.99    1.43   272.78788   128.79531   194.08026
   378  H   1.0    0.10    0.99    1.43   274.60986   129.26183   199.26382
   379  H   1.0    0.11    0.99    1.43   271.69029   127.73551   198.77877
   380  H   1.0    0.11    0.99    1.43   274.03277   126.24133   200.58707
   381  N   5.0   -0.47    3.01    1.93   270.78320   118.38045   196.34182
   382  C   4.0    0.08    4.00    3.61   268.64158   116.71479   196.72251
   383  C   4.0    0.31    3.01    3.02   268.79597   115.54909   199.37094
   384  O   6.0   -0.35    1.00    1.80   266.95172   115.48608   200.77903
   385  C   4.0   -0.20    3.98    3.59   268.59848   114.65884   194.71145
   386  H   1.0    0.31    1.00    1.43   271.72967   118.27691   194.67560
   387  H   1.0    0.14    0.99    1.43   266.87830   117.81535   196.66704
   388  H   1.0    0.11    0.99    1.43   267.03388   113.37718   195.06235
   389  H   1.0    0.12    0.99    1.43   268.36656   115.51347   192.85813
   390  H   1.0    0.14    0.99    1.43   270.36421   113.61122   194.76432
   391  N   5.0   -0.47    3.01    1.93   271.03938   114.55822   199.96056
   392  C   4.0    0.07    3.99    3.60   271.52482   113.42121   202.41082
   393  C   4.0    0.11    3.00    3.02   270.78796   115.30912   204.48765
   394  O   6.0   -0.36    1.00    1.80   269.17657   114.84248   206.08842
   395  C   4.0   -0.13    3.99    3.60   274.30516   112.69629   202.69592
   396  C   4.0   -0.11    3.98    3.59   275.18723   110.66975   200.83642
   397  C   4.0    0.27    3.00    3.02   278.05879   110.47647   200.87508
   398  O   6.0   -0.39    1.00    1.80   279.37582   111.49880   202.46723
   399  N   5.0   -0.65    3.00    1.93   279.06175   109.14219   198.96392
   400  H   1.0    0.30    1.00    1.43   272.48051   114.64348   198.69939
   401  H   1.0    0.14    0.99    1.43   270.29707   111.76242   202.64106
   402  H   1.0    0.17    0.99    1.43   275.46404   114.37460   202.40467
   403  H   1.0    0.13    0.99    1.43   274.61543   112.04335   204.62625
   404  H   1.0    0.11    0.99    1.43   274.37627   108.83396   201.30961
   405  H   1.0    0.14    0.99    1.43   274.61067   111.16430   198.92064
   406  H   1.0    0.26    1.00    1.43   277.97468   108.24649   197.69200
   407  H   1.0    0.28    1.00    1.43   280.95760   108.96293   198.86643
   408  H   1.0    0.28    1.00    1.43   284.42115   133.76719   199.83268
   409  H   1.0    0.16    1.00    1.43   288.38214   139.22485   182.70676
   410  H   1.0    0.30    1.00    1.43   291.97542   134.92072   181.71665
   411  H   1.0    0.16    1.00    1.43   289.70211   138.54936   173.86854
   412  H   1.0    0.29    1.00    1.43   290.81009   114.92666   196.57259
   413  H   1.0    0.14    1.00    1.43   296.72078   117.56439   198.22131
   414  H   1.0    0.29    1.00    1.43   299.71658   117.51757   190.90506
   415  H   1.0    0.13    1.00    1.43   302.24850   122.23696   186.41256
   416  H   1.0    0.29    1.00    1.43   303.37626   125.57914   181.80893
   417  H   1.0    0.15    1.00    1.43   308.59562   127.80190   178.24055
   418  H   1.0    0.30    1.00    1.43   303.62168   116.46891   179.53233
   419  H   1.0    0.16    1.00    1.43   271.63250   116.99749   204.57270

           ------------------------------------------------- 
          |        Self-Consistent Charge Iterations        |
           ------------------------------------------------- 

          ...................................................
          :                      SETUP                      :
          :.................................................:
          :  # basis functions                1004          :
          :  # atomic orbitals                1004          :
          :  # shells                          614          :
          :  # electrons                      1112          :
          :  max. iterations                   250          :
          :  Hamiltonian                  GFN2-xTB          :
          :  restarted?                      false          :
          :  GBSA solvation                   true          :
          :  PC potential                    false          :
          :  electronic temp.          500.0000000     K    :
          :  accuracy                    0.1000000          :
          :  -> integral cutoff          0.3500000E+02      :
          :  -> integral neglect         0.1000000E-08      :
          :  -> SCF convergence          0.1000000E-06 Eh   :
          :  -> wf. convergence          0.1000000E-04 e    :
          :  Broyden damping             0.4000000          :
          ...................................................

 iter      E             dE          RMSdq      gap      omega  full diag
   1   -635.6557318 -0.635656E+03  0.410E+00    1.27       0.0  T
   2   -637.4121753 -0.175644E+01  0.210E+00    1.53       1.0  T
   3   -637.4780892 -0.659139E-01  0.113E+00    2.00       1.0  T
   4   -637.4951055 -0.170163E-01  0.254E-01    1.72       1.0  T
   5   -637.5084496 -0.133441E-01  0.108E-01    1.85       1.0  T
   6   -637.5090759 -0.626336E-03  0.473E-02    1.84       1.0  T
   7   -637.5091367 -0.608313E-04  0.170E-02    1.86       1.0  T
   8   -637.5091597 -0.229163E-04  0.658E-03    1.85       1.0  T
   9   -637.5091625 -0.287229E-05  0.284E-03    1.86       1.7  T
  10   -637.5091629 -0.342914E-06  0.121E-03    1.85       4.0  T
  11   -637.5091630 -0.126761E-06  0.445E-04    1.86      11.0  T
  12   -637.5091630 -0.159943E-07  0.209E-04    1.86      23.3  T
  13   -637.5091630 -0.272041E-08  0.951E-05    1.86      51.4  T
  14   -637.5091630 -0.699515E-09  0.378E-05    1.86     129.1  T

   *** convergence criteria satisfied after 14 iterations ***

         #    Occupation            Energy/Eh            Energy/eV
      -------------------------------------------------------------
         1        2.0000           -0.7364249             -20.0391
       ...           ...                  ...                  ...
       550        2.0000           -0.3712432             -10.1020
       551        2.0000           -0.3692757             -10.0485
       552        2.0000           -0.3662855              -9.9671
       553        2.0000           -0.3651057              -9.9350
       554        2.0000           -0.3567472              -9.7076
       555        2.0000           -0.3552441              -9.6667
       556        2.0000           -0.3500395              -9.5251 (HOMO)
       557                         -0.2818425              -7.6693 (LUMO)
       558                         -0.2815913              -7.6625
       559                         -0.2815736              -7.6620
       560                         -0.2814481              -7.6586
       561                         -0.2749006              -7.4804
       ...                                ...                  ...
      1004                          0.6469045              17.6032
      -------------------------------------------------------------
                  HL-Gap            0.0681969 Eh            1.8557 eV
             Fermi-level           -0.3168909 Eh           -8.6230 eV

 SCC (total)                   0 d,  0 h,  0 min,  5.403 sec
 SCC setup                      ...        0 min,  0.101 sec (  1.872%)
 Dispersion                     ...        0 min,  0.076 sec (  1.414%)
 integral evaluation            ...        0 min,  0.270 sec (  5.004%)
 zeroth order Hamiltonian       ...        0 min,  0.006 sec (  0.103%)
 iterations                     ...        0 min,  3.918 sec ( 72.511%)
 molecular gradient             ...        0 min,  0.974 sec ( 18.030%)
 printout                       ...        0 min,  0.058 sec (  1.066%)

         :::::::::::::::::::::::::::::::::::::::::::::::::::::
         ::                     SUMMARY                     ::
         :::::::::::::::::::::::::::::::::::::::::::::::::::::
         :: total energy             -629.877023293066 Eh   ::
         :: total w/o Gsasa/hb       -629.803156695541 Eh   ::
         :: gradient norm               0.546479247536 Eh/α ::
         :: HOMO-LUMO gap               1.855732599622 eV   ::
         ::.................................................::
         :: SCC energy               -637.526743876943 Eh   ::
         :: -> isotropic ES             1.953690771600 Eh   ::
         :: -> anisotropic ES          -0.075259647975 Eh   ::
         :: -> anisotropic XC           0.206022287322 Eh   ::
         :: -> dispersion              -0.534228702801 Eh   ::
         :: -> Gsolv                   -0.438630689215 Eh   ::
         ::    -> Gborn                -0.364764091691 Eh   ::
         ::    -> Gsasa                -0.019438307581 Eh   ::
         ::    -> Ghb                  -0.056285733070 Eh   ::
         ::    -> Gshift                0.001857443127 Eh   ::
         :: repulsion energy            7.600156912443 Eh   ::
         :: add. restraining            0.000000000000 Eh   ::
         :::::::::::::::::::::::::::::::::::::::::::::::::::::

           -------------------------------------------------
          |                Property Printout                |
           -------------------------------------------------

    * Orbital Energies and Occupations

         #    Occupation            Energy/Eh            Energy/eV
      -------------------------------------------------------------
         1        2.0000           -0.7364249             -20.0391
       ...           ...                  ...                  ...
       544        2.0000           -0.3901650             -10.6169
       545        2.0000           -0.3880429             -10.5592
       546        2.0000           -0.3855854             -10.4923
       547        2.0000           -0.3764454             -10.2436
       548        2.0000           -0.3753542             -10.2139
       549        2.0000           -0.3712884             -10.1033
       550        2.0000           -0.3712432             -10.1020
       551        2.0000           -0.3692757             -10.0485
       552        2.0000           -0.3662855              -9.9671
       553        2.0000           -0.3651057              -9.9350
       554        2.0000           -0.3567472              -9.7076
       555        2.0000           -0.3552441              -9.6667
       556        2.0000           -0.3500395              -9.5251 (HOMO)
       557                         -0.2818425              -7.6693 (LUMO)
       558                         -0.2815913              -7.6625
       559                         -0.2815736              -7.6620
       560                         -0.2814481              -7.6586
       561                         -0.2749006              -7.4804
       562                         -0.2729209              -7.4266
       563                         -0.2499205              -6.8007
       564                         -0.2432572              -6.6194
       565                         -0.2405477              -6.5456
       566                         -0.2383281              -6.4852
       567                         -0.2351754              -6.3994
       ...                                ...                  ...
      1004                          0.6469045              17.6032
      -------------------------------------------------------------
                  HL-Gap            0.0681969 Eh            1.8557 eV
             Fermi-level           -0.3168909 Eh           -8.6230 eV

   #   Z        covCN         q      C6AA      α(0)
   1   7 N      2.635    -0.393    30.172     8.158
   2   6 C      3.785     0.021    20.234     6.407
   3   6 C      2.756     0.255    22.713     7.804
   4   8 O      0.859    -0.488    23.517     6.502
   5   6 C      3.810    -0.074    21.912     6.663
   6   6 C      3.850    -0.011    20.740     6.478
   7   6 C      3.757    -0.112    22.686     6.791
   8   6 C      3.757    -0.116    22.771     6.804
   9   1 H      0.860     0.162     1.325     1.803
  10   1 H      0.924     0.055     2.258     2.350
  11   1 H      0.924     0.044     2.393     2.419
  12   1 H      0.924     0.052     2.297     2.370
  13   1 H      0.924     0.035     2.518     2.481
  14   1 H      0.925     0.033     2.544     2.494
  15   1 H      0.925     0.036     2.496     2.471
  16   1 H      0.925     0.035     2.522     2.483
  17   1 H      0.925     0.037     2.494     2.470
  18   1 H      0.925     0.046     2.369     2.407
  19   1 H      0.925     0.042     2.429     2.437
  20   7 N      2.690    -0.168    24.645     7.373
  21   6 C      3.799     0.007    20.466     6.441
  22   6 C      2.758     0.272    22.405     7.751
  23   8 O      0.858    -0.482    23.396     6.485
  24   6 C      3.809    -0.071    21.850     6.654
  25   6 C      3.806    -0.106    22.525     6.756
  26   6 C      2.746     0.291    22.067     7.692
  27   8 O      0.859    -0.509    23.981     6.566
  28   7 N      2.639    -0.291    27.500     7.788
  29   1 H      0.860     0.220     1.010     1.574
  30   1 H      0.924     0.093     1.847     2.125
  31   1 H      0.924     0.069     2.096     2.264
  32   1 H      0.924     0.067     2.118     2.276
  33   1 H      0.925     0.075     2.028     2.227
  34   1 H      0.924     0.082     1.959     2.189
  35   1 H      0.860     0.234     0.947     1.525
  36   1 H      0.860     0.225     0.989     1.558
  37   7 N      2.693    -0.182    24.939     7.417
  38   6 C      3.799     0.011    20.391     6.430
  39   6 C      2.762     0.279    22.285     7.731
  40   8 O      0.859    -0.490    23.559     6.508
  41   6 C      3.809    -0.085    22.123     6.695
  42   6 C      3.804    -0.080    22.023     6.681
  43   6 C      3.739    -0.032    21.224     6.573
  44   7 N      2.702    -0.146    24.158     7.300
  45   6 C      2.735     0.238    23.018     7.855
  46   7 N      2.647    -0.268    26.943     7.709
  47   7 N      2.655    -0.275    27.116     7.734
  48   1 H      0.860     0.217     1.021     1.583
  49   1 H      0.923     0.090     1.874     2.141
  50   1 H      0.924     0.080     1.981     2.201
  51   1 H      0.924     0.067     2.124     2.279
  52   1 H      0.924     0.077     2.012     2.218
  53   1 H      0.924     0.058     2.222     2.331
  54   1 H      0.925     0.097     1.813     2.106
  55   1 H      0.924     0.081     1.971     2.196
  56   1 H      0.860     0.232     0.958     1.533
  57   1 H      0.858     0.254     0.869     1.460
  58   1 H      0.860     0.221     1.007     1.572
  59   1 H      0.860     0.248     0.890     1.478
  60   1 H      0.860     0.242     0.914     1.498
  61   7 N      2.691    -0.177    24.824     7.400
  62   6 C      3.804     0.021    20.225     6.402
  63   6 C      2.761     0.282    22.221     7.720
  64   8 O      0.859    -0.498    23.730     6.531
  65   6 C      3.852    -0.027    21.021     6.521
  66   6 C      3.758    -0.118    22.808     6.809
  67   6 C      3.757    -0.121    22.865     6.818
  68   1 H      0.860     0.202     1.097     1.641
  69   1 H      0.923     0.067     2.122     2.278
  70   1 H      0.924     0.067     2.121     2.277
  71   1 H      0.925     0.062     2.181     2.309
  72   1 H      0.925     0.043     2.404     2.425
  73   1 H      0.925     0.043     2.410     2.428
  74   1 H      0.925     0.058     2.225     2.333
  75   1 H      0.925     0.048     2.339     2.392
  76   1 H      0.925     0.041     2.429     2.437
  77   7 N      2.688    -0.183    24.973     7.422
  78   6 C      3.801     0.025    20.155     6.392
  79   6 C      2.758     0.283    22.213     7.718
  80   8 O      0.858    -0.485    23.455     6.493
  81   6 C      3.810    -0.091    22.223     6.710
  82   6 C      3.801    -0.088    22.170     6.704
  83   6 C      3.741    -0.030    21.178     6.566
  84   7 N      2.697    -0.146    24.169     7.302
  85   6 C      2.737     0.233    23.116     7.872
  86   7 N      2.653    -0.256    26.643     7.666
  87   7 N      2.656    -0.259    26.732     7.679
  88   1 H      0.860     0.234     0.950     1.526
  89   1 H      0.923     0.066     2.132     2.283
  90   1 H      0.925     0.085     1.932     2.173
  91   1 H      0.924     0.062     2.177     2.307
  92   1 H      0.924     0.062     2.181     2.310
  93   1 H      0.924     0.077     2.011     2.218
  94   1 H      0.925     0.092     1.863     2.135
  95   1 H      0.924     0.084     1.941     2.179
  96   1 H      0.860     0.223     0.994     1.562
  97   1 H      0.860     0.240     0.925     1.506
  98   1 H      0.859     0.254     0.868     1.460
  99   1 H      0.860     0.233     0.952     1.528
 100   1 H      0.860     0.240     0.923     1.505
 101   7 N      2.690    -0.166    24.584     7.364
 102   6 C      3.792     0.035    19.990     6.367
 103   6 C      2.770     0.208    23.593     7.955
 104   8 O      0.856    -0.375    21.182     6.171
 105   6 C      3.816    -0.050    21.455     6.592
 106   6 C      3.799    -0.094    22.287     6.722
 107   6 C      2.691     0.368    20.756     7.456
 108   8 O      0.856    -0.621    26.642     6.920
 109   8 O      0.857    -0.602    26.160     6.857
 110   1 H      0.860     0.215     1.034     1.593
 111   1 H      0.923     0.075     2.030     2.228
 112   1 H      0.924     0.067     2.118     2.276
 113   1 H      0.924     0.037     2.486     2.465
 114   1 H      0.925     0.027     2.635     2.538
 115   1 H      0.925     0.043     2.408     2.427
 116   7 N      2.637    -0.412    30.712     8.231
 117   6 C      3.785     0.042    19.889     6.352
 118   6 C      2.761     0.271    22.418     7.754
 119   8 O      0.859    -0.522    24.280     6.607
 120   6 C      3.757    -0.123    22.909     6.824
 121   1 H      0.860     0.186     1.180     1.701
 122   1 H      0.923     0.024     2.671     2.556
 123   1 H      0.925     0.045     2.387     2.416
 124   1 H      0.925     0.059     2.211     2.325
 125   1 H      0.925     0.066     2.128     2.281
 126   7 N      2.690    -0.167    24.610     7.368
 127   6 C      3.801     0.029    20.086     6.381
 128   6 C      2.765     0.220    23.369     7.917
 129   8 O      0.856    -0.385    21.378     6.199
 130   6 C      3.852    -0.017    20.849     6.494
 131   6 C      3.756    -0.117    22.787     6.806
 132   6 C      3.756    -0.127    22.988     6.836
 133   1 H      0.860     0.230     0.965     1.539
 134   1 H      0.923     0.073     2.057     2.243
 135   1 H      0.924     0.054     2.275     2.359
 136   1 H      0.925     0.060     2.199     2.319
 137   1 H      0.925     0.029     2.600     2.522
 138   1 H      0.925     0.051     2.309     2.376
 139   1 H      0.925     0.058     2.222     2.331
 140   1 H      0.925     0.052     2.293     2.368
 141   1 H      0.925     0.063     2.164     2.300
 142   7 N      2.634    -0.393    30.181     8.159
 143   6 C      3.783     0.035    20.004     6.371
 144   6 C      2.766     0.195    23.829     7.995
 145   8 O      0.856    -0.385    21.375     6.199
 146   6 C      3.812    -0.070    21.824     6.650
 147   6 C      3.849    -0.012    20.757     6.480
 148   6 C      3.759    -0.117    22.795     6.807
 149   6 C      3.755    -0.119    22.832     6.813
 150   1 H      0.860     0.155     1.368     1.832
 151   1 H      0.924     0.085     1.929     2.172
 152   1 H      0.924     0.034     2.530     2.488
 153   1 H      0.924     0.054     2.268     2.355
 154   1 H      0.924     0.029     2.601     2.522
 155   1 H      0.925     0.039     2.463     2.454
 156   1 H      0.925     0.040     2.452     2.449
 157   1 H      0.925     0.047     2.359     2.402
 158   1 H      0.925     0.039     2.461     2.453
 159   1 H      0.925     0.048     2.343     2.394
 160   1 H      0.925     0.044     2.390     2.418
 161   7 N      2.638    -0.393    30.179     8.159
 162   6 C      3.782     0.035    20.009     6.372
 163   6 C      2.765     0.205    23.637     7.962
 164   8 O      0.856    -0.380    21.292     6.187
 165   6 C      3.812    -0.068    21.786     6.644
 166   6 C      3.849    -0.011    20.732     6.476
 167   6 C      3.756    -0.123    22.918     6.826
 168   6 C      3.758    -0.114    22.733     6.797
 169   1 H      0.860     0.166     1.298     1.785
 170   1 H      0.924     0.063     2.163     2.300
 171   1 H      0.924     0.053     2.284     2.364
 172   1 H      0.924     0.049     2.334     2.389
 173   1 H      0.924     0.011     2.871     2.650
 174   1 H      0.925     0.043     2.413     2.429
 175   1 H      0.925     0.040     2.449     2.447
 176   1 H      0.925     0.053     2.282     2.363
 177   1 H      0.925     0.039     2.464     2.455
 178   1 H      0.925     0.048     2.347     2.396
 179   1 H      0.925     0.036     2.505     2.475
 180   7 N      2.633    -0.379    29.798     8.107
 181   6 C      3.784     0.030    20.081     6.383
 182   6 C      2.763     0.200    23.749     7.981
 183   8 O      0.856    -0.385    21.390     6.201
 184   6 C      3.851    -0.019    20.880     6.499
 185   6 C      3.756    -0.114    22.732     6.798
 186   6 C      3.755    -0.106    22.589     6.777
 187   1 H      0.860     0.158     1.345     1.817
 188   1 H      0.923     0.079     1.994     2.208
 189   1 H      0.924     0.037     2.489     2.467
 190   1 H      0.925     0.042     2.424     2.435
 191   1 H      0.925     0.042     2.420     2.433
 192   1 H      0.925     0.047     2.362     2.404
 193   1 H      0.925     0.041     2.432     2.439
 194   1 H      0.925     0.041     2.436     2.441
 195   1 H      0.925     0.030     2.584     2.514
 196   7 N      2.635    -0.391    30.136     8.153
 197   6 C      3.785     0.017    20.307     6.419
 198   6 C      2.760     0.269    22.462     7.761
 199   8 O      0.859    -0.477    23.284     6.469
 200   6 C      3.730     0.111    18.849     6.197
 201   8 O      1.655    -0.476    22.373     6.385
 202   6 C      3.752    -0.153    23.527     6.917
 203   1 H      0.860     0.165     1.304     1.789
 204   1 H      0.924     0.032     2.556     2.500
 205   1 H      0.924     0.047     2.361     2.403
 206   1 H      0.805     0.327     0.646     1.263
 207   1 H      0.925     0.076     2.024     2.225
 208   1 H      0.925     0.060     2.201     2.320
 209   1 H      0.925     0.059     2.205     2.322
 210   7 N      2.691    -0.177    24.821     7.399
 211   6 C      3.799     0.021    20.229     6.404
 212   6 C      2.757     0.271    22.415     7.753
 213   8 O      0.859    -0.451    22.732     6.392
 214   6 C      3.807    -0.062    21.677     6.628
 215   6 C      3.797    -0.095    22.323     6.727
 216   6 C      2.683     0.370    20.721     7.449
 217   8 O      0.856    -0.636    27.010     6.968
 218   8 O      0.856    -0.659    27.616     7.046
 219   1 H      0.860     0.207     1.073     1.623
 220   1 H      0.924     0.062     2.173     2.305
 221   1 H      0.924     0.069     2.101     2.267
 222   1 H      0.924     0.051     2.306     2.375
 223   1 H      0.925     0.014     2.819     2.626
 224   1 H      0.924     0.025     2.662     2.552
 225   7 N      2.689    -0.164    24.547     7.358
 226   6 C      3.796     0.027    20.132     6.389
 227   6 C      2.764     0.265    22.527     7.773
 228   8 O      0.859    -0.466    23.035     6.435
 229   6 C      3.811    -0.106    22.523     6.755
 230   6 C      2.746     0.288    22.126     7.702
 231   8 O      0.858    -0.511    24.031     6.572
 232   7 N      2.639    -0.284    27.323     7.763
 233   1 H      0.860     0.203     1.090     1.635
 234   1 H      0.924     0.074     2.042     2.235
 235   1 H      0.925     0.089     1.889     2.149
 236   1 H      0.925     0.098     1.802     2.100
 237   1 H      0.860     0.229     0.968     1.541
 238   1 H      0.860     0.228     0.973     1.545
 239   7 N      2.758    -0.091    23.011     7.125
 240   6 C      3.828     0.012    20.359     6.420
 241   6 C      2.755     0.278    22.302     7.733
 242   8 O      0.859    -0.469    23.111     6.445
 243   6 C      3.829    -0.077    21.942     6.665
 244   6 C      3.827    -0.072    21.862     6.653
 245   6 C      3.767    -0.018    20.930     6.520
 246   1 H      0.924     0.090     1.882     2.145
 247   1 H      0.925     0.068     2.109     2.271
 248   1 H      0.925     0.080     1.979     2.200
 249   1 H      0.924     0.052     2.301     2.372
 250   1 H      0.925     0.073     2.055     2.242
 251   1 H      0.925     0.062     2.181     2.310
 252   1 H      0.924     0.081     1.971     2.196
 253   7 N      2.690    -0.180    24.899     7.411
 254   6 C      3.797     0.021    20.224     6.403
 255   6 C      2.759     0.283    22.209     7.717
 256   8 O      0.859    -0.492    23.617     6.516
 257   6 C      3.809    -0.078    21.977     6.673
 258   6 C      3.849    -0.013    20.765     6.482
 259   6 C      3.758    -0.119    22.841     6.814
 260   6 C      3.756    -0.121    22.865     6.818
 261   1 H      0.860     0.208     1.068     1.619
 262   1 H      0.924     0.074     2.039     2.233
 263   1 H      0.924     0.055     2.259     2.350
 264   1 H      0.924     0.057     2.234     2.338
 265   1 H      0.924     0.034     2.535     2.490
 266   1 H      0.925     0.045     2.386     2.416
 267   1 H      0.925     0.042     2.425     2.435
 268   1 H      0.925     0.047     2.358     2.402
 269   1 H      0.925     0.050     2.324     2.384
 270   1 H      0.925     0.048     2.341     2.392
 271   1 H      0.925     0.039     2.462     2.454
 272   7 N      2.690    -0.185    25.006     7.427
 273   6 C      3.799     0.026    20.147     6.391
 274   6 C      2.758     0.277    22.322     7.737
 275   8 O      0.859    -0.504    23.870     6.550
 276   6 C      3.807    -0.076    21.951     6.670
 277   6 C      3.807    -0.109    22.567     6.763
 278   6 C      2.743     0.283    22.212     7.717
 279   8 O      0.859    -0.504    23.863     6.549
 280   7 N      2.639    -0.281    27.265     7.755
 281   1 H      0.860     0.222     0.999     1.566
 282   1 H      0.923     0.061     2.182     2.310
 283   1 H      0.924     0.087     1.912     2.162
 284   1 H      0.924     0.072     2.068     2.249
 285   1 H      0.924     0.098     1.800     2.098
 286   1 H      0.925     0.066     2.126     2.280
 287   1 H      0.860     0.228     0.972     1.544
 288   1 H      0.860     0.237     0.935     1.515
 289   7 N      2.693    -0.171    24.703     7.382
 290   6 C      3.799     0.013    20.364     6.425
 291   6 C      2.756     0.269    22.460     7.761
 292   8 O      0.859    -0.497    23.713     6.529
 293   6 C      3.807    -0.085    22.124     6.696
 294   6 C      3.806    -0.082    22.052     6.685
 295   6 C      3.803    -0.095    22.303     6.723
 296   6 C      3.733    -0.047    21.499     6.618
 297   7 N      3.482    -0.151    24.259     7.315
 298   1 H      0.860     0.226     0.981     1.551
 299   1 H      0.924     0.082     1.957     2.187
 300   1 H      0.924     0.077     2.013     2.219
 301   1 H      0.925     0.074     2.045     2.236
 302   1 H      0.925     0.067     2.119     2.276
 303   1 H      0.925     0.061     2.192     2.315
 304   1 H      0.924     0.079     1.991     2.207
 305   1 H      0.925     0.083     1.947     2.182
 306   1 H      0.924     0.117     1.634     1.999
 307   1 H      0.925     0.106     1.730     2.057
 308   1 H      0.859     0.279     0.780     1.383
 309   1 H      0.857     0.291     0.742     1.349
 310   1 H      0.859     0.283     0.766     1.371
 311   7 N      2.690    -0.181    24.925     7.415
 312   6 C      3.802     0.019    20.259     6.408
 313   6 C      2.758     0.277    22.318     7.736
 314   8 O      0.859    -0.495    23.666     6.522
 315   6 C      3.853    -0.028    21.031     6.523
 316   6 C      3.804    -0.073    21.884     6.660
 317   6 C      3.756    -0.117    22.800     6.808
 318   6 C      3.751    -0.103    22.535     6.770
 319   1 H      0.860     0.231     0.959     1.534
 320   1 H      0.923     0.076     2.023     2.224
 321   1 H      0.924     0.046     2.365     2.405
 322   1 H      0.924     0.057     2.231     2.336
 323   1 H      0.925     0.057     2.236     2.339
 324   1 H      0.925     0.063     2.166     2.302
 325   1 H      0.925     0.033     2.542     2.493
 326   1 H      0.925     0.055     2.259     2.351
 327   1 H      0.925     0.046     2.365     2.405
 328   1 H      0.925     0.028     2.621     2.532
 329   1 H      0.925     0.034     2.534     2.489
 330   7 N      2.690    -0.195    25.224     7.459
 331   6 C      3.801     0.040    19.903     6.352
 332   6 C      2.760     0.276    22.339     7.740
 333   8 O      0.858    -0.503    23.857     6.549
 334   6 C      3.804    -0.102    22.449     6.745
 335   6 C      2.683     0.371    20.710     7.447
 336   8 O      0.856    -0.613    26.435     6.893
 337   8 O      0.856    -0.605    26.245     6.868
 338   1 H      0.860     0.228     0.976     1.547
 339   1 H      0.923     0.063     2.168     2.303
 340   1 H      0.925     0.046     2.368     2.407
 341   1 H      0.924     0.027     2.629     2.536
 342   7 N      2.693    -0.187    25.053     7.434
 343   6 C      3.796     0.027    20.130     6.389
 344   6 C      2.756     0.275    22.343     7.740
 345   8 O      0.858    -0.507    23.941     6.560
 346   6 C      3.757    -0.138    23.211     6.869
 347   1 H      0.860     0.226     0.985     1.554
 348   1 H      0.923     0.060     2.194     2.316
 349   1 H      0.925     0.072     2.059     2.244
 350   1 H      0.925     0.075     2.028     2.227
 351   1 H      0.925     0.079     1.992     2.207
 352   7 N      2.693    -0.181    24.918     7.414
 353   6 C      3.795     0.028    20.114     6.386
 354   6 C      2.763     0.278    22.289     7.732
 355   8 O      0.859    -0.506    23.923     6.558
 356   6 C      3.759    -0.132    23.088     6.850
 357   1 H      0.860     0.237     0.934     1.514
 358   1 H      0.923     0.061     2.187     2.313
 359   1 H      0.925     0.067     2.122     2.278
 360   1 H      0.925     0.079     1.988     2.205
 361   1 H      0.925     0.075     2.029     2.227
 362   7 N      2.690    -0.182    24.950     7.419
 363   6 C      3.803     0.026    20.141     6.389
 364   6 C      2.760     0.280    22.266     7.727
 365   8 O      0.859    -0.520    24.221     6.598
 366   6 C      3.808    -0.079    21.993     6.676
 367   6 C      3.850    -0.017    20.835     6.492
 368   6 C      3.756    -0.131    23.065     6.848
 369   6 C      3.757    -0.116    22.771     6.804
 370   1 H      0.860     0.225     0.987     1.556
 371   1 H      0.924     0.074     2.045     2.236
 372   1 H      0.924     0.061     2.191     2.315
 373   1 H      0.924     0.050     2.317     2.380
 374   1 H      0.924     0.048     2.347     2.396
 375   1 H      0.925     0.061     2.183     2.311
 376   1 H      0.925     0.048     2.341     2.393
 377   1 H      0.925     0.051     2.302     2.373
 378   1 H      0.925     0.055     2.262     2.352
 379   1 H      0.925     0.042     2.427     2.436
 380   1 H      0.925     0.027     2.629     2.536
 381   7 N      2.691    -0.196    25.247     7.463
 382   6 C      3.799     0.032    20.043     6.374
 383   6 C      2.757     0.286    22.150     7.707
 384   8 O      0.858    -0.512    24.058     6.576
 385   6 C      3.757    -0.132    23.099     6.853
 386   1 H      0.860     0.235     0.945     1.523
 387   1 H      0.923     0.057     2.237     2.339
 388   1 H      0.925     0.063     2.160     2.299
 389   1 H      0.925     0.068     2.102     2.267
 390   1 H      0.925     0.074     2.040     2.233
 391   7 N      2.690    -0.175    24.779     7.393
 392   6 C      3.791     0.034    20.016     6.371
 393   6 C      2.766     0.216    23.440     7.929
 394   8 O      0.856    -0.368    21.046     6.151
 395   6 C      3.808    -0.067    21.779     6.643
 396   6 C      3.805    -0.106    22.511     6.754
 397   6 C      2.745     0.292    22.051     7.689
 398   8 O      0.859    -0.498    23.732     6.531
 399   7 N      2.639    -0.294    27.574     7.799
 400   1 H      0.860     0.225     0.985     1.555
 401   1 H      0.923     0.075     2.027     2.226
 402   1 H      0.924     0.083     1.952     2.185
 403   1 H      0.924     0.060     2.194     2.316
 404   1 H      0.924     0.076     2.019     2.222
 405   1 H      0.924     0.082     1.955     2.186
 406   1 H      0.860     0.222     0.999     1.566
 407   1 H      0.860     0.238     0.931     1.511
 408   1 H      0.862     0.179     1.219     1.730
 409   1 H      0.930     0.074     2.036     2.231
 410   1 H      0.862     0.169     1.277     1.770
 411   1 H      0.930     0.057     2.234     2.337
 412   1 H      0.862     0.187     1.172     1.696
 413   1 H      0.930     0.065     2.142     2.289
 414   1 H      0.862     0.184     1.191     1.709
 415   1 H      0.930     0.060     2.195     2.317
 416   1 H      0.862     0.182     1.202     1.717
 417   1 H      0.930     0.074     2.037     2.232
 418   1 H      0.862     0.185     1.183     1.704
 419   1 H      0.930     0.067     2.115     2.274

 Mol. C6AA /au·bohr⁶  :    1535716.278783
 Mol. C8AA /au·bohr⁸  :   33640446.861166
 Mol. α(0) /au        :       1843.329570


Wiberg/Mayer (AO) data.
largest (>0.10) Wiberg bond orders for each atom
          total WBO             WBO to atom ...
     1  N   2.997        C    2 1.017    H  408 0.956    H    9 0.952
     2  C   3.984        N    1 1.017    C    5 0.974    H   10 0.950    C    3 0.941
     3  C   3.944        O    4 1.608    N   20 1.306    C    2 0.941
     4  O   1.961        C    3 1.608    N   20 0.191
     5  C   3.992        C    6 0.993    C    2 0.974    H   12 0.972    H   11 0.970
     6  C   3.995        C    8 1.011    C    7 1.007    C    5 0.993    H   13 0.965
     7  C   3.994        C    6 1.007    H   14 0.986    H   15 0.985    H   16 0.983
     8  C   3.995        C    6 1.011    H   17 0.985    H   18 0.984    H   19 0.981
     9  H   0.974        N    1 0.952
    10  H   0.997        C    2 0.950
    11  H   0.998        C    5 0.970
    12  H   0.997        C    5 0.972
    13  H   0.999        C    6 0.965
    14  H   0.998        C    7 0.986
    15  H   0.999        C    7 0.985
    16  H   0.999        C    7 0.983
    17  H   0.998        C    8 0.985
    18  H   0.998        C    8 0.984
    19  H   0.998        C    8 0.981
    20  N   3.474        C    3 1.306    C   21 0.982    H   29 0.914    O    4 0.191
    21  C   3.965        C   24 0.982    N   20 0.982    H   30 0.945    C   22 0.929
    22  C   3.946        O   23 1.632    N   37 1.302    C   21 0.929
    23  O   1.970        C   22 1.632    N   37 0.196
    24  C   3.987        C   25 0.992    C   21 0.982    H   32 0.972    H   31 0.969
    25  C   3.991        C   24 0.992    H   33 0.972    C   26 0.966    H   34 0.957
    26  C   3.941        O   27 1.642    N   28 1.308    C   25 0.966
    27  O   1.942        C   26 1.642    N   28 0.201
    28  N   3.397        C   26 1.308    H   36 0.928    H   35 0.925    O   27 0.201
    29  H   0.951        N   20 0.914
    30  H   0.991        C   21 0.945
    31  H   0.995        C   24 0.969
    32  H   0.995        C   24 0.972
    33  H   0.994        C   25 0.972
    34  H   0.993        C   25 0.957
    35  H   0.945        N   28 0.925
    36  H   0.949        N   28 0.928
    37  N   3.466        C   22 1.302    C   38 0.975    H   48 0.916    O   23 0.196
    38  C   3.960        C   41 0.981    N   37 0.975    H   49 0.944    C   39 0.935
    39  C   3.945        O   40 1.634    N   61 1.297    C   38 0.935
    40  O   1.968        C   39 1.634    N   61 0.196
    41  C   3.986        C   42 1.007    C   38 0.981    H   51 0.972    H   50 0.965
    42  C   3.991        C   41 1.007    C   43 1.002    H   53 0.974    H   52 0.971
    43  C   3.951        C   42 1.002    N   44 0.986    H   55 0.959    H   54 0.952
    44  N   3.461        C   45 1.308    C   43 0.986    H   56 0.914    N   46 0.106
    45  C   3.976        N   46 1.350    N   44 1.308    N   47 1.283
    46  N   3.397        C   45 1.350    H   58 0.929    H   57 0.823    N   44 0.106    N   47 0.102
    47  N   3.360        C   45 1.283    H   60 0.922    H   59 0.919    N   46 0.102
    48  H   0.953        N   37 0.916
    49  H   0.991        C   38 0.944
    50  H   0.993        C   41 0.965
    51  H   0.995        C   41 0.972
    52  H   0.994        C   42 0.971
    53  H   0.997        C   42 0.974
    54  H   0.991        C   43 0.952
    55  H   0.993        C   43 0.959
    56  H   0.946        N   44 0.914
    57  H   0.935        N   46 0.823
    58  H   0.951        N   46 0.929
    59  H   0.938        N   47 0.919
    60  H   0.941        N   47 0.922
    61  N   3.464        C   39 1.297    C   62 0.975    H   68 0.918    O   40 0.196
    62  C   3.959        N   61 0.975    C   65 0.967    H   69 0.950    C   63 0.937
    63  C   3.946        O   64 1.607    N   77 1.317    C   62 0.937
    64  O   1.965        C   63 1.607    N   77 0.195
    65  C   3.986        C   66 1.008    C   67 1.007    C   62 0.967    H   70 0.956
    66  C   3.992        C   65 1.008    H   73 0.985    H   71 0.982    H   72 0.980
    67  C   3.993        C   65 1.007    H   75 0.985    H   74 0.982    H   76 0.981
    68  H   0.959        N   61 0.918
    69  H   0.995        C   62 0.950
    70  H   0.995        C   65 0.956
    71  H   0.996        C   66 0.982
    72  H   0.998        C   66 0.980
    73  H   0.998        C   66 0.985
    74  H   0.996        C   67 0.982
    75  H   0.998        C   67 0.985
    76  H   0.998        C   67 0.981
    77  N   3.469        C   63 1.317    C   78 0.980    H   88 0.887    O   64 0.195
    78  C   3.964        C   81 0.980    N   77 0.980    H   89 0.951    C   79 0.933
    79  C   3.944        O   80 1.615    N  101 1.303    C   78 0.933
    80  O   1.965        C   79 1.615    N  101 0.190
    81  C   3.982        C   82 1.004    C   78 0.980    H   91 0.970    H   90 0.959
    82  C   3.989        C   81 1.004    C   83 0.992    H   92 0.973    H   93 0.968
    83  C   3.952        C   82 0.992    N   84 0.988    H   94 0.965    H   95 0.961
    84  N   3.441        C   85 1.286    C   83 0.988    H   96 0.915    N   86 0.101
    85  C   3.976        N   86 1.349    N   87 1.312    N   84 1.286
    86  N   3.413        C   85 1.349    H   97 0.916    H   98 0.866    N   87 0.108    N   84 0.101
    87  N   3.391        C   85 1.312    H   99 0.920    H  100 0.900    N   86 0.108
    88  H   0.945        N   77 0.887
    89  H   0.995        C   78 0.951
    90  H   0.993        C   81 0.959
    91  H   0.995        C   81 0.970
    92  H   0.996        C   82 0.973
    93  H   0.994        C   82 0.968
    94  H   0.992        C   83 0.965
    95  H   0.993        C   83 0.961
    96  H   0.950        N   84 0.915
    97  H   0.943        N   86 0.916
    98  H   0.935        N   86 0.866
    99  H   0.946        N   87 0.920
   100  H   0.942        N   87 0.900
   101  N   3.475        C   79 1.303    C  102 0.985    H  110 0.909    O   80 0.190
   102  C   3.971        N  101 0.985    C  103 0.978    C  105 0.956    H  111 0.948
   103  C   3.896        O  104 1.880    C  102 0.978    H  409 0.953
   104  O   2.028        C  103 1.880
   105  C   3.985        C  106 0.993    H  113 0.974    H  112 0.968    C  102 0.956
   106  C   3.989        C  105 0.993    H  114 0.979    H  115 0.973    C  107 0.918
   107  C   3.934        O  108 1.541    O  109 1.443    C  106 0.918
   108  O   1.827        C  107 1.541    O  109 0.212
   109  O   1.859        C  107 1.443    O  108 0.212
   110  H   0.954        N  101 0.909
   111  H   0.994        C  102 0.948
   112  H   0.995        C  105 0.968
   113  H   0.998        C  105 0.974
   114  H   0.999        C  106 0.979
   115  H   0.998        C  106 0.973
   116  N   2.988        C  117 1.011    H  410 0.961    H  121 0.925
   117  C   3.986        N  116 1.011    C  120 0.995    H  122 0.967    C  118 0.934
   118  C   3.937        O  119 1.604    N  126 1.322    C  117 0.934
   119  O   1.941        C  118 1.604    N  126 0.196
   120  C   3.991        C  117 0.995    H  123 0.985    H  124 0.981    H  125 0.977
   121  H   0.965        N  116 0.925
   122  H   0.999        C  117 0.967
   123  H   0.998        C  120 0.985
   124  H   0.996        C  120 0.981
   125  H   0.996        C  120 0.977
   126  N   3.480        C  118 1.322    C  127 0.977    H  133 0.894    O  119 0.196
   127  C   3.966        N  126 0.977    C  128 0.972    C  130 0.956    H  134 0.950
   128  C   3.900        O  129 1.877    C  127 0.972    H  411 0.956
   129  O   2.025        C  128 1.877
   130  C   3.986        C  131 1.008    C  132 1.007    H  135 0.962    C  127 0.956
   131  C   3.993        C  130 1.008    H  138 0.985    H  136 0.984    H  137 0.983
   132  C   3.991        C  130 1.007    H  140 0.985    H  139 0.982    H  141 0.976
   133  H   0.947        N  126 0.894
   134  H   0.995        C  127 0.950
   135  H   0.997        C  130 0.962
   136  H   0.996        C  131 0.984
   137  H   0.999        C  131 0.983
   138  H   0.997        C  131 0.985
   139  H   0.995        C  132 0.982
   140  H   0.997        C  132 0.985
   141  H   0.996        C  132 0.976
   142  N   2.998        C  143 1.027    H  150 0.958    H  412 0.946
   143  C   3.985        N  142 1.027    C  144 0.995    C  146 0.953    H  151 0.922
   144  C   3.899        O  145 1.860    C  143 0.995    H  413 0.954
   145  O   2.031        C  144 1.860
   146  C   3.991        C  147 0.994    H  152 0.975    H  153 0.971    C  143 0.953
   147  C   3.996        C  149 1.010    C  148 1.006    C  146 0.994    H  154 0.963
   148  C   3.995        C  147 1.006    H  157 0.985    H  156 0.984    H  155 0.977
   149  C   3.995        C  147 1.010    H  159 0.984    H  158 0.983    H  160 0.981
   150  H   0.976        N  142 0.958
   151  H   0.993        C  143 0.922
   152  H   0.999        C  146 0.975
   153  H   0.997        C  146 0.971
   154  H   0.999        C  147 0.963
   155  H   0.997        C  148 0.977
   156  H   0.998        C  148 0.984
   157  H   0.998        C  148 0.985
   158  H   0.998        C  149 0.983
   159  H   0.998        C  149 0.984
   160  H   0.998        C  149 0.981
   161  N   2.999        C  162 1.002    H  414 0.955    H  169 0.940
   162  C   3.981        N  161 1.002    C  165 0.970    C  163 0.967    H  170 0.959
   163  C   3.887        O  164 1.900    C  162 0.967    H  415 0.956
   164  O   2.032        C  163 1.900
   165  C   3.991        C  166 0.995    H  172 0.971    H  171 0.970    C  162 0.970
   166  C   3.996        C  167 1.009    C  168 1.008    C  165 0.995    H  173 0.968
   167  C   3.995        C  166 1.009    H  176 0.985    H  174 0.983    H  175 0.983
   168  C   3.996        C  166 1.008    H  179 0.986    H  177 0.985    H  178 0.984
   169  H   0.972        N  161 0.940
   170  H   0.996        C  162 0.959
   171  H   0.997        C  165 0.970
   172  H   0.998        C  165 0.971
   173  H   1.000        C  166 0.968
   174  H   0.998        C  167 0.983
   175  H   0.998        C  167 0.983
   176  H   0.997        C  167 0.985
   177  H   0.998        C  168 0.985
   178  H   0.998        C  168 0.984
   179  H   0.999        C  168 0.986
   180  N   3.002        C  181 1.022    H  187 0.955    H  416 0.951
   181  C   3.985        N  180 1.022    C  182 0.988    C  184 0.960    H  188 0.919
   182  C   3.893        O  183 1.885    C  181 0.988    H  417 0.953
   183  O   2.030        C  182 1.885
   184  C   3.994        C  186 1.010    C  185 1.009    H  189 0.966    C  181 0.960
   185  C   3.996        C  184 1.009    H  190 0.986    H  191 0.985    H  192 0.984
   186  C   3.996        C  184 1.010    H  195 0.987    H  193 0.985    H  194 0.982
   187  H   0.975        N  180 0.955
   188  H   0.994        C  181 0.919
   189  H   0.999        C  184 0.966
   190  H   0.998        C  185 0.986
   191  H   0.998        C  185 0.985
   192  H   0.998        C  185 0.984
   193  H   0.998        C  186 0.985
   194  H   0.998        C  186 0.982
   195  H   0.999        C  186 0.987
   196  N   2.998        C  197 1.018    H  418 0.955    H  203 0.954
   197  C   3.984        N  196 1.018    H  204 0.965    C  200 0.945    C  198 0.937
   198  C   3.942        O  199 1.653    N  210 1.275    C  197 0.937
   199  O   1.967        C  198 1.653    N  210 0.191
   200  C   3.952        C  202 0.999    O  201 0.993    H  205 0.958    C  197 0.945
   201  O   1.961        C  200 0.993    H  206 0.875
   202  C   3.990        C  200 0.999    H  209 0.982    H  207 0.982    H  208 0.977
   203  H   0.973        N  196 0.954
   204  H   0.999        C  197 0.965
   205  H   0.998        C  200 0.958
   206  H   0.893        O  201 0.875
   207  H   0.994        C  202 0.982
   208  H   0.996        C  202 0.977
   209  H   0.996        C  202 0.982
   210  N   3.449        C  198 1.275    C  211 0.984    H  219 0.922    O  199 0.191
   211  C   3.972        N  210 0.984    C  214 0.973    H  220 0.950    C  212 0.942
   212  C   3.950        O  213 1.596    N  225 1.314    C  211 0.942
   213  O   1.990        C  212 1.596    N  225 0.184
   214  C   3.987        C  215 1.009    H  222 0.973    C  211 0.973    H  221 0.964
   215  C   3.989        C  214 1.009    H  223 0.981    H  224 0.964    C  216 0.904
   216  C   3.930        O  218 1.504    O  217 1.501    C  215 0.904
   217  O   1.799        C  216 1.501    O  218 0.215
   218  O   1.792        C  216 1.504    O  217 0.215
   219  H   0.957        N  210 0.922
   220  H   0.996        C  211 0.950
   221  H   0.995        C  214 0.964
   222  H   0.997        C  214 0.973
   223  H   1.000        C  215 0.981
   224  H   0.999        C  215 0.964
   225  N   3.478        C  212 1.314    C  226 0.974    H  233 0.928    O  213 0.184
   226  C   3.961        N  225 0.974    C  229 0.968    H  234 0.946    C  227 0.933
   227  C   3.960        O  228 1.619    N  239 1.302    C  226 0.933
   228  O   1.969        C  227 1.619    N  239 0.198
   229  C   3.985        C  226 0.968    C  230 0.966    H  235 0.965    H  236 0.957
   230  C   3.943        O  231 1.640    N  232 1.311    C  229 0.966
   231  O   1.943        C  230 1.640    N  232 0.203
   232  N   3.402        C  230 1.311    H  237 0.926    H  238 0.924    O  231 0.203
   233  H   0.958        N  225 0.928
   234  H   0.994        C  226 0.946
   235  H   0.992        C  229 0.965
   236  H   0.990        C  229 0.957
   237  H   0.947        N  232 0.926
   238  H   0.948        N  232 0.924
   239  N   3.525        C  227 1.302    C  245 0.975    C  240 0.962    O  228 0.198
   240  C   3.963        C  243 0.977    N  239 0.962    H  246 0.952    C  241 0.943
   241  C   3.948        O  242 1.619    N  253 1.296    C  240 0.943
   242  O   1.982        C  241 1.619    N  253 0.191
   243  C   3.986        C  244 1.004    C  240 0.977    H  247 0.974    H  248 0.971
   244  C   3.992        C  243 1.004    C  245 1.004    H  249 0.973    H  250 0.973
   245  C   3.961        C  244 1.004    N  239 0.975    H  251 0.967    H  252 0.954
   246  H   0.992        C  240 0.952
   247  H   0.995        C  243 0.974
   248  H   0.993        C  243 0.971
   249  H   0.997        C  244 0.973
   250  H   0.993        C  244 0.973
   251  H   0.996        C  245 0.967
   252  H   0.993        C  245 0.954
   253  N   3.464        C  241 1.296    C  254 0.977    H  261 0.917    O  242 0.191
   254  C   3.965        C  257 0.982    N  253 0.977    H  262 0.940    C  255 0.938
   255  C   3.945        O  256 1.605    N  272 1.312    C  254 0.938
   256  O   1.973        C  255 1.605    N  272 0.193
   257  C   3.987        C  258 0.991    C  254 0.982    H  264 0.971    H  263 0.970
   258  C   3.994        C  260 1.011    C  259 1.007    C  257 0.991    H  265 0.966
   259  C   3.993        C  258 1.007    H  268 0.986    H  267 0.986    H  266 0.985
   260  C   3.994        C  258 1.011    H  270 0.985    H  269 0.983    H  271 0.981
   261  H   0.957        N  253 0.917
   262  H   0.994        C  254 0.940
   263  H   0.997        C  257 0.970
   264  H   0.996        C  257 0.971
   265  H   0.999        C  258 0.966
   266  H   0.997        C  259 0.985
   267  H   0.998        C  259 0.986
   268  H   0.998        C  259 0.986
   269  H   0.997        C  260 0.983
   270  H   0.998        C  260 0.985
   271  H   0.998        C  260 0.981
   272  N   3.469        C  255 1.312    C  273 0.978    H  281 0.898    O  256 0.193
   273  C   3.965        C  276 0.981    N  272 0.978    H  282 0.951    C  274 0.937
   274  C   3.950        O  275 1.597    N  289 1.326    C  273 0.937
   275  O   1.951        C  274 1.597    N  289 0.193
   276  C   3.985        C  277 1.004    C  273 0.981    H  284 0.970    H  283 0.963
   277  C   3.993        C  276 1.004    C  278 0.977    H  286 0.968    H  285 0.943
   278  C   3.944        O  279 1.599    N  280 1.333    C  277 0.977
   279  O   1.933        C  278 1.599    N  280 0.194
   280  N   3.415        C  278 1.333    H  287 0.928    H  288 0.922    O  279 0.194
   281  H   0.950        N  272 0.898
   282  H   0.996        C  273 0.951
   283  H   0.992        C  276 0.963
   284  H   0.994        C  276 0.970
   285  H   0.990        C  277 0.943
   286  H   0.996        C  277 0.968
   287  H   0.948        N  280 0.928
   288  H   0.943        N  280 0.922
   289  N   3.484        C  274 1.326    C  290 0.975    H  298 0.903    O  275 0.193
   290  C   3.957        C  293 0.978    N  289 0.975    H  299 0.949    C  291 0.935
   291  C   3.948        O  292 1.596    N  311 1.329    C  290 0.935
   292  O   1.953        C  291 1.596    N  311 0.197
   293  C   3.981        C  294 1.003    C  290 0.978    H  301 0.971    H  300 0.965
   294  C   3.990        C  295 1.004    C  293 1.003    H  302 0.974    H  303 0.972
   295  C   3.984        C  296 1.009    C  294 1.004    H  305 0.971    H  304 0.968
   296  C   3.911        C  295 1.009    H  307 0.966    H  306 0.965    N  297 0.953
   297  N   3.659        C  296 0.953    H  308 0.908    H  310 0.904    H  309 0.840
   298  H   0.949        N  289 0.903
   299  H   0.993        C  290 0.949
   300  H   0.994        C  293 0.965
   301  H   0.994        C  293 0.971
   302  H   0.995        C  294 0.974
   303  H   0.996        C  294 0.972
   304  H   0.994        C  295 0.968
   305  H   0.993        C  295 0.971
   306  H   0.986        C  296 0.965
   307  H   0.989        C  296 0.966
   308  H   0.922        N  297 0.908
   309  H   0.915        N  297 0.840
   310  H   0.920        N  297 0.904
   311  N   3.486        C  291 1.329    C  312 0.977    H  319 0.887    O  292 0.197
   312  C   3.961        N  311 0.977    C  315 0.966    H  320 0.944    C  313 0.935
   313  C   3.943        O  314 1.604    N  330 1.318    C  312 0.935
   314  O   1.952        C  313 1.604    N  330 0.195
   315  C   3.985        C  317 1.009    C  316 0.992    C  312 0.966    H  321 0.961
   316  C   3.992        C  318 1.020    C  315 0.992    H  322 0.974    H  323 0.970
   317  C   3.992        C  315 1.009    H  325 0.985    H  326 0.984    H  324 0.980
   318  C   3.995        C  316 1.020    H  327 0.983    H  328 0.982    H  329 0.981
   319  H   0.946        N  311 0.887
   320  H   0.994        C  312 0.944
   321  H   0.998        C  315 0.961
   322  H   0.996        C  316 0.974
   323  H   0.997        C  316 0.970
   324  H   0.996        C  317 0.980
   325  H   0.999        C  317 0.985
   326  H   0.997        C  317 0.984
   327  H   0.997        C  318 0.983
   328  H   0.999        C  318 0.982
   329  H   0.999        C  318 0.981
   330  N   3.474        C  313 1.318    C  331 0.981    H  338 0.884    O  314 0.195
   331  C   3.970        C  334 0.982    N  330 0.981    H  339 0.948    C  332 0.937
   332  C   3.947        O  333 1.591    N  342 1.324    C  331 0.937
   333  O   1.951        C  332 1.591    N  342 0.192
   334  C   3.979        C  331 0.982    H  340 0.967    H  341 0.962    C  335 0.906
   335  C   3.938        O  336 1.542    O  337 1.458    C  334 0.906
   336  O   1.837        C  335 1.542    O  337 0.214
   337  O   1.846        C  335 1.458    O  336 0.214
   338  H   0.948        N  330 0.884
   339  H   0.996        C  331 0.948
   340  H   0.998        C  334 0.967
   341  H   0.999        C  334 0.962
   342  N   3.474        C  332 1.324    C  343 0.974    H  347 0.889    O  333 0.192
   343  C   3.964        C  346 0.995    N  342 0.974    H  348 0.954    C  344 0.935
   344  C   3.949        O  345 1.590    N  352 1.338    C  343 0.935
   345  O   1.947        C  344 1.590    N  352 0.197
   346  C   3.981        C  343 0.995    H  349 0.981    H  350 0.978    H  351 0.976
   347  H   0.949        N  342 0.889
   348  H   0.996        C  343 0.954
   349  H   0.994        C  346 0.981
   350  H   0.994        C  346 0.978
   351  H   0.994        C  346 0.976
   352  N   3.486        C  344 1.338    C  353 0.975    H  357 0.882    O  345 0.197
   353  C   3.965        C  356 0.994    N  352 0.975    H  358 0.954    C  354 0.937
   354  C   3.947        O  355 1.620    N  362 1.311    C  353 0.937
   355  O   1.947        C  354 1.620    N  362 0.196
   356  C   3.982        C  353 0.994    H  359 0.982    H  360 0.978    H  361 0.974
   357  H   0.943        N  352 0.882
   358  H   0.996        C  353 0.954
   359  H   0.995        C  356 0.982
   360  H   0.993        C  356 0.978
   361  H   0.994        C  356 0.974
   362  N   3.472        C  354 1.311    C  363 0.981    H  370 0.896    O  355 0.196
   363  C   3.963        N  362 0.981    C  366 0.980    H  371 0.946    C  364 0.934
   364  C   3.942        O  365 1.614    N  381 1.315    C  363 0.934
   365  O   1.937        C  364 1.614    N  381 0.196
   366  C   3.984        C  367 0.992    C  363 0.980    H  373 0.972    H  372 0.967
   367  C   3.992        C  369 1.010    C  368 1.007    C  366 0.992    H  374 0.963
   368  C   3.993        C  367 1.007    H  376 0.982    H  375 0.982    H  377 0.981
   369  C   3.994        C  367 1.010    H  379 0.985    H  380 0.982    H  378 0.982
   370  H   0.949        N  362 0.896
   371  H   0.994        C  363 0.946
   372  H   0.996        C  366 0.967
   373  H   0.997        C  366 0.972
   374  H   0.998        C  367 0.963
   375  H   0.996        C  368 0.982
   376  H   0.998        C  368 0.982
   377  H   0.997        C  368 0.981
   378  H   0.997        C  369 0.982
   379  H   0.998        C  369 0.985
   380  H   0.999        C  369 0.982
   381  N   3.465        C  364 1.315    C  382 0.979    H  386 0.879    O  365 0.196
   382  C   3.969        C  385 0.997    N  381 0.979    H  387 0.955    C  383 0.933
   383  C   3.945        O  384 1.623    N  391 1.307    C  382 0.933
   384  O   1.940        C  383 1.623    N  391 0.194
   385  C   3.985        C  382 0.997    H  388 0.982    H  389 0.981    H  390 0.974
   386  H   0.945        N  381 0.879
   387  H   0.996        C  382 0.955
   388  H   0.995        C  385 0.982
   389  H   0.995        C  385 0.981
   390  H   0.994        C  385 0.974
   391  N   3.470        C  383 1.307    C  392 0.973    H  400 0.893    O  384 0.194
   392  C   3.965        C  395 0.974    N  391 0.973    C  393 0.967    H  401 0.953
   393  C   3.895        O  394 1.901    C  392 0.967    H  419 0.956
   394  O   2.036        C  393 1.901
   395  C   3.982        C  396 1.005    C  392 0.974    H  403 0.972    H  402 0.961
   396  C   3.994        C  395 1.005    C  397 0.968    H  404 0.956    H  405 0.950
   397  C   3.945        O  398 1.652    N  399 1.295    C  396 0.968
   398  O   1.952        C  397 1.652    N  399 0.197
   399  N   3.380        C  397 1.295    H  406 0.933    H  407 0.922    O  398 0.197
   400  H   0.949        N  391 0.893
   401  H   0.994        C  392 0.953
   402  H   0.993        C  395 0.961
   403  H   0.996        C  395 0.972
   404  H   0.994        C  396 0.956
   405  H   0.993        C  396 0.950
   406  H   0.951        N  399 0.933
   407  H   0.943        N  399 0.922
   408  H   0.968        N    1 0.956
   409  H   0.994        C  103 0.953
   410  H   0.971        N  116 0.961
   411  H   0.997        C  128 0.956
   412  H   0.965        N  142 0.946
   413  H   0.996        C  144 0.954
   414  H   0.966        N  161 0.955
   415  H   0.996        C  163 0.956
   416  H   0.967        N  180 0.951
   417  H   0.994        C  182 0.953
   418  H   0.965        N  196 0.955
   419  H   0.995        C  393 0.956
 
molecular dipole:
                 x           y           z       tot (Debye)
 q only:       -2.074      10.888       9.495
   full:       -1.719      10.185       8.330      33.727
molecular quadrupole (traceless):
                xx          xy          yy          xz          yz          zz
 q only:    -4491.044    4340.851    1924.642    4078.678    5006.872    2566.402
  q+dip:    -3980.904    4103.998    1853.938    3708.427    4637.853    2126.966
   full:    -3979.608    4104.509    1858.595    3708.886    4639.305    2121.013


           -------------------------------------------------
          | TOTAL ENERGY             -629.877023293066 Eh   |
          | GRADIENT NORM               0.546479247536 Eh/α |
          | HOMO-LUMO GAP               1.855732599622 eV   |
           -------------------------------------------------

------------------------------------------------------------------------
 * finished run on 2019/05/31 at 05:35:08.652     
------------------------------------------------------------------------
 total:
 * wall-time:     0 d,  0 h,  0 min,  6.210 sec
 *  cpu-time:     0 d,  0 h,  0 min, 11.545 sec
 * ratio c/w:     1.859 speedup
 SCF:
 * wall-time:     0 d,  0 h,  0 min,  5.404 sec
 *  cpu-time:     0 d,  0 h,  0 min, 10.599 sec
 * ratio c/w:     1.961 speedup

