      -----------------------------------------------------------      
     |                   =====================                   |     
     |                           x T B                           |     
     |                   =====================                   |     
     |                         S. Grimme                         |     
     |          Mulliken Center for Theoretical Chemistry        |     
     |                    University of Bonn                     |     
     |                 Version 6.0.1 (SAW181210)                 |     
      -----------------------------------------------------------      

   This program is distributed in the hope that it will be useful,
   but WITHOUT ANY WARRANTY; without even the implied warranty of
   MERCHANTABILITY or FITNESS FOR A PARTICULAR PURPOSE.
   
   FOR NON-COMMERCIAL, ACADEMIA USE ONLY.
   
   Cite this work as:
   S. Grimme, C. Bannwarth, P. Shushkov, J. Comput. Theory Chem., 2017,
   13, 1989-2009.
   C. Bannwarth, S. Ehlert and S. Grimme., ChemRxiv, 2018, preprint.
   http://doi.org/10.26434/chemrxiv.7246238.v1
   
   for sTDA-xTB:
   S. Grimme and C. Bannwarth, J. Chem. Phys., 2016, 145, 054103.
   
   in the mass-spec context:
   V. Asgeirsson, C. Bauer and S. Grimme, Chem. Sci., 2017, 8, 4879.
   
   if GBSA is used:
   P. Shushkov, F. März and S. Grimme, unpublished.
   
   for ANC optimizer:
   S. Grimme, unpublished.
   Rational Function algorithm used in ANCopt:
   F. Eckert, P. Pulay, H.-J. Werner, J. Comput. Chem., 1997, 18, 1473.
   
   with help from (in alphabetical order)
   C. Bannwarth, F. Bohle, G. Brandenburg, E. Caldeweyher, M. Checinski,
   S. Dohm, S. Ehlert, S. Ehrlich, F. März, H. Neugebauer, J. Pisarek,
   P. Pracht, P. Shushkov, and S. Spicher.
   
 * started run on 2019/03/07 at 11:37:44.673     
========================================================================
 # omp threads = 1
========================================================================
number of atoms            : 71
number of electrons        : 190
charge                     : 0
spin                       : .0
first test random number   : .3621
           ------------------------------------------------- 
          |                 G F N 2 - x T B                 |
          | Geometry, Frequencies, Noncovalent interactions |
          |            JCTC 2018 parametrisation            |
           ------------------------------------------------- 
 
      method parameters     
 k(s)        :  1.8500
 k(p)        :  2.2300
 k(d)        :  2.2300
 k(f)        :  2.0000
 kEN (H0ij)  : -2.0000
 D4 a1       :  0.5200
 D4 a2       :  5.0000
 D4 s6       :  1.0000
 D4 s8       :  2.7000
 D4 s9       :  5.0000
 alphaj      :  2.0000

 Solvent             : h2o
 Using internal parameter file: .param_gbsa2_h2o
 Gsolv ref. state (COSMO-RS): gsolv [1 M gas/solution]
 temperature (mdtemp)       :    298.150000000000     
 dielectric constant        :    80.2000000000000     
 rho                        :    1.00000000000000     
 mass                       :    18.0000000000000     
 surface tension            :    15.5689454083859     
 probe radius               :   0.975313790000000     
 vdW radii scaling          :    1.00000000000000     
 Gshift (Eh)                :   1.857443126794793E-003
 c1                         :    1.55243817000000     
 soset                      :   0.130326360000000     
 HB correction              :  T

            Z     q(EN)     CN     RAES       Cart. coordinates
     1  N   5.0   -0.23    3.24    1.96   326.42937   103.81021   226.68019
     2  C   4.0    0.04    4.30    4.20   325.34278   102.44015   224.53724
     3  C   4.0    0.09    3.25    3.04   324.29776    99.93816   225.55202
     4  O   6.0   -0.25    1.11    1.80   322.24552    99.05943   224.80369
     5  C   4.0   -0.04    4.36    4.31   327.35723   101.99040   222.52090
     6  C   4.0    0.25    3.17    3.03   326.53142   100.13469   220.50267
     7  O   6.0   -0.26    1.20    1.80   324.30343   100.11957   219.74867
     8  O   6.0   -0.28    1.19    1.80   328.14902    98.68716   219.62017
     9  H   1.0    0.10    1.08    1.44   327.34967   102.87857   227.64206
    10  H   1.0    0.06    1.12    1.45   323.99729   103.40580   223.75111
    11  H   1.0    0.04    1.09    1.44   327.78241   103.58911   221.73099
    12  H   1.0    0.05    1.10    1.44   328.88224   101.36679   223.32403
    13  N   5.0   -0.21    3.26    1.97   330.17481   105.61300   208.54827
    14  C   4.0    0.03    4.45    4.46   329.82332   104.78719   211.16932
    15  C   4.0    0.16    3.48    3.11   328.76507   102.13024   211.14853
    16  O   6.0   -0.29    1.28    1.80   326.71850   101.64836   210.12052
    17  C   4.0   -0.03    4.41    4.40   328.07532   106.59944   212.67732
    18  C   4.0   -0.06    4.29    4.18   329.13546   109.31876   212.58094
    19  C   4.0   -0.08    4.24    4.08   327.73895   105.67159   215.39474
    20  C   4.0   -0.09    4.15    3.89   327.76352   111.11211   214.39508
    21  H   1.0    0.14    1.10    1.44   328.80854   105.68292   207.67143
    22  H   1.0    0.04    1.13    1.45   331.44659   104.81365   212.01969
    23  H   1.0    0.06    1.12    1.45   326.41425   106.61456   211.90253
    24  H   1.0    0.04    1.09    1.44   330.92125   109.28663   212.99668
    25  H   1.0    0.05    1.09    1.44   328.99373   109.96315   210.87074
    26  H   1.0    0.05    1.06    1.44   326.64291   106.82621   216.30370
    27  H   1.0    0.06    1.06    1.44   326.98684   103.99918   215.38152
    28  H   1.0    0.05    1.06    1.44   329.37167   105.59978   216.22433
    29  H   1.0    0.05    1.05    1.44   328.49295   112.78829   214.26658
    30  H   1.0    0.05    1.05    1.44   325.98529   111.18581   213.95477
    31  H   1.0    0.04    1.06    1.44   327.94304   110.49984   216.11284
    32  N   5.0   -0.15    3.40    2.02   330.18993   100.33311   212.14252
    33  C   4.0    0.02    4.37    4.32   329.33388    97.70072   212.15953
    34  C   4.0    0.16    3.40    3.08   329.29420    96.63681   209.52147
    35  O   6.0   -0.27    1.22    1.80   331.28219    95.88092   208.51803
    36  H   1.0    0.10    1.12    1.45   331.64879   100.58255   212.81527
    37  H   1.0    0.06    1.09    1.44   330.44315    96.69539   213.21589
    38  H   1.0    0.06    1.09    1.44   327.65769    97.59868   212.89464
    39  N   5.0   -0.16    3.49    2.07   327.07188    96.58389   208.37630
    40  C   4.0    0.02    4.39    4.36   326.77519    95.64848   205.85163
    41  C   4.0    0.15    3.39    3.08   325.08956    97.33411   204.30394
    42  O   6.0   -0.28    1.22    1.80   323.90092    96.53476   202.42744
    43  H   1.0    0.10    1.14    1.45   325.69049    97.09790   209.06227
    44  H   1.0    0.07    1.10    1.44   328.41736    95.51998   205.04849
    45  H   1.0    0.06    1.09    1.44   326.07032    93.95717   205.90265
    46  N   5.0   -0.15    3.57    2.13   324.90814    99.67548   205.09763
    47  C   4.0    0.04    4.38    4.34   323.34156   101.53686   203.82017
    48  C   4.0    0.08    3.21    3.04   324.87035   103.96327   203.41388
    49  O   6.0   -0.28    1.17    1.80   326.67315   104.54531   204.72724
    50  C   4.0   -0.05    4.35    4.30   320.96239   102.09433   205.39053
    51  C   4.0   -0.05    4.30    4.20   319.09156    99.88335   205.72313
    52  C   4.0   -0.06    4.29    4.17   316.84846   100.67893   207.29727
    53  C   4.0   -0.04    4.29    4.17   315.00598    98.49252   207.58262
    54  N   5.0   -0.16    4.11    3.18   315.93572    96.23240   208.97156
    55  H   1.0    0.13    1.16    1.46   325.69049   100.24807   206.40154
    56  H   1.0    0.06    1.13    1.45   322.81810   100.87546   202.19312
    57  H   1.0    0.06    1.09    1.44   321.48963   102.65936   207.05349
    58  H   1.0    0.04    1.09    1.44   320.07044   103.49084   204.60819
    59  H   1.0    0.05    1.09    1.44   318.52087    99.30321   204.08095
    60  H   1.0    0.05    1.09    1.44   319.94005    98.46984   206.52437
    61  H   1.0    0.05    1.09    1.44   317.41349   101.23829   208.94889
    62  H   1.0    0.04    1.09    1.44   316.00753   102.10378   206.50736
    63  H   1.0    0.04    1.09    1.44   313.50931    99.11424   208.43866
    64  H   1.0    0.05    1.09    1.44   314.48441    97.96150   205.90832
    65  H   1.0    0.07    1.09    1.44   314.69417    95.10424   209.10385
    66  H   1.0    0.07    1.09    1.44   317.22641    95.55021   208.13442
    67  H   1.0    0.07    1.09    1.44   316.44406    96.68783   210.50791
    68  H   1.0    0.10    1.08    1.44   327.40966   105.07611   226.10654
    69  H   1.0    0.06    1.04    1.44   325.26850    98.96549   226.84920
    70  H   1.0    0.10    1.08    1.44   330.85138   107.17329   208.53051
    71  H   1.0    0.06    1.05    1.44   324.40382   105.15187   202.02081

  Z AO/shell   Hii/eV     exponent
  1     Wed Apr 25 08:07:45 CEST 2018   EN: 2.200 GM2: 0.406  GM3: 0.0800  RAES: 1.40
     1s    -10.707211    1.230000
  6     Wed Apr 25 08:07:45 CEST 2018   EN: 2.550 GM2: 0.538  GM3: 0.1500  RAES: 3.00
     2s    -13.970922    2.096432
     2p    -10.063292    1.800000
  7     Wed Apr 25 08:07:45 CEST 2018   EN: 3.040 GM2: 0.461  GM3:-0.0640  RAES: 1.90
     2s    -16.686243    2.339881
     2p    -12.523956    2.014332
  8     Wed Apr 25 08:07:45 CEST 2018   EN: 3.440 GM2: 0.452  GM3:-0.0517  RAES: 1.80
     2s    -20.229985    2.439742
     2p    -15.503117    2.137023
 no old-style atom pair restraining (fixing) potential

molecular fragmentation (1/2 indicates fragments):
11111111111122222222222222222222222222222222222222222222222222222221122
# atoms in fragment 1/2:    14    57
 fragment masses (1/2) :      116.10      358.46
CMA distance (Bohr)    :  14.531
constraining FC (au)   :  0.0500
           ------------------------------------------------- 
          |        Self-Consistent Charge Iterations        |
           ------------------------------------------------- 

 Ncao       : 170
 Nao        : 170
 Nshell     : 104
 Nel        : 190
 T(el)      :   500.0
 intcut     :    35.0
 scfconv/Eh :  0.100E-06
   qconv/e  :  0.100E-04
 intneglect :  0.100E-08
 broydamp   :      0.400
 iter      E             dE          RMSdq      gap      omega  full diag
   1   -109.6235848 -0.109624E+03  0.471E+00    3.58       0.0  T
   2   -109.9295855 -0.306001E+00  0.218E+00    1.97       1.0  T
   3   -109.9490464 -0.194609E-01  0.130E+00    2.29       1.0  T
   4   -109.9663806 -0.173342E-01  0.295E-01    1.63       1.0  T
   5   -109.9679481 -0.156751E-02  0.141E-01    1.73       1.0  T
   6   -109.9681374 -0.189304E-03  0.609E-02    1.79       1.0  T
   7   -109.9681887 -0.513184E-04  0.211E-02    1.81       1.0  T
   8   -109.9681922 -0.348493E-05  0.882E-03    1.83       1.3  T
   9   -109.9681937 -0.144477E-05  0.343E-03    1.83       3.5  T
  10   -109.9681937 -0.893411E-07  0.127E-03    1.83       9.4  T
  11   -109.9681938 -0.424060E-07  0.446E-04    1.83      26.6  T
  12   -109.9681938 -0.149991E-08  0.150E-04    1.83      78.9  T
  13   -109.9681938 -0.297845E-09  0.631E-05    1.83     188.0  T
  14   -109.9681938 -0.450910E-10  0.247E-05    1.83     479.9  T
speedup  1.00
cpu  time for SCC    0.12 s
wall time for SCC    0.12 s

   *** convergence criteria satisfied after 14 iterations ***

          eigenvalues
 #    :          83         84         85         86         87         88         89         90
 occ. :        2.000      2.000      2.000      2.000      2.000      2.000      2.000      2.000
 eps  :       -11.810    -11.752    -11.658    -11.304    -11.193    -11.129    -10.984    -10.947
 #    :          91         92         93         94         95         96         97         98
 occ. :        2.000      2.000      2.000      2.000      2.000      0.000      0.000      0.000
 eps  :       -10.589    -10.520    -10.028     -9.921     -9.756     -7.927     -7.903     -6.442
 #    :          99        100        101        102        103        104        105        106
 occ. :        0.000      0.000      0.000      0.000      0.000      0.000      0.000      0.000
 eps  :        -6.098     -6.088     -4.446     -1.135      0.051      0.149      0.542      0.660


   #   Z            q   n(s)   n(p)   n(d)      C6AA      α(0)
   1   7 N     -0.423  1.296  4.127  0.000    31.026     8.273
   2   6 C      0.039  1.035  2.926  0.000    19.935     6.359
   3   6 C      0.199  1.093  2.708  0.000    23.766     7.984
   4   8 O     -0.389  1.771  4.618  0.000    21.454     6.210
   5   6 C     -0.112  1.017  3.095  0.000    22.623     6.769
   6   6 C      0.368  1.019  2.613  0.000    20.764     7.457
   7   8 O     -0.650  1.771  4.879  0.000    27.383     7.016
   8   8 O     -0.659  1.767  4.892  0.000    27.624     7.047
   9   1 H      0.187  0.813  0.000  0.000     1.176     1.698
  10   1 H      0.081  0.919  0.000  0.000     1.971     2.195
  11   1 H      0.057  0.943  0.000  0.000     2.233     2.337
  12   1 H      0.044  0.956  0.000  0.000     2.396     2.420
  13   7 N     -0.418  1.292  4.125  0.000    30.873     8.252
  14   6 C      0.020  1.038  2.943  0.000    20.249     6.408
  15   6 C      0.269  1.049  2.682  0.000    22.449     7.759
  16   8 O     -0.499  1.733  4.766  0.000    23.766     6.536
  17   6 C     -0.036  1.046  2.991  0.000    21.187     6.547
  18   6 C     -0.085  1.007  3.078  0.000    22.103     6.692
  19   6 C     -0.137  0.973  3.164  0.000    23.169     6.860
  20   6 C     -0.147  0.976  3.171  0.000    23.387     6.893
  21   1 H      0.195  0.805  0.000  0.000     1.131     1.666
  22   1 H      0.045  0.955  0.000  0.000     2.385     2.415
  23   1 H      0.055  0.945  0.000  0.000     2.258     2.350
  24   1 H      0.044  0.956  0.000  0.000     2.392     2.418
  25   1 H      0.051  0.949  0.000  0.000     2.302     2.372
  26   1 H      0.062  0.938  0.000  0.000     2.174     2.305
  27   1 H      0.030  0.970  0.000  0.000     2.591     2.517
  28   1 H      0.040  0.960  0.000  0.000     2.449     2.447
  29   1 H      0.057  0.943  0.000  0.000     2.232     2.336
  30   1 H      0.054  0.946  0.000  0.000     2.268     2.355
  31   1 H      0.051  0.949  0.000  0.000     2.300     2.372
  32   7 N     -0.183  1.213  3.971  0.000    24.976     7.422
  33   6 C     -0.035  1.002  3.033  0.000    21.244     6.570
  34   6 C      0.274  1.036  2.690  0.000    22.371     7.746
  35   8 O     -0.507  1.761  4.745  0.000    23.931     6.559
  36   1 H      0.215  0.785  0.000  0.000     1.034     1.593
  37   1 H      0.091  0.909  0.000  0.000     1.866     2.136
  38   1 H      0.086  0.914  0.000  0.000     1.918     2.166
  39   7 N     -0.170  1.200  3.970  0.000    24.675     7.377
  40   6 C     -0.052  1.004  3.048  0.000    21.547     6.616
  41   6 C      0.265  1.035  2.701  0.000    22.536     7.774
  42   8 O     -0.506  1.756  4.750  0.000    23.912     6.556
  43   1 H      0.231  0.769  0.000  0.000     0.961     1.535
  44   1 H      0.112  0.888  0.000  0.000     1.682     2.028
  45   1 H      0.117  0.883  0.000  0.000     1.635     2.000
  46   7 N     -0.156  1.196  3.960  0.000    24.377     7.333
  47   6 C      0.009  1.040  2.950  0.000    20.426     6.435
  48   6 C      0.194  1.086  2.720  0.000    23.859     7.999
  49   8 O     -0.365  1.761  4.604  0.000    21.001     6.144
  50   6 C     -0.099  1.012  3.087  0.000    22.382     6.733
  51   6 C     -0.105  1.008  3.097  0.000    22.492     6.750
  52   6 C     -0.114  1.008  3.105  0.000    22.657     6.775
  53   6 C     -0.076  1.014  3.062  0.000    22.031     6.695
  54   7 N     -0.139  1.143  3.996  0.000    24.009     7.277
  55   1 H      0.222  0.778  0.000  0.000     0.999     1.565
  56   1 H      0.119  0.881  0.000  0.000     1.618     1.989
  57   1 H      0.078  0.922  0.000  0.000     1.996     2.209
  58   1 H      0.087  0.913  0.000  0.000     1.903     2.157
  59   1 H      0.087  0.913  0.000  0.000     1.910     2.161
  60   1 H      0.067  0.933  0.000  0.000     2.119     2.276
  61   1 H      0.089  0.911  0.000  0.000     1.887     2.148
  62   1 H      0.105  0.895  0.000  0.000     1.741     2.063
  63   1 H      0.134  0.866  0.000  0.000     1.502     1.917
  64   1 H      0.135  0.865  0.000  0.000     1.493     1.911
  65   1 H      0.297  0.703  0.000  0.000     0.721     1.330
  66   1 H      0.284  0.716  0.000  0.000     0.763     1.368
  67   1 H      0.287  0.713  0.000  0.000     0.753     1.359
  68   1 H      0.192  0.808  0.000  0.000     1.148     1.679
  69   1 H      0.068  0.932  0.000  0.000     2.111     2.272
  70   1 H      0.183  0.817  0.000  0.000     1.195     1.712
  71   1 H      0.087  0.913  0.000  0.000     1.912     2.162

 Mol. C6AA /au·bohr⁶  :      43476.752606
 Mol. C8AA /au·bohr⁸  :     951974.323218
 Mol. α(0) /au        :        309.764610

 
molecular dipole:
                 x           y           z       tot (Debye)
 q only:      -10.480      -0.403      -9.073
   full:       -9.634      -0.154      -8.242      32.229
molecular quadrupole (traceless):
                xx          xy          yy          xz          yz          zz
 q only:    -4754.748   -1714.370    5254.220   -7673.746   -1473.091    -499.472
  q+dip:    -4408.255   -1460.947    4857.909   -6990.305   -1276.332    -449.654
   full:    -4409.026   -1461.013    4857.846   -6992.167   -1276.046    -448.820
speedup  1.00
cpu  time for grad    0.18 s
wall time for grad    0.18 s

SCC energy    :    -109.9704978
rep           :       2.2879049
ES            :       0.5119879
AES           :      -0.0167746
AXC           :       0.0187390
disp          :      -0.0639906
XB            :       0.0000000
fix           :       0.0000000
Gborn         :       0.0000000
Gsasa         :       0.0000000
Ghb           :       0.0000000
Gshift        :       0.0000000
Gsolv         :      -0.1798998     -112.89
Etot ala COSMO:    -109.9704978
grad norm     :       1.0702401
total E       :    -107.6809821
atomizationE  :      18.7264397    11751.02
(atE without considering molecular charge,
 total energy contains solvation terms)
H-L gap (eV)  :          1.8293

------------------------------------------------------------------------
 * finished run on 2019/03/07 at 11:37:44.993     
------------------------------------------------------------------------
 total:
 * wall-time:     0 d,  0 h,  0 min,  0.319 sec
 *  cpu-time:     0 d,  0 h,  0 min,  0.248 sec
 * ratio c/w:     0.778 speedup
 SCF:
 * wall-time:     0 d,  0 h,  0 min,  0.223 sec
 *  cpu-time:     0 d,  0 h,  0 min,  0.220 sec
 * ratio c/w:     0.989 speedup

