      -----------------------------------------------------------      
     |                   =====================                   |     
     |                           x T B                           |     
     |                   =====================                   |     
     |                         S. Grimme                         |     
     |          Mulliken Center for Theoretical Chemistry        |     
     |                    University of Bonn                     |     
     |                Version 6.1 RC1 (SAW190329)                |     
      -----------------------------------------------------------      

   This program is distributed in the hope that it will be useful,
   but WITHOUT ANY WARRANTY; without even the implied warranty of
   MERCHANTABILITY or FITNESS FOR A PARTICULAR PURPOSE.
   
   FOR NON-COMMERCIAL, ACADEMIA USE ONLY.
   
   Cite this work as:
   S. Grimme, C. Bannwarth, P. Shushkov, J. Comput. Theory Chem., 2017,
   13, 1989-2009. DOI: 10.1021/acs.jctc.7b00118
   C. Bannwarth, S. Ehlert and S. Grimme., J. Comput. Theory Chem., 2019,
   just accepted. DOI: 10.1021/acs.jctc.8b01176
   
   for sTDA-xTB:
   S. Grimme and C. Bannwarth, J. Chem. Phys., 2016, 145, 054103.
   DOI: 10.1063/1.4959605
   
   in the mass-spec context:
   V. Asgeirsson, C. Bauer and S. Grimme, Chem. Sci., 2017, 8, 4879.
   DOI: 10.1039/c7sc00601b
   
   for metadynamics refer to:
   S. Grimme, ChemRxiv, Preprint. DOI: 10.26434/chemrxiv.7660532.v1
   
   with help from (in alphabetical order)
   C. Bannwarth, F. Bohle, G. Brandenburg, E. Caldeweyher, M. Checinski,
   S. Dohm, S. Ehlert, S. Ehrlich, F. März, H. Neugebauer, J. Pisarek,
   P. Pracht, P. Shushkov, and S. Spicher.
   
 * started run on 2019/05/31 at 07:36:46.345     

           -------------------------------------------------
          |                Calculation Setup                |
           -------------------------------------------------

          program call               : /home/lum/install/xtb/xtb-190329/bin/xtb xtb_tmp.xyz --chrg 1 --grad --gfn 2 --etemp 500 --acc 0.1 --gbsa h2o --parallel 1
          hostname                   : cu05
          coordinate file            : xtb_tmp.xyz
          omp threads                :                     1
          number of atoms            :                    56
          number of electrons        :                   148
          charge                     :                     1
          spin                       :                   0.0
          first test random number   :      0.13568192000173


molecular fragmentation (1/2 indicates fragments):
11111111122222222222222222222222222222222222222222222122
# atoms in fragment 1/2:    10    46
 fragment masses (1/2) :       60.08      312.37
CMA distance (Bohr)    :  13.312
constraining FC (au)   :  0.0500

########################################################################
# WARNING! Please study the warnings concerning your input carefully
#  - XTBPATH is not set, using XTBHOME instead
########################################################################

           ------------------------------------------------- 
          |                 G F N 2 - x T B                 |
          | Geometry, Frequencies, Noncovalent interactions |
          |            JCTC 2018 parametrisation            |
           ------------------------------------------------- 
 
             k(s)              :                1.8500
             k(p)              :                2.2300
             k(d)              :                2.2300
             k(f)              :                2.0000
             kEN (H0ij)        :               -2.0000
             D4 a1             :                0.5200
             D4 a2             :                5.0000
             D4 s6             :                1.0000
             D4 s8             :                2.7000
             D4 s9             :                5.0000
             alphaj            :                2.0000

  Z AO/shell   Hii/eV     exponent
  1     Wed Apr 25 08:07:45 CEST 2018   EN: 2.200 GM2: 0.406  GM3: 0.0800  RAES: 1.40
     1s    -10.707211    1.230000
  6     Wed Apr 25 08:07:45 CEST 2018   EN: 2.550 GM2: 0.538  GM3: 0.1500  RAES: 3.00
     2s    -13.970922    2.096432
     2p    -10.063292    1.800000
  7     Wed Apr 25 08:07:45 CEST 2018   EN: 3.040 GM2: 0.461  GM3:-0.0640  RAES: 1.90
     2s    -16.686243    2.339881
     2p    -12.523956    2.014332
  8     Wed Apr 25 08:07:45 CEST 2018   EN: 3.440 GM2: 0.452  GM3:-0.0517  RAES: 1.80
     2s    -20.229985    2.439742
     2p    -15.503117    2.137023

 Solvent             : h2o
 Using internal parameter file: .param_gbsa2_h2o
 Gsolv ref. state (COSMO-RS): gsolv [1 M gas/solution]
 temperature (mdtemp)       :    298.150000000000     
 dielectric constant        :    80.2000000000000     
 rho                        :    1.00000000000000     
 mass                       :    18.0000000000000     
 surface tension            :    15.5689454083859     
 probe radius               :   0.975313790000000     
 vdW radii scaling          :    1.00000000000000     
 Gshift (Eh)                :   1.857443126794793E-003
 c1                         :    1.55243817000000     
 soset                      :   0.130326360000000     
 HB correction              :  T
 Number of grid points      :          230

            Z     q(EN)     CN     RAES       Cart. coordinates
     1  N   5.0   -0.72    3.98    2.81    87.78097   102.65718    83.94781
     2  C   4.0    0.01    3.97    3.58    85.54751   101.34420    82.85037
     3  C   4.0    0.08    2.99    3.02    86.18852    98.96637    81.34702
     4  O   6.0   -0.33    1.00    1.80    85.32821    96.90186    81.90508
     5  H   1.0    0.26    1.00    1.43    87.18123   104.35450    84.69827
     6  H   1.0    0.28    1.00    1.43    88.57011   101.59900    85.38660
     7  H   1.0    0.27    1.00    1.43    89.14231   103.04034    82.60209
     8  H   1.0    0.17    0.99    1.43    84.21719   100.82240    84.34000
     9  H   1.0    0.14    0.99    1.43    84.52986   102.63299    81.58126
    10  N   5.0   -0.66    3.00    1.92    78.15343   104.66846    80.41968
    11  C   4.0    0.02    3.98    3.59    78.50910   106.89761    81.95845
    12  C   4.0    0.26    3.01    3.02    79.76241   106.28329    84.49932
    13  O   6.0   -0.36    1.00    1.80    80.44948   104.15056    85.05810
    14  H   1.0    0.29    1.00    1.43    76.43685   103.81971    80.43195
    15  H   1.0    0.11    0.99    1.43    79.74921   108.19464    80.92306
    16  H   1.0    0.12    0.99    1.43    76.67426   107.78338    82.25353
    17  N   5.0   -0.36    3.03    1.93    80.13123   108.27201    86.04442
    18  C   4.0    0.08    4.03    3.67    81.45541   107.97034    88.42962
    19  C   4.0    0.29    3.01    3.02    79.73448   107.42075    90.68720
    20  O   6.0   -0.38    1.00    1.80    80.58720   106.53947    92.64090
    21  C   4.0   -0.12    4.01    3.64    82.71834   110.54838    88.83197
    22  C   4.0   -0.13    4.01    3.64    80.77248   112.36210    87.71032
    23  C   4.0   -0.05    4.01    3.64    79.76993   110.92683    85.40732
    24  H   1.0    0.14    0.99    1.43    82.79063   106.39867    88.30865
    25  H   1.0    0.13    0.99    1.43    83.10031   110.90767    90.81842
    26  H   1.0    0.12    0.99    1.43    84.48464   110.64742    87.78106
    27  H   1.0    0.13    0.99    1.43    79.26139   112.69822    89.06561
    28  H   1.0    0.12    0.99    1.43    81.59546   114.16988    87.18805
    29  H   1.0    0.11    0.99    1.43    77.78858   111.35007    85.01496
    30  H   1.0    0.11    0.99    1.43    80.87154   111.39577    83.72158
    31  N   5.0   -0.47    3.00    1.93    77.32839   108.22671    90.44983
    32  C   4.0    0.03    4.00    3.61    75.52931   107.78051    92.45221
    33  C   4.0    0.28    3.00    3.02    74.45640   105.09522    92.30714
    34  O   6.0   -0.35    1.00    1.80    74.35514   103.93669    90.31447
    35  H   1.0    0.27    1.00    1.43    76.62080   108.43415    88.69157
    36  H   1.0    0.14    0.99    1.43    76.52118   108.04133    94.24268
    37  H   1.0    0.13    0.99    1.43    73.98456   109.14107    92.29053
    38  N   5.0   -0.47    3.01    1.93    73.69811   104.15866    94.53487
    39  C   4.0    0.07    3.99    3.60    72.56379   101.68770    94.80792
    40  C   4.0    0.08    3.00    3.02    69.84331   102.06496    95.70009
    41  O   6.0   -0.34    1.00    1.80    69.27851   103.69869    97.23270
    42  C   4.0   -0.08    3.98    3.58    74.07254   100.05852    96.70032
    43  C   4.0   -0.21    3.98    3.59    72.88641    97.44409    96.94434
    44  C   4.0   -0.19    3.98    3.59    76.81796    99.83403    95.84013
    45  H   1.0    0.26    1.00    1.43    73.67148   105.26139    96.09049
    46  H   1.0    0.15    0.99    1.43    72.60560   100.81241    92.93533
    47  H   1.0    0.14    0.99    1.43    74.00339   101.00509    98.53999
    48  H   1.0    0.13    0.99    1.43    74.01250    96.26428    98.19003
    49  H   1.0    0.13    0.99    1.43    70.98864    97.54430    97.72037
    50  H   1.0    0.13    0.99    1.43    72.79737    96.51703    95.11304
    51  H   1.0    0.13    0.99    1.43    77.89900    98.77915    97.23013
    52  H   1.0    0.13    0.99    1.43    76.92047    98.84604    94.04067
    53  H   1.0    0.15    0.99    1.43    77.68899   101.67909    95.60103
    54  H   1.0    0.16    1.00    1.43    87.34483    99.07409    79.85625
    55  H   1.0    0.31    1.00    1.43    78.43758   105.05388    78.78773
    56  H   1.0    0.15    1.00    1.43    68.46651   100.95874    95.02795

           ------------------------------------------------- 
          |        Self-Consistent Charge Iterations        |
           ------------------------------------------------- 

          ...................................................
          :                      SETUP                      :
          :.................................................:
          :  # basis functions                 134          :
          :  # atomic orbitals                 134          :
          :  # shells                           82          :
          :  # electrons                       148          :
          :  max. iterations                   250          :
          :  Hamiltonian                  GFN2-xTB          :
          :  restarted?                      false          :
          :  GBSA solvation                   true          :
          :  PC potential                    false          :
          :  electronic temp.          500.0000000     K    :
          :  accuracy                    0.1000000          :
          :  -> integral cutoff          0.3500000E+02      :
          :  -> integral neglect         0.1000000E-08      :
          :  -> SCF convergence          0.1000000E-06 Eh   :
          :  -> wf. convergence          0.1000000E-04 e    :
          :  Broyden damping             0.4000000          :
          ...................................................

 iter      E             dE          RMSdq      gap      omega  full diag
   1    -84.8330900 -0.848331E+02  0.449E+00    2.32       0.0  T
   2    -85.1502063 -0.317116E+00  0.226E+00    1.60       1.0  T
   3    -85.1626125 -0.124062E-01  0.129E+00    1.92       1.0  T
   4    -85.1650185 -0.240600E-02  0.321E-01    1.60       1.0  T
   5    -85.1678583 -0.283987E-02  0.114E-01    1.71       1.0  T
   6    -85.1679493 -0.910095E-04  0.529E-02    1.71       1.0  T
   7    -85.1679563 -0.698409E-05  0.129E-02    1.73       1.0  T
   8    -85.1679578 -0.151132E-05  0.587E-03    1.74       2.3  T
   9    -85.1679580 -0.194449E-06  0.226E-03    1.74       5.9  T
  10    -85.1679581 -0.262625E-07  0.821E-04    1.74      16.3  T
  11    -85.1679581 -0.460044E-08  0.258E-04    1.74      51.7  T
  12    -85.1679581 -0.966708E-09  0.110E-04    1.74     122.0  T
  13    -85.1679581 -0.870415E-10  0.449E-05    1.74     297.3  T
  14    -85.1679581 -0.113261E-10  0.172E-05    1.74     775.5  T

   *** convergence criteria satisfied after 14 iterations ***

         #    Occupation            Energy/Eh            Energy/eV
      -------------------------------------------------------------
         1        2.0000           -0.7427285             -20.2107
       ...           ...                  ...                  ...
        68        2.0000           -0.4315772             -11.7438
        69        2.0000           -0.4233426             -11.5197
        70        2.0000           -0.4072937             -11.0830
        71        2.0000           -0.4068679             -11.0714
        72        2.0000           -0.4046674             -11.0116
        73        2.0000           -0.3919943             -10.6667
        74        2.0000           -0.3661592              -9.9637 (HOMO)
        75                         -0.3022603              -8.2249 (LUMO)
        76                         -0.2953176              -8.0360
        77                         -0.2286815              -6.2227
        78                         -0.2245167              -6.1094
        79                         -0.2163032              -5.8859
       ...                                ...                  ...
       134                          0.6136830              16.6992
      -------------------------------------------------------------
                  HL-Gap            0.0638988 Eh            1.7388 eV
             Fermi-level           -0.3342196 Eh           -9.0946 eV

 SCC (total)                   0 d,  0 h,  0 min,  0.212 sec
 SCC setup                      ...        0 min,  0.002 sec (  1.126%)
 Dispersion                     ...        0 min,  0.001 sec (  0.363%)
 integral evaluation            ...        0 min,  0.032 sec ( 14.863%)
 zeroth order Hamiltonian       ...        0 min,  0.000 sec (  0.105%)
 iterations                     ...        0 min,  0.113 sec ( 53.254%)
 molecular gradient             ...        0 min,  0.052 sec ( 24.301%)
 printout                       ...        0 min,  0.013 sec (  5.962%)

         :::::::::::::::::::::::::::::::::::::::::::::::::::::
         ::                     SUMMARY                     ::
         :::::::::::::::::::::::::::::::::::::::::::::::::::::
         :: total energy              -84.146407326640 Eh   ::
         :: total w/o Gsasa/hb        -84.130167913360 Eh   ::
         :: gradient norm               0.248000615914 Eh/α ::
         :: HOMO-LUMO gap               1.738776029821 eV   ::
         ::.................................................::
         :: SCC energy                -85.169357388241 Eh   ::
         :: -> isotropic ES             0.325360953959 Eh   ::
         :: -> anisotropic ES          -0.010220851029 Eh   ::
         :: -> anisotropic XC           0.033224236219 Eh   ::
         :: -> dispersion              -0.047771709407 Eh   ::
         :: -> Gsolv                   -0.136058932171 Eh   ::
         ::    -> Gborn                -0.119819518891 Eh   ::
         ::    -> Gsasa                -0.003256764976 Eh   ::
         ::    -> Ghb                  -0.014840091430 Eh   ::
         ::    -> Gshift                0.001857443127 Eh   ::
         :: repulsion energy            1.022230416042 Eh   ::
         :: add. restraining            0.000000000000 Eh   ::
         :::::::::::::::::::::::::::::::::::::::::::::::::::::

           -------------------------------------------------
          |                Property Printout                |
           -------------------------------------------------

    * Orbital Energies and Occupations

         #    Occupation            Energy/Eh            Energy/eV
      -------------------------------------------------------------
         1        2.0000           -0.7427285             -20.2107
       ...           ...                  ...                  ...
        62        2.0000           -0.4579705             -12.4620
        63        2.0000           -0.4515900             -12.2884
        64        2.0000           -0.4488071             -12.2127
        65        2.0000           -0.4450419             -12.1102
        66        2.0000           -0.4386994             -11.9376
        67        2.0000           -0.4351534             -11.8411
        68        2.0000           -0.4315772             -11.7438
        69        2.0000           -0.4233426             -11.5197
        70        2.0000           -0.4072937             -11.0830
        71        2.0000           -0.4068679             -11.0714
        72        2.0000           -0.4046674             -11.0116
        73        2.0000           -0.3919943             -10.6667
        74        2.0000           -0.3661592              -9.9637 (HOMO)
        75                         -0.3022603              -8.2249 (LUMO)
        76                         -0.2953176              -8.0360
        77                         -0.2286815              -6.2227
        78                         -0.2245167              -6.1094
        79                         -0.2163032              -5.8859
        80                         -0.0762337              -2.0744
        81                         -0.0299323              -0.8145
        82                         -0.0239137              -0.6507
        83                          0.0109073               0.2968
        84                          0.0223515               0.6082
        85                          0.0234868               0.6391
       ...                                ...                  ...
       134                          0.6136830              16.6992
      -------------------------------------------------------------
                  HL-Gap            0.0638988 Eh            1.7388 eV
             Fermi-level           -0.3342196 Eh           -9.0946 eV

   #   Z        covCN         q      C6AA      α(0)
   1   7 N      3.481    -0.134    23.884     7.259
   2   6 C      3.728    -0.070    21.936     6.687
   3   6 C      2.761     0.200    23.741     7.979
   4   8 O      0.856    -0.341    20.541     6.076
   5   1 H      0.859     0.306     0.695     1.306
   6   1 H      0.859     0.310     0.685     1.297
   7   1 H      0.859     0.312     0.678     1.290
   8   1 H      0.924     0.150     1.389     1.843
   9   1 H      0.923     0.158     1.342     1.812
  10   7 N      2.632    -0.378    29.759     8.102
  11   6 C      3.734    -0.008    20.814     6.511
  12   6 C      2.756     0.255    22.704     7.803
  13   8 O      0.859    -0.477    23.287     6.470
  14   1 H      0.860     0.150     1.404     1.856
  15   1 H      0.924     0.064     2.152     2.294
  16   1 H      0.925     0.030     2.580     2.512
  17   7 N      2.756    -0.108    23.369     7.180
  18   6 C      3.831     0.012    20.352     6.419
  19   6 C      2.758     0.278    22.292     7.732
  20   8 O      0.858    -0.484    23.439     6.491
  21   6 C      3.834    -0.073    21.861     6.652
  22   6 C      3.831    -0.077    21.945     6.665
  23   6 C      3.765    -0.015    20.892     6.515
  24   1 H      0.924     0.090     1.884     2.146
  25   1 H      0.925     0.063     2.170     2.303
  26   1 H      0.925     0.081     1.969     2.195
  27   1 H      0.925     0.057     2.236     2.338
  28   1 H      0.925     0.075     2.034     2.231
  29   1 H      0.924     0.057     2.239     2.340
  30   1 H      0.924     0.072     2.059     2.244
  31   7 N      2.686    -0.164    24.553     7.359
  32   6 C      3.749    -0.035    21.270     6.578
  33   6 C      2.751     0.276    22.336     7.739
  34   8 O      0.858    -0.485    23.466     6.495
  35   1 H      0.860     0.205     1.082     1.630
  36   1 H      0.924     0.090     1.874     2.141
  37   1 H      0.924     0.089     1.887     2.148
  38   7 N      2.693    -0.167    24.620     7.369
  39   6 C      3.794     0.020    20.248     6.408
  40   6 C      2.768     0.202    23.710     7.975
  41   8 O      0.856    -0.365    21.001     6.144
  42   6 C      3.852    -0.011    20.742     6.478
  43   6 C      3.756    -0.123    22.912     6.825
  44   6 C      3.756    -0.118    22.820     6.811
  45   1 H      0.860     0.211     1.053     1.608
  46   1 H      0.924     0.092     1.860     2.133
  47   1 H      0.924     0.051     2.304     2.374
  48   1 H      0.925     0.062     2.180     2.309
  49   1 H      0.925     0.038     2.472     2.459
  50   1 H      0.925     0.054     2.271     2.357
  51   1 H      0.925     0.059     2.213     2.326
  52   1 H      0.925     0.051     2.303     2.373
  53   1 H      0.925     0.047     2.352     2.398
  54   1 H      0.930     0.108     1.716     2.049
  55   1 H      0.862     0.185     1.188     1.707
  56   1 H      0.930     0.077     2.006     2.215

 Mol. C6AA /au·bohr⁶  :      26565.503402
 Mol. C8AA /au·bohr⁸  :     582644.066919
 Mol. α(0) /au        :        242.954031


Wiberg/Mayer (AO) data.
largest (>0.10) Wiberg bond orders for each atom
          total WBO             WBO to atom ...
     1  N   3.667        C    2 0.971    H    5 0.893    H    6 0.892    H    7 0.888
     2  C   3.916        C    3 0.991    N    1 0.971    H    8 0.954    H    9 0.929
     3  C   3.899        O    4 1.932    C    2 0.991    H   54 0.947
     4  O   2.065        C    3 1.932
     5  H   0.906        N    1 0.893
     6  H   0.904        N    1 0.892
     7  H   0.903        N    1 0.888
     8  H   0.977        C    2 0.954
     9  H   0.975        C    2 0.929
    10  N   2.992        C   11 1.032    H   14 0.964    H   55 0.955
    11  C   3.990        N   10 1.032    H   16 0.959    H   15 0.956    C   12 0.954
    12  C   3.951        O   13 1.644    N   17 1.264    C   11 0.954
    13  O   1.963        C   12 1.644    N   17 0.191
    14  H   0.978        N   10 0.964
    15  H   0.996        C   11 0.956
    16  H   0.999        C   11 0.959
    17  N   3.497        C   12 1.264    C   18 0.975    C   23 0.975    O   13 0.191
    18  C   3.968        N   17 0.975    C   21 0.972    H   24 0.949    C   19 0.940
    19  C   3.942        O   20 1.659    N   31 1.266    C   18 0.940
    20  O   1.965        C   19 1.659    N   31 0.187
    21  C   3.987        C   22 1.006    H   25 0.975    C   18 0.972    H   26 0.972
    22  C   3.991        C   21 1.006    C   23 1.005    H   27 0.977    H   28 0.974
    23  C   3.965        C   22 1.005    N   17 0.975    H   29 0.968    H   30 0.964
    24  H   0.992        C   18 0.949
    25  H   0.996        C   21 0.975
    26  H   0.993        C   21 0.972
    27  H   0.997        C   22 0.977
    28  H   0.994        C   22 0.974
    29  H   0.997        C   23 0.968
    30  H   0.995        C   23 0.964
    31  N   3.442        C   19 1.266    C   32 1.005    H   35 0.922    O   20 0.187
    32  C   3.972        N   31 1.005    H   36 0.959    H   37 0.951    C   33 0.943
    33  C   3.948        O   34 1.648    N   38 1.290    C   32 0.943
    34  O   1.964        C   33 1.648    N   38 0.198
    35  H   0.958        N   31 0.922
    36  H   0.992        C   32 0.959
    37  H   0.992        C   32 0.951
    38  N   3.471        C   33 1.290    C   39 0.982    H   45 0.924    O   34 0.198
    39  C   3.963        N   38 0.982    C   40 0.978    H   46 0.949    C   42 0.935
    40  C   3.899        O   41 1.900    C   39 0.978    H   56 0.953
    41  O   2.044        C   40 1.900
    42  C   3.986        C   43 1.008    C   44 1.007    H   47 0.966    C   39 0.935
    43  C   3.992        C   42 1.008    H   50 0.985    H   49 0.984    H   48 0.983
    44  C   3.992        C   42 1.007    H   52 0.985    H   53 0.984    H   51 0.981
    45  H   0.956        N   38 0.924
    46  H   0.992        C   39 0.949
    47  H   0.997        C   42 0.966
    48  H   0.995        C   43 0.983
    49  H   0.999        C   43 0.984
    50  H   0.997        C   43 0.985
    51  H   0.997        C   44 0.981
    52  H   0.997        C   44 0.985
    53  H   0.998        C   44 0.984
    54  H   0.988        C    3 0.947
    55  H   0.966        N   10 0.955
    56  H   0.994        C   40 0.953
 
molecular dipole:
                 x           y           z       tot (Debye)
 q only:       87.203     105.881      83.622
   full:       86.635     106.414      83.268     407.983
molecular quadrupole (traceless):
                xx          xy          yy          xz          yz          zz
 q only:    -1499.666   13827.351    3919.130   10934.195   13274.425   -2419.464
  q+dip:    -1609.637   13800.842    4099.209   10817.752   13285.117   -2489.572
   full:    -1609.488   13801.276    4099.865   10818.786   13284.680   -2490.377


           -------------------------------------------------
          | TOTAL ENERGY              -84.146407326640 Eh   |
          | GRADIENT NORM               0.248000615914 Eh/α |
          | HOMO-LUMO GAP               1.738776029821 eV   |
           -------------------------------------------------

------------------------------------------------------------------------
 * finished run on 2019/05/31 at 07:36:46.823     
------------------------------------------------------------------------
 total:
 * wall-time:     0 d,  0 h,  0 min,  0.478 sec
 *  cpu-time:     0 d,  0 h,  0 min,  0.117 sec
 * ratio c/w:     0.244 speedup
 SCF:
 * wall-time:     0 d,  0 h,  0 min,  0.212 sec
 *  cpu-time:     0 d,  0 h,  0 min,  0.088 sec
 * ratio c/w:     0.412 speedup

