      -----------------------------------------------------------      
     |                   =====================                   |     
     |                           x T B                           |     
     |                   =====================                   |     
     |                         S. Grimme                         |     
     |          Mulliken Center for Theoretical Chemistry        |     
     |                    University of Bonn                     |     
     |                Version 6.1 RC1 (SAW190329)                |     
      -----------------------------------------------------------      

   This program is distributed in the hope that it will be useful,
   but WITHOUT ANY WARRANTY; without even the implied warranty of
   MERCHANTABILITY or FITNESS FOR A PARTICULAR PURPOSE.
   
   FOR NON-COMMERCIAL, ACADEMIA USE ONLY.
   
   Cite this work as:
   S. Grimme, C. Bannwarth, P. Shushkov, J. Comput. Theory Chem., 2017,
   13, 1989-2009. DOI: 10.1021/acs.jctc.7b00118
   C. Bannwarth, S. Ehlert and S. Grimme., J. Comput. Theory Chem., 2019,
   just accepted. DOI: 10.1021/acs.jctc.8b01176
   
   for sTDA-xTB:
   S. Grimme and C. Bannwarth, J. Chem. Phys., 2016, 145, 054103.
   DOI: 10.1063/1.4959605
   
   in the mass-spec context:
   V. Asgeirsson, C. Bauer and S. Grimme, Chem. Sci., 2017, 8, 4879.
   DOI: 10.1039/c7sc00601b
   
   for metadynamics refer to:
   S. Grimme, ChemRxiv, Preprint. DOI: 10.26434/chemrxiv.7660532.v1
   
   with help from (in alphabetical order)
   C. Bannwarth, F. Bohle, G. Brandenburg, E. Caldeweyher, M. Checinski,
   S. Dohm, S. Ehlert, S. Ehrlich, F. März, H. Neugebauer, J. Pisarek,
   P. Pracht, P. Shushkov, and S. Spicher.
   
 * started run on 2019/05/31 at 04:12:51.184     

           -------------------------------------------------
          |                Calculation Setup                |
           -------------------------------------------------

          program call               : /home/lum/install/xtb/xtb-190329/bin/xtb xtb_tmp.xyz --chrg 0 --grad --gfn 2 --etemp 500 --acc 0.1 --gbsa h2o --parallel 1
          hostname                   : cu08
          coordinate file            : xtb_tmp.xyz
          omp threads                :                     1
          number of atoms            :                   405
          number of electrons        :                  1068
          charge                     :                     0
          spin                       :                   0.0
          first test random number   :      0.43214643268494


molecular fragmentation (1/2 indicates fragments):
111111111111111111122222222222222222222222222222222222222222222222222222
222222222222222222222222222222222222222222222222222222222222222222222222
222222222222222222222222222222222222222222222222222222222222222222222222
222222222222222222222222222222222222222222222222222222222222222222222222
222222222222222222222222222222222222222222222222222222222222222222222222
222222222222222222222222222221122222222222222
# atoms in fragment 1/2:    21   384
 fragment masses (1/2) :      115.17     2586.18
CMA distance (Bohr)    :  19.533
constraining FC (au)   :  0.0500

########################################################################
# WARNING! Please study the warnings concerning your input carefully
#  - XTBPATH is not set, using XTBHOME instead
########################################################################

           ------------------------------------------------- 
          |                 G F N 2 - x T B                 |
          | Geometry, Frequencies, Noncovalent interactions |
          |            JCTC 2018 parametrisation            |
           ------------------------------------------------- 
 
             k(s)              :                1.8500
             k(p)              :                2.2300
             k(d)              :                2.2300
             k(f)              :                2.0000
             kEN (H0ij)        :               -2.0000
             D4 a1             :                0.5200
             D4 a2             :                5.0000
             D4 s6             :                1.0000
             D4 s8             :                2.7000
             D4 s9             :                5.0000
             alphaj            :                2.0000

  Z AO/shell   Hii/eV     exponent
  1     Wed Apr 25 08:07:45 CEST 2018   EN: 2.200 GM2: 0.406  GM3: 0.0800  RAES: 1.40
     1s    -10.707211    1.230000
  6     Wed Apr 25 08:07:45 CEST 2018   EN: 2.550 GM2: 0.538  GM3: 0.1500  RAES: 3.00
     2s    -13.970922    2.096432
     2p    -10.063292    1.800000
  7     Wed Apr 25 08:07:45 CEST 2018   EN: 3.040 GM2: 0.461  GM3:-0.0640  RAES: 1.90
     2s    -16.686243    2.339881
     2p    -12.523956    2.014332
  8     Wed Apr 25 08:07:45 CEST 2018   EN: 3.440 GM2: 0.452  GM3:-0.0517  RAES: 1.80
     2s    -20.229985    2.439742
     2p    -15.503117    2.137023
 16     Tue Apr 24 11:44:34 CEST 2018   EN: 2.580 GM2: 0.340  GM3:-0.0502  RAES: 3.10
     3s    -20.029654    1.981333
     3p    -11.377694    2.025643
     3d     -0.420282    1.702555

 Solvent             : h2o
 Using internal parameter file: .param_gbsa2_h2o
 Gsolv ref. state (COSMO-RS): gsolv [1 M gas/solution]
 temperature (mdtemp)       :    298.150000000000     
 dielectric constant        :    80.2000000000000     
 rho                        :    1.00000000000000     
 mass                       :    18.0000000000000     
 surface tension            :    15.5689454083859     
 probe radius               :   0.975313790000000     
 vdW radii scaling          :    1.00000000000000     
 Gshift (Eh)                :   1.857443126794793E-003
 c1                         :    1.55243817000000     
 soset                      :   0.130326360000000     
 HB correction              :  T
 Number of grid points      :          230

            Z     q(EN)     CN     RAES       Cart. coordinates
     1  N   5.0   -0.72    3.00    1.93    30.75480    23.28598    41.92467
     2  C   4.0    0.07    3.98    3.59    32.94761    24.82157    41.33381
     3  C   4.0    0.07    3.00    3.02    35.09710    23.06432    40.52186
     4  O   6.0   -0.46    1.00    1.80    36.18513    23.33364    38.49399
     5  C   4.0   -0.09    3.98    3.58    33.75891    26.51651    43.53960
     6  C   4.0   -0.16    3.98    3.58    31.61834    28.25974    44.44635
     7  C   4.0   -0.22    3.98    3.59    36.10981    28.01310    42.77388
     8  C   4.0   -0.24    3.98    3.58    30.62921    30.10829    42.47120
     9  H   1.0    0.25    1.00    1.43    30.00297    23.32236    43.68307
    10  H   1.0    0.11    0.99    1.43    32.51057    25.96006    39.65630
    11  H   1.0    0.11    0.99    1.43    34.26116    25.25730    45.10359
    12  H   1.0    0.10    0.99    1.43    30.04616    27.09819    45.10488
    13  H   1.0    0.10    0.99    1.43    32.33555    29.33306    46.05520
    14  H   1.0    0.10    0.99    1.43    36.66838    29.28694    44.28238
    15  H   1.0    0.12    0.99    1.43    37.66666    26.73503    42.36952
    16  H   1.0    0.11    0.99    1.43    35.75686    29.10972    41.07505
    17  H   1.0    0.10    0.99    1.43    29.13690    31.25786    43.29077
    18  H   1.0    0.10    0.99    1.43    32.12028    31.34649    41.79685
    19  H   1.0    0.09    0.99    1.43    29.84247    29.10161    40.86425
    20  N   5.0   -0.69    3.00    1.93    35.27467    20.63150    33.77387
    21  C   4.0    0.07    3.98    3.58    36.10894    22.33848    31.80287
    22  C   4.0    0.08    3.00    3.02    38.81408    21.73964    30.95808
    23  O   6.0   -0.39    1.00    1.80    39.41167    21.66956    28.71979
    24  C   4.0   -0.21    3.99    3.60    35.98769    25.04715    32.77235
    25  H   1.0    0.30    1.00    1.43    34.65058    21.37873    35.42093
    26  H   1.0    0.12    0.99    1.43    34.89917    22.07930    30.13535
    27  H   1.0    0.10    0.99    1.43    37.07801    26.29179    31.55663
    28  H   1.0    0.09    0.99    1.43    34.03020    25.66168    32.83111
    29  H   1.0    0.14    0.99    1.43    36.76570    25.10847    34.67023
    30  N   5.0   -0.72    3.00    1.93    56.09165    35.48941    26.65262
    31  C   4.0    0.06    3.98    3.59    54.16167    36.23456    28.44024
    32  C   4.0    0.08    3.00    3.02    55.40218    37.48542    30.73620
    33  O   6.0   -0.46    1.00    1.80    54.67637    39.52719    31.56211
    34  C   4.0   -0.13    3.99    3.60    52.60055    33.92851    29.24097
    35  C   4.0   -0.03    3.03    3.02    50.45396    34.72919    30.91413
    36  C   4.0   -0.10    3.03    3.02    48.11804    35.31223    29.86751
    37  C   4.0   -0.08    3.03    3.02    50.77845    34.98647    33.50591
    38  C   4.0   -0.11    3.03    3.02    46.15064    36.13500    31.38011
    39  C   4.0   -0.10    3.03    3.02    48.81957    35.82553    35.01946
    40  C   4.0   -0.11    3.03    3.02    46.49904    36.40445    33.95958
    41  H   1.0    0.25    1.00    1.43    55.95939    33.74687    25.86934
    42  H   1.0    0.11    0.99    1.43    52.90903    37.65468    27.57918
    43  H   1.0    0.10    0.99    1.43    51.86769    33.01462    27.53793
    44  H   1.0    0.11    0.99    1.43    53.83798    32.58701    30.19931
    45  H   1.0    0.10    0.99    1.43    47.84799    35.09050    27.85084
    46  H   1.0    0.11    1.00    1.43    52.58412    34.53122    34.33492
    47  H   1.0    0.11    1.00    1.43    44.34396    36.57615    30.53921
    48  H   1.0    0.11    1.00    1.43    49.09513    36.03505    37.02907
    49  H   1.0    0.10    1.00    1.43    44.96410    37.05722    35.13339
    50  N   5.0   -0.70    3.00    1.93    57.84216    44.08223    29.46032
    51  C   4.0    0.07    3.99    3.60    55.92098    45.97173    29.02634
    52  C   4.0    0.28    3.01    3.02    54.60227    46.69825    31.47790
    53  O   6.0   -0.42    1.00    1.80    53.97913    48.91620    31.88097
    54  C   4.0   -0.15    3.98    3.59    53.99621    45.09105    27.05470
    55  C   4.0   -0.16    3.98    3.59    52.41028    47.29052    26.05084
    56  C   4.0   -0.15    3.98    3.58    53.90523    48.98581    24.24714
    57  C   4.0   -0.05    3.98    3.58    52.37311    51.29883    23.41703
    58  N   5.0   -0.72    3.98    2.81    53.60237    53.67934    24.28273
    59  H   1.0    0.27    1.00    1.43    57.73156    42.40748    28.53782
    60  H   1.0    0.11    0.99    1.43    56.87128    47.69653    28.37217
    61  H   1.0    0.11    0.99    1.43    55.00250    44.19199    25.49612
    62  H   1.0    0.12    0.99    1.43    52.77790    43.66676    27.91498
    63  H   1.0    0.11    0.99    1.43    50.77504    46.54231    25.04390
    64  H   1.0    0.13    0.99    1.43    51.70265    48.39916    27.63838
    65  H   1.0    0.11    0.99    1.43    55.62412    49.61849    25.18545
    66  H   1.0    0.10    0.99    1.43    54.44629    47.85660    22.61614
    67  H   1.0    0.12    0.99    1.43    52.16680    51.36949    21.37092
    68  H   1.0    0.13    0.99    1.43    50.46813    51.20112    24.19404
    69  H   1.0    0.25    1.00    1.43    52.49397    55.20694    23.83149
    70  H   1.0    0.24    0.99    1.43    53.85668    53.65677    26.25785
    71  H   1.0    0.24    1.00    1.43    55.33640    53.88143    23.42678
    72  N   5.0   -0.48    3.01    1.93    54.14188    44.84591    33.09140
    73  C   4.0    0.06    3.99    3.60    52.77922    45.20918    35.45232
    74  C   4.0    0.10    3.00    3.02    53.52636    47.72375    36.66328
    75  O   6.0   -0.47    1.00    1.80    51.95108    49.31714    37.26335
    76  C   4.0   -0.14    3.98    3.59    53.33015    42.91668    37.13732
    77  C   4.0   -0.10    3.97    3.58    51.93474    42.80174    39.67891
    78  C   4.0   -0.22    3.98    3.59    52.93351    44.70239    41.60664
    79  C   4.0   -0.23    3.98    3.59    49.08348    43.10631    39.35105
    80  H   1.0    0.29    1.00    1.43    54.58797    43.03403    32.63388
    81  H   1.0    0.12    0.99    1.43    50.74742    45.32949    35.05308
    82  H   1.0    0.12    0.99    1.43    52.78648    41.25915    36.03118
    83  H   1.0    0.11    0.99    1.43    55.36518    42.80928    37.45590
    84  H   1.0    0.10    0.99    1.43    52.28559    40.90780    40.43430
    85  H   1.0    0.10    0.99    1.43    52.07589    44.33986    43.43735
    86  H   1.0    0.10    0.99    1.43    54.97285    44.55040    41.78420
    87  H   1.0    0.13    0.99    1.43    52.44496    46.61901    41.06195
    88  H   1.0    0.09    0.99    1.43    48.11562    42.68978    41.11483
    89  H   1.0    0.11    0.99    1.43    48.61283    45.03609    38.82297
    90  H   1.0    0.09    0.99    1.43    48.37059    41.82754    37.90646
    91  N   5.0   -0.67    3.00    1.93    50.32430    53.89452    34.72606
    92  C   4.0    0.07    3.98    3.59    47.62835    54.40512    34.77691
    93  C   4.0    0.07    3.00    3.02    47.06991    56.44490    36.75152
    94  O   6.0   -0.38    1.00    1.80    48.06655    56.43026    38.84438
    95  C   4.0   -0.09    3.98    3.58    46.08837    51.98204    35.24574
    96  C   4.0   -0.20    3.98    3.59    46.17316    51.10922    37.98865
    97  C   4.0   -0.24    3.98    3.59    43.34442    52.38608    34.44793
    98  H   1.0    0.33    1.00    1.43    50.97269    52.36847    35.68977
    99  H   1.0    0.10    0.99    1.43    47.14161    55.13898    32.90623
   100  H   1.0    0.11    0.99    1.43    46.93689    50.52042    34.04857
   101  H   1.0    0.09    0.99    1.43    45.20048    49.30775    38.16353
   102  H   1.0    0.15    0.99    1.43    48.10673    50.89153    38.63432
   103  H   1.0    0.12    0.99    1.43    45.23015    52.48059    39.19139
   104  H   1.0    0.09    0.99    1.43    42.28515    50.64041    34.67320
   105  H   1.0    0.10    0.99    1.43    42.47874    53.80936    35.65180
   106  H   1.0    0.10    0.99    1.43    43.21199    52.97614    32.48344
   107  N   5.0   -0.72    3.00    1.92    31.36704    42.69869    48.60793
   108  C   4.0    0.00    3.98    3.59    33.19191    41.08669    47.37812
   109  C   4.0    0.28    3.01    3.02    32.17337    39.98238    44.92479
   110  O   6.0   -0.49    1.00    1.80    33.45827    39.97121    42.98676
   111  H   1.0    0.26    1.00    1.43    30.96397    42.34844    50.44759
   112  H   1.0    0.10    0.99    1.43    34.90426    42.15602    46.91695
   113  H   1.0    0.10    0.99    1.43    33.66245    39.54667    48.66214
   114  N   5.0   -0.48    3.01    1.93    29.86870    38.98864    45.03491
   115  C   4.0    0.06    4.00    3.61    28.66972    37.95371    42.79399
   116  C   4.0    0.30    3.01    3.02    28.74068    39.88437    40.62951
   117  O   6.0   -0.45    1.00    1.80    29.47858    39.32112    38.50628
   118  C   4.0   -0.22    3.98    3.59    25.94716    37.23036    43.37963
   119  H   1.0    0.24    1.00    1.43    28.90243    38.94139    46.69126
   120  H   1.0    0.12    0.99    1.43    29.74036    36.29877    42.14194
   121  H   1.0    0.11    0.99    1.43    24.98017    36.66562    41.65864
   122  H   1.0    0.10    0.99    1.43    25.90549    35.67067    44.71389
   123  H   1.0    0.11    0.99    1.43    24.95598    38.83505    44.19576
   124  N   5.0   -0.48    3.01    1.93    27.88837    42.17166    41.24667
   125  C   4.0    0.06    3.99    3.61    27.69111    44.20924    39.42740
   126  C   4.0    0.30    3.01    3.02    30.31219    44.83758    38.35167
   127  O   6.0   -0.42    1.00    1.80    30.73825    44.98968    36.07645
   128  C   4.0   -0.14    3.98    3.59    26.57107    46.55696    40.68866
   129  C   4.0   -0.11    3.98    3.58    23.91777    46.14392    41.73706
   130  C   4.0    0.31    2.99    3.02    23.02643    48.52147    43.21164
   131  O   6.0   -0.38    1.00    1.80    24.50689    49.34737    44.87373
   132  O   6.0   -0.37    1.00    1.80    20.93891    49.43902    42.67088
   133  H   1.0    0.24    1.00    1.43    27.31624    42.53122    43.03529
   134  H   1.0    0.13    0.99    1.43    26.50044    43.59789    37.84095
   135  H   1.0    0.13    0.99    1.43    27.79590    47.12345    42.24833
   136  H   1.0    0.13    0.99    1.43    26.52351    48.07768    39.29419
   137  H   1.0    0.12    0.99    1.43    22.56123    45.75092    40.23497
   138  H   1.0    0.11    0.99    1.43    23.89670    44.57561    43.07968
   139  N   5.0   -0.48    3.01    1.93    32.04872    45.24181    40.12214
   140  C   4.0    0.07    3.99    3.61    34.65842    45.85935    39.56587
   141  C   4.0    0.30    3.01    3.02    35.70261    44.00172    37.61572
   142  O   6.0   -0.47    1.00    1.80    36.89697    44.69928    35.75484
   143  C   4.0   -0.14    3.99    3.60    36.15381    45.73376    42.04067
   144  C   4.0   -0.11    3.98    3.58    38.93913    46.49626    41.81596
   145  C   4.0   -0.23    3.98    3.59    39.21328    49.32693    41.34556
   146  C   4.0   -0.23    3.98    3.59    40.31895    45.75052    44.24112
   147  H   1.0    0.24    1.00    1.43    31.56599    45.07063    41.97209
   148  H   1.0    0.12    0.99    1.43    34.75199    47.75077    38.72185
   149  H   1.0    0.10    0.99    1.43    35.21290    46.95861    43.41114
   150  H   1.0    0.13    0.99    1.43    36.03276    43.79399    42.72971
   151  H   1.0    0.12    0.99    1.43    39.76817    45.46772    40.22358
   152  H   1.0    0.09    0.99    1.43    41.19446    49.84058    41.20676
   153  H   1.0    0.10    0.99    1.43    38.29801    49.87246    39.59218
   154  H   1.0    0.10    0.99    1.43    38.36826    50.38898    42.88720
   155  H   1.0    0.10    0.99    1.43    42.28377    46.33334    44.15868
   156  H   1.0    0.10    0.99    1.43    39.44128    46.65920    45.86140
   157  H   1.0    0.10    0.99    1.43    40.25173    43.71704    44.52235
   158  N   5.0   -0.47    3.01    1.93    35.27425    41.58738    38.18148
   159  C   4.0    0.09    3.99    3.61    36.18820    39.51067    36.64838
   160  C   4.0    0.29    3.01    3.02    35.20893    39.83089    33.95741
   161  O   6.0   -0.46    1.00    1.80    36.62971    39.89994    32.12873
   162  C   4.0    0.04    3.98    3.58    35.33743    36.96714    37.81801
   163  O   6.0   -0.50    1.99    1.82    36.47479    36.58932    40.19180
   164  C   4.0   -0.21    3.98    3.59    36.08579    34.77182    36.11304
   165  H   1.0    0.30    1.00    1.43    34.32069    41.14015    39.78149
   166  H   1.0    0.12    0.99    1.43    38.26109    39.57027    36.57525
   167  H   1.0    0.14    0.99    1.43    33.26844    37.02179    38.01464
   168  H   1.0    0.30    0.99    1.43    35.70752    37.71214    41.41944
   169  H   1.0    0.10    0.99    1.43    35.48966    33.00446    36.96709
   170  H   1.0    0.10    0.99    1.43    35.19537    34.96697    34.27981
   171  H   1.0    0.11    0.99    1.43    38.12532    34.72757    35.89058
   172  N   5.0   -0.48    3.01    1.93    32.70774    40.05635    33.76130
   173  C   4.0    0.07    3.99    3.61    31.50332    40.37668    31.31823
   174  C   4.0    0.30    3.01    3.02    32.86104    42.42592    29.79492
   175  O   6.0   -0.46    1.00    1.80    33.37510    42.13413    27.55397
   176  C   4.0   -0.21    3.98    3.59    28.72558    41.05044    31.67615
   177  H   1.0    0.29    1.00    1.43    31.58049    39.98318    35.30870
   178  H   1.0    0.11    0.99    1.43    31.68129    38.61237    30.23708
   179  H   1.0    0.11    0.99    1.43    27.79348    41.19943    29.85455
   180  H   1.0    0.11    0.99    1.43    27.81535    39.57247    32.77478
   181  H   1.0    0.14    0.99    1.43    28.56402    42.82620    32.69683
   182  N   5.0   -0.46    3.01    1.93    33.30144    44.57265    31.03802
   183  C   4.0    0.09    4.00    3.61    34.58469    46.68320    29.84746
   184  C   4.0    0.29    3.01    3.02    37.07700    45.82575    28.62938
   185  O   6.0   -0.44    1.00    1.80    37.48429    46.13647    26.37170
   186  C   4.0   -0.10    3.99    3.60    35.06445    48.78184    31.76906
   187  C   4.0    0.29    3.00    3.02    32.65056    50.17247    32.48325
   188  O   6.0   -0.43    1.00    1.80    30.58280    49.66230    31.59318
   189  N   5.0   -0.65    3.00    1.93    32.98689    52.06141    34.12534
   190  H   1.0    0.31    1.00    1.43    32.74672    44.75950    32.86315
   191  H   1.0    0.15    0.99    1.43    33.41762    47.41466    28.29630
   192  H   1.0    0.14    0.99    1.43    35.90598    47.96750    33.46926
   193  H   1.0    0.10    0.99    1.43    36.39409    50.14212    30.97091
   194  H   1.0    0.28    1.00    1.43    31.48514    53.08129    34.70449
   195  H   1.0    0.25    1.00    1.43    34.70210    52.49416    34.81789
   196  N   5.0   -0.48    3.01    1.93    38.75652    44.82659    30.21905
   197  C   4.0    0.08    4.00    3.63    41.25548    44.15350    29.31702
   198  C   4.0    0.29    3.01    3.02    41.02259    42.33564    27.08028
   199  O   6.0   -0.46    1.00    1.80    42.29358    42.53987    25.14539
   200  C   4.0   -0.09    3.98    3.58    42.88950    42.97321    31.41065
   201  C   4.0   -0.23    3.98    3.59    45.56295    42.55223    30.40513
   202  C   4.0   -0.23    3.98    3.59    42.99122    44.66331    33.74891
   203  H   1.0    0.29    1.00    1.43    38.27921    44.44633    32.03353
   204  H   1.0    0.12    0.99    1.43    42.18087    45.86745    28.59514
   205  H   1.0    0.12    0.99    1.43    42.04657    41.15422    31.92146
   206  H   1.0    0.11    0.99    1.43    46.70069    41.54437    31.78497
   207  H   1.0    0.12    0.99    1.43    45.53784    41.46005    28.66633
   208  H   1.0    0.10    0.99    1.43    46.45398    44.36035    30.00257
   209  H   1.0    0.09    0.99    1.43    44.30476    43.86184    35.10929
   210  H   1.0    0.10    0.99    1.43    43.65379    46.53894    33.23795
   211  H   1.0    0.13    0.99    1.43    41.15717    44.83056    34.65565
   212  N   5.0   -0.48    3.01    1.93    39.38245    40.45654    27.44155
   213  C   4.0    0.07    4.00    3.61    39.05255    38.51960    25.54344
   214  C   4.0    0.29    3.02    3.02    38.28861    39.67183    23.01457
   215  O   6.0   -0.46    1.00    1.80    39.44437    39.13617    21.06861
   216  C   4.0   -0.14    3.99    3.60    37.05759    36.58889    26.33458
   217  C   4.0   -0.10    3.98    3.58    37.83917    34.89155    28.55131
   218  C   4.0   -0.24    3.99    3.60    35.58005    33.25379    29.28863
   219  C   4.0   -0.23    3.98    3.59    40.08432    33.20552    27.89078
   220  H   1.0    0.30    1.00    1.43    38.34329    40.34253    29.04957
   221  H   1.0    0.12    0.99    1.43    40.88327    37.59853    25.21409
   222  H   1.0    0.13    0.99    1.43    35.34942    37.62525    26.84297
   223  H   1.0    0.10    0.99    1.43    36.63864    35.40240    24.70000
   224  H   1.0    0.13    0.99    1.43    38.33993    36.09442    30.15512
   225  H   1.0    0.09    0.99    1.43    36.06739    32.01096    30.84771
   226  H   1.0    0.10    0.99    1.43    33.98865    34.42417    29.85265
   227  H   1.0    0.09    0.99    1.43    35.00287    32.09134    27.69800
   228  H   1.0    0.10    0.99    1.43    40.55740    32.00033    29.48488
   229  H   1.0    0.11    0.99    1.43    39.63370    31.99942    26.28841
   230  H   1.0    0.10    0.99    1.43    41.75182    34.30987    27.42686
   231  N   5.0   -0.48    3.00    1.93    36.23787    41.12491    22.98421
   232  C   4.0    0.08    4.00    3.63    35.35767    42.03799    20.56246
   233  C   4.0    0.29    3.01    3.02    37.21022    43.90961    19.33675
   234  O   6.0   -0.43    1.00    1.80    37.25617    44.14277    17.03771
   235  C   4.0   -0.15    3.98    3.59    32.67012    43.08222    20.67491
   236  C   4.0   -0.13    3.98    3.58    32.40806    45.57141    22.10731
   237  C   4.0   -0.04    3.99    3.60    29.65265    46.46897    21.94275
   238  N   5.0   -0.48    3.01    1.93    29.21296    48.80926    23.29630
   239  C   4.0    0.38    3.01    3.02    28.90832    49.00157    25.78357
   240  N   5.0   -0.64    3.02    1.93    28.74762    46.96176    27.25382
   241  N   5.0   -0.64    3.02    1.93    28.59689    51.26206    26.83367
   242  H   1.0    0.30    1.00    1.43    35.32500    41.63450    24.59406
   243  H   1.0    0.13    0.99    1.43    35.35655    40.41478    19.26387
   244  H   1.0    0.11    0.99    1.43    32.05674    43.35317    18.72593
   245  H   1.0    0.11    0.99    1.43    31.47637    41.64829    21.55109
   246  H   1.0    0.15    0.99    1.43    32.98896    45.30769    24.06633
   247  H   1.0    0.13    0.99    1.43    33.64987    46.98816    21.27016
   248  H   1.0    0.11    0.99    1.43    29.17613    46.80022    19.96659
   249  H   1.0    0.12    0.99    1.43    28.38376    45.00937    22.66106
   250  H   1.0    0.24    1.00    1.43    29.43722    50.42137    22.30010
   251  H   1.0    0.27    1.00    1.43    29.25348    45.24952    26.59634
   252  H   1.0    0.31    1.00    1.43    28.75638    47.23751    29.14912
   253  H   1.0    0.27    1.00    1.43    28.62914    52.85771    25.80086
   254  H   1.0    0.31    1.00    1.43    28.54209    51.38073    28.74069
   255  N   5.0   -0.47    3.00    1.93    38.71620    45.18670    20.91281
   256  C   4.0    0.08    4.00    3.61    40.58539    46.97446    20.00397
   257  C   4.0    0.30    3.01    3.02    42.70238    45.70168    18.49572
   258  O   6.0   -0.40    1.00    1.80    43.29646    46.41801    16.38367
   259  C   4.0   -0.10    3.98    3.59    41.76807    48.38243    22.21422
   260  C   4.0    0.32    2.99    3.02    43.97343    50.09215    21.21143
   261  O   6.0   -0.38    1.00    1.80    43.35053    52.11963    20.19928
   262  O   6.0   -0.42    1.00    1.80    46.15722    49.28537    21.54127
   263  H   1.0    0.30    1.00    1.43    38.48519    45.07199    22.81114
   264  H   1.0    0.15    0.99    1.43    39.69200    48.31773    18.69472
   265  H   1.0    0.13    0.99    1.43    40.34500    49.56602    23.11846
   266  H   1.0    0.14    0.99    1.43    42.52679    47.03330    23.57558
   267  N   5.0   -0.48    3.00    1.93    43.84682    43.77159    19.69701
   268  C   4.0    0.07    3.99    3.61    46.17581    42.69906    18.75478
   269  C   4.0    0.26    3.01    3.02    46.04589    39.84054    18.33758
   270  O   6.0   -0.43    1.00    1.80    47.43715    38.77282    16.83018
   271  C   4.0   -0.14    4.00    3.62    48.42072    43.30492    20.51456
   272  C   4.0   -0.13    3.98    3.58    50.92779    42.70041    19.21381
   273  S   6.0   -0.16    2.01    3.10    53.20096    41.03750    21.19358
   274  C   4.0   -0.20    3.98    3.58    51.51988    38.14031    21.79163
   275  H   1.0    0.28    1.00    1.43    43.38325    43.49881    21.53279
   276  H   1.0    0.15    0.99    1.43    46.50288    43.58890    16.91129
   277  H   1.0    0.14    0.99    1.43    48.29227    45.30659    21.00673
   278  H   1.0    0.12    0.99    1.43    48.18251    42.21625    22.25438
   279  H   1.0    0.14    0.99    1.43    50.59925    41.47821    17.58943
   280  H   1.0    0.11    0.99    1.43    51.87250    44.41790    18.60283
   281  H   1.0    0.10    0.99    1.43    52.81292    36.76727    22.59152
   282  H   1.0    0.10    0.99    1.43    49.98987    38.46694    23.12412
   283  H   1.0    0.14    0.99    1.43    50.74862    37.41666    20.03259
   284  N   5.0   -0.49    3.00    1.93    44.43325    38.60048    19.84748
   285  C   4.0    0.02    3.99    3.61    43.99196    35.91686    19.59448
   286  C   4.0    0.29    3.00    3.02    42.73521    35.24874    17.07621
   287  O   6.0   -0.44    1.00    1.80    43.40822    33.42474    15.82161
   288  H   1.0    0.29    1.00    1.43    43.16210    39.61530    20.84897
   289  H   1.0    0.12    0.99    1.43    45.78742    34.89627    19.73083
   290  H   1.0    0.11    0.99    1.43    42.76509    35.30716    21.13374
   291  N   5.0   -0.48    3.01    1.93    40.79124    36.74702    16.46382
   292  C   4.0    0.07    3.99    3.60    39.63243    36.81151    13.97412
   293  C   4.0    0.28    3.01    3.02    38.55544    34.22764    13.19255
   294  O   6.0   -0.42    1.00    1.80    38.66497    33.44967    11.03025
   295  C   4.0   -0.11    3.99    3.60    41.49457    37.73021    11.95737
   296  C   4.0   -0.09    3.98    3.58    42.43569    40.43691    12.35386
   297  C   4.0   -0.21    3.98    3.59    44.62328    40.95375    10.54372
   298  C   4.0   -0.20    3.98    3.59    40.35532    42.39312    11.96215
   299  H   1.0    0.29    1.00    1.43    40.35243    38.16715    17.67053
   300  H   1.0    0.11    0.99    1.43    38.03415    38.12023    14.08496
   301  H   1.0    0.15    0.99    1.43    43.10596    36.44005    11.96567
   302  H   1.0    0.12    0.99    1.43    40.57425    37.57185    10.12053
   303  H   1.0    0.16    0.99    1.43    43.14817    40.62804    14.29101
   304  H   1.0    0.12    0.99    1.43    45.31509    42.87094    10.80793
   305  H   1.0    0.12    0.99    1.43    46.17297    39.64895    10.89350
   306  H   1.0    0.11    0.99    1.43    44.00183    40.73899     8.59696
   307  H   1.0    0.14    0.99    1.43    41.13578    44.28059    12.19897
   308  H   1.0    0.11    0.99    1.43    39.55725    42.23373    10.07586
   309  H   1.0    0.14    0.99    1.43    38.85394    42.20630    13.34939
   310  N   5.0   -0.46    3.01    1.93    37.33526    32.97973    15.04585
   311  C   4.0    0.06    3.99    3.60    36.33046    30.46910    14.67295
   312  C   4.0    0.07    3.00    3.02    33.53156    30.39212    15.38358
   313  O   6.0   -0.44    1.00    1.80    32.75158    31.30405    17.35878
   314  C   4.0   -0.13    3.99    3.60    37.69789    28.53594    16.35560
   315  C   4.0   -0.10    3.99    3.59    40.43691    28.10656    15.53013
   316  C   4.0    0.28    3.00    3.02    41.95480    27.15835    17.78077
   317  O   6.0   -0.39    1.00    1.80    41.48894    25.16496    18.85197
   318  N   5.0   -0.65    3.00    1.93    43.78517    28.74252    18.51877
   319  H   1.0    0.26    1.00    1.43    37.39086    33.64931    16.83006
   320  H   1.0    0.14    0.99    1.43    36.61164    30.02092    12.67533
   321  H   1.0    0.13    0.99    1.43    37.67309    29.24555    18.29420
   322  H   1.0    0.10    0.99    1.43    36.68957    26.74013    16.32450
   323  H   1.0    0.12    0.99    1.43    40.51145    26.69357    14.03363
   324  H   1.0    0.16    0.99    1.43    41.26181    29.85956    14.83862
   325  H   1.0    0.30    1.00    1.43    44.07539    30.40702    17.61003
   326  H   1.0    0.28    1.00    1.43    44.84989    28.34220    20.04601
   327  N   5.0   -0.70    3.00    1.93    30.45072    26.29169    17.83815
   328  C   4.0    0.07    3.98    3.59    30.02943    25.22986    20.32551
   329  C   4.0    0.28    3.01    3.02    29.52003    27.27268    22.31129
   330  O   6.0   -0.47    1.00    1.80    28.29558    26.72418    24.20457
   331  C   4.0   -0.14    4.00    3.62    32.19784    23.49155    21.14618
   332  C   4.0   -0.12    3.97    3.58    34.77403    24.80215    21.26422
   333  S   6.0   -0.08    2.01    3.10    36.34181    24.51019    24.32212
   334  C   4.0   -0.20    3.98    3.58    34.40507    26.70193    26.12597
   335  H   1.0    0.25    1.00    1.43    31.87933    25.58852    16.79132
   336  H   1.0    0.11    0.99    1.43    28.29483    24.08404    20.28357
   337  H   1.0    0.12    0.99    1.43    31.70362    22.73894    23.00236
   338  H   1.0    0.10    0.99    1.43    32.28075    21.89121    19.85028
   339  H   1.0    0.12    0.99    1.43    36.11835    23.97150    19.94619
   340  H   1.0    0.13    0.99    1.43    34.61534    26.81810    20.88334
   341  H   1.0    0.10    1.00    1.43    35.22668    26.78635    27.99640
   342  H   1.0    0.11    0.99    1.43    34.50369    28.54161    25.22575
   343  H   1.0    0.13    0.99    1.43    32.47018    26.03172    26.23140
   344  N   5.0   -0.49    3.00    1.93    30.44281    29.58723    21.95930
   345  C   4.0    0.06    3.99    3.61    29.82685    31.57199    23.76010
   346  C   4.0    0.10    3.00    3.02    26.98075    31.64748    24.29153
   347  O   6.0   -0.47    1.00    1.80    26.17992    31.94679    26.44099
   348  C   4.0   -0.21    3.98    3.59    30.70348    34.12342    22.76136
   349  H   1.0    0.30    1.00    1.43    31.31890    30.11477    20.33189
   350  H   1.0    0.12    0.99    1.43    30.73828    31.13954    25.57338
   351  H   1.0    0.11    0.99    1.43    30.21443    35.59237    24.10647
   352  H   1.0    0.11    0.99    1.43    32.73899    34.10359    22.49546
   353  H   1.0    0.13    0.99    1.43    29.80471    34.51604    20.95805
   354  N   5.0   -0.69    3.00    1.93    24.50455    26.42448    28.11415
   355  C   4.0    0.07    3.99    3.60    24.99726    26.85414    30.77161
   356  C   4.0    0.28    3.02    3.02    22.93733    28.59259    31.79927
   357  O   6.0   -0.40    1.00    1.80    21.65768    28.05531    33.66699
   358  C   4.0   -0.14    3.99    3.60    27.61158    28.02014    31.15353
   359  C   4.0   -0.10    3.98    3.58    27.99780    28.98758    33.85796
   360  C   4.0   -0.22    3.98    3.59    27.78808    26.84790    35.77962
   361  C   4.0   -0.24    3.98    3.59    30.53180    30.34179    34.09700
   362  H   1.0    0.32    1.00    1.43    25.92396    26.70688    26.86068
   363  H   1.0    0.11    0.99    1.43    24.83959    25.04774    31.77653
   364  H   1.0    0.10    0.99    1.43    29.02535    26.58995    30.69753
   365  H   1.0    0.14    0.99    1.43    27.81443    29.58583    29.82682
   366  H   1.0    0.13    0.99    1.43    26.50457    30.36007    34.25758
   367  H   1.0    0.09    0.99    1.43    28.15668    27.54687    37.67425
   368  H   1.0    0.12    0.99    1.43    25.89683    26.04555    35.78327
   369  H   1.0    0.10    0.99    1.43    29.12569    25.34071    35.37344
   370  H   1.0    0.10    0.99    1.43    30.71191    31.16638    35.96768
   371  H   1.0    0.09    0.99    1.43    32.08261    29.02856    33.81143
   372  H   1.0    0.10    0.99    1.43    30.67378    31.83247    32.69537
   373  N   5.0   -0.48    3.01    1.93    22.69027    30.76473    30.55621
   374  C   4.0    0.06    3.99    3.61    20.84080    32.63196    31.32094
   375  C   4.0    0.10    3.00    3.02    18.32934    31.36086    31.95400
   376  O   6.0   -0.38    1.00    1.80    17.19886    31.84380    33.93427
   377  C   4.0   -0.14    3.99    3.60    20.42428    34.59584    29.24607
   378  C   4.0   -0.12    3.98    3.59    22.69573    36.36243    28.95165
   379  C   4.0    0.27    3.00    3.02    22.25287    38.11013    26.71504
   380  O   6.0   -0.39    1.00    1.80    21.89619    37.30786    24.57872
   381  N   5.0   -0.65    3.00    1.93    22.35098    40.59221    27.23155
   382  H   1.0    0.29    1.00    1.43    23.73716    31.09734    28.97910
   383  H   1.0    0.13    0.99    1.43    21.48604    33.56496    33.06262
   384  H   1.0    0.14    0.99    1.43    20.06504    33.61365    27.46957
   385  H   1.0    0.12    0.99    1.43    18.73885    35.68367    29.72563
   386  H   1.0    0.10    0.99    1.43    22.99509    37.41710    30.69219
   387  H   1.0    0.14    0.99    1.43    24.36799    35.23044    28.53281
   388  H   1.0    0.26    1.00    1.43    22.39208    41.21595    29.02775
   389  H   1.0    0.29    1.00    1.43    21.90047    41.81991    25.84425
   390  H   1.0    0.29    1.00    1.43    29.45975    23.73420    40.91744
   391  H   1.0    0.14    1.00    1.43    35.64509    21.65536    41.65570
   392  H   1.0    0.29    1.00    1.43    33.97576    19.69471    33.20131
   393  H   1.0    0.15    1.00    1.43    40.15139    21.39184    32.24715
   394  H   1.0    0.29    1.00    1.43    56.09463    36.56821    25.33780
   395  H   1.0    0.13    1.00    1.43    56.84801    36.63684    31.60829
   396  H   1.0    0.29    1.00    1.43    59.36203    44.70673    29.02149
   397  H   1.0    0.14    1.00    1.43    55.34693    48.11148    36.98925
   398  H   1.0    0.30    1.00    1.43    50.82476    53.64555    33.11979
   399  H   1.0    0.12    1.00    1.43    45.86183    57.84185    36.35131
   400  H   1.0    0.30    1.00    1.43    31.91536    44.30820    48.57114
   401  H   1.0    0.13    1.00    1.43    32.28329    29.58024    14.22007
   402  H   1.0    0.30    1.00    1.43    29.05916    26.07411    16.88484
   403  H   1.0    0.15    1.00    1.43    25.74896    31.45080    22.87200
   404  H   1.0    0.30    1.00    1.43    24.03566    24.80679    27.87799
   405  H   1.0    0.15    1.00    1.43    17.57317    30.11248    30.75366

           ------------------------------------------------- 
          |        Self-Consistent Charge Iterations        |
           ------------------------------------------------- 

          ...................................................
          :                      SETUP                      :
          :.................................................:
          :  # basis functions                 978          :
          :  # atomic orbitals                 976          :
          :  # shells                          594          :
          :  # electrons                      1068          :
          :  max. iterations                   250          :
          :  Hamiltonian                  GFN2-xTB          :
          :  restarted?                      false          :
          :  GBSA solvation                   true          :
          :  PC potential                    false          :
          :  electronic temp.          500.0000000     K    :
          :  accuracy                    0.1000000          :
          :  -> integral cutoff          0.3500000E+02      :
          :  -> integral neglect         0.1000000E-08      :
          :  -> SCF convergence          0.1000000E-06 Eh   :
          :  -> wf. convergence          0.1000000E-04 e    :
          :  Broyden damping             0.4000000          :
          ...................................................

 iter      E             dE          RMSdq      gap      omega  full diag
   1   -608.4220637 -0.608422E+03  0.417E+00    1.78       0.0  T
   2   -610.0100866 -0.158802E+01  0.216E+00    1.53       1.0  T
   3   -610.0705066 -0.604200E-01  0.117E+00    1.66       1.0  T
   4   -610.0931604 -0.226538E-01  0.277E-01    1.03       1.0  T
   5   -610.1084075 -0.152471E-01  0.121E-01    1.21       1.0  T
   6   -610.1090839 -0.676370E-03  0.499E-02    1.22       1.0  T
   7   -610.1091341 -0.502546E-04  0.215E-02    1.24       1.0  T
   8   -610.1091804 -0.462245E-04  0.924E-03    1.24       1.0  T
   9   -610.1091867 -0.632257E-05  0.399E-03    1.24       1.2  T
  10   -610.1091879 -0.122940E-05  0.165E-03    1.24       3.0  T
  11   -610.1091881 -0.160668E-06  0.692E-04    1.23       7.2  T
  12   -610.1091881 -0.270601E-07  0.306E-04    1.24      16.2  T
  13   -610.1091881 -0.790465E-08  0.157E-04    1.24      31.6  T
  14   -610.1091881 -0.169359E-08  0.736E-05    1.24      67.5  T
  15   -610.1091881 -0.418254E-09  0.320E-05    1.23     155.4  T

   *** convergence criteria satisfied after 15 iterations ***

         #    Occupation            Energy/Eh            Energy/eV
      -------------------------------------------------------------
         1        2.0000           -0.7383217             -20.0908
       ...           ...                  ...                  ...
       528        2.0000           -0.3605841              -9.8120
       529        2.0000           -0.3596930              -9.7877
       530        2.0000           -0.3591989              -9.7743
       531        2.0000           -0.3587994              -9.7634
       532        2.0000           -0.3552489              -9.6668
       533        2.0000           -0.3516643              -9.5693
       534        2.0000           -0.3460559              -9.4167 (HOMO)
       535        0.0000           -0.3006713              -8.1817 (LUMO)
       536                         -0.2878095              -7.8317
       537                         -0.2863989              -7.7933
       538                         -0.2827453              -7.6939
       539                         -0.2822788              -7.6812
       ...                                ...                  ...
       976                          0.6656325              18.1128
      -------------------------------------------------------------
                  HL-Gap            0.0453846 Eh            1.2350 eV
             Fermi-level           -0.3233383 Eh           -8.7985 eV

 SCC (total)                   0 d,  0 h,  0 min,  7.289 sec
 SCC setup                      ...        0 min,  0.094 sec (  1.289%)
 Dispersion                     ...        0 min,  0.070 sec (  0.956%)
 integral evaluation            ...        0 min,  0.355 sec (  4.874%)
 zeroth order Hamiltonian       ...        0 min,  0.004 sec (  0.049%)
 iterations                     ...        0 min,  5.312 sec ( 72.870%)
 molecular gradient             ...        0 min,  1.412 sec ( 19.369%)
 printout                       ...        0 min,  0.043 sec (  0.592%)

         :::::::::::::::::::::::::::::::::::::::::::::::::::::
         ::                     SUMMARY                     ::
         :::::::::::::::::::::::::::::::::::::::::::::::::::::
         :: total energy             -602.642049854392 Eh   ::
         :: total w/o Gsasa/hb       -602.571218918057 Eh   ::
         :: gradient norm               0.626402195932 Eh/α ::
         :: HOMO-LUMO gap               1.234978010128 eV   ::
         ::.................................................::
         :: SCC energy               -610.129305412872 Eh   ::
         :: -> isotropic ES             1.737021292740 Eh   ::
         :: -> anisotropic ES          -0.061381508804 Eh   ::
         :: -> anisotropic XC           0.221789533454 Eh   ::
         :: -> dispersion              -0.508578230706 Eh   ::
         :: -> Gsolv                   -0.384514019328 Eh   ::
         ::    -> Gborn                -0.313683082994 Eh   ::
         ::    -> Gsasa                -0.021974756030 Eh   ::
         ::    -> Ghb                  -0.050713623431 Eh   ::
         ::    -> Gshift                0.001857443127 Eh   ::
         :: repulsion energy            7.440321571642 Eh   ::
         :: add. restraining            0.000000000000 Eh   ::
         :::::::::::::::::::::::::::::::::::::::::::::::::::::

           -------------------------------------------------
          |                Property Printout                |
           -------------------------------------------------

    * Orbital Energies and Occupations

         #    Occupation            Energy/Eh            Energy/eV
      -------------------------------------------------------------
         1        2.0000           -0.7383217             -20.0908
       ...           ...                  ...                  ...
       522        2.0000           -0.3790670             -10.3149
       523        2.0000           -0.3765410             -10.2462
       524        2.0000           -0.3754727             -10.2171
       525        2.0000           -0.3710711             -10.0974
       526        2.0000           -0.3683902             -10.0244
       527        2.0000           -0.3608607              -9.8195
       528        2.0000           -0.3605841              -9.8120
       529        2.0000           -0.3596930              -9.7877
       530        2.0000           -0.3591989              -9.7743
       531        2.0000           -0.3587994              -9.7634
       532        2.0000           -0.3552489              -9.6668
       533        2.0000           -0.3516643              -9.5693
       534        2.0000           -0.3460559              -9.4167 (HOMO)
       535        0.0000           -0.3006713              -8.1817 (LUMO)
       536                         -0.2878095              -7.8317
       537                         -0.2863989              -7.7933
       538                         -0.2827453              -7.6939
       539                         -0.2822788              -7.6812
       540                         -0.2760142              -7.5107
       541                         -0.2745805              -7.4717
       542                         -0.2734877              -7.4420
       543                         -0.2529374              -6.8828
       544                         -0.2491497              -6.7797
       545                         -0.2441896              -6.6447
       ...                                ...                  ...
       976                          0.6656325              18.1128
      -------------------------------------------------------------
                  HL-Gap            0.0453846 Eh            1.2350 eV
             Fermi-level           -0.3233383 Eh           -8.7985 eV

   #   Z        covCN         q      C6AA      α(0)
   1   7 N      2.636    -0.387    30.008     8.136
   2   6 C      3.786     0.037    19.962     6.364
   3   6 C      2.767     0.198    23.781     7.986
   4   8 O      0.856    -0.370    21.093     6.158
   5   6 C      3.852    -0.023    20.944     6.509
   6   6 C      3.801    -0.059    21.644     6.624
   7   6 C      3.756    -0.115    22.750     6.801
   8   6 C      3.751    -0.107    22.612     6.782
   9   1 H      0.860     0.165     1.306     1.790
  10   1 H      0.924     0.054     2.275     2.359
  11   1 H      0.924     0.039     2.465     2.455
  12   1 H      0.924     0.035     2.515     2.480
  13   1 H      0.924     0.045     2.386     2.416
  14   1 H      0.925     0.052     2.294     2.369
  15   1 H      0.925     0.031     2.571     2.507
  16   1 H      0.925     0.050     2.322     2.383
  17   1 H      0.925     0.038     2.470     2.457
  18   1 H      0.925     0.044     2.397     2.421
  19   1 H      0.925     0.034     2.533     2.489
  20   7 N      2.636    -0.391    30.135     8.153
  21   6 C      3.781     0.049    19.770     6.334
  22   6 C      2.766     0.199    23.757     7.982
  23   8 O      0.856    -0.378    21.243     6.179
  24   6 C      3.759    -0.119    22.832     6.812
  25   1 H      0.860     0.169     1.276     1.770
  26   1 H      0.923     0.039     2.459     2.452
  27   1 H      0.925     0.043     2.403     2.424
  28   1 H      0.925     0.057     2.239     2.340
  29   1 H      0.925     0.083     1.946     2.181
  30   7 N      2.637    -0.382    29.887     8.119
  31   6 C      3.785     0.045    19.838     6.344
  32   6 C      2.766     0.199    23.765     7.984
  33   8 O      0.856    -0.362    20.939     6.135
  34   6 C      3.812    -0.074    21.902     6.661
  35   6 C      2.972     0.008    27.839     8.655
  36   6 C      2.925    -0.041    29.007     8.832
  37   6 C      2.925    -0.041    29.013     8.833
  38   6 C      2.919    -0.032    28.798     8.800
  39   6 C      2.919    -0.033    28.825     8.804
  40   6 C      2.920    -0.036    28.894     8.815
  41   1 H      0.860     0.169     1.281     1.773
  42   1 H      0.923     0.043     2.405     2.425
  43   1 H      0.924     0.057     2.233     2.337
  44   1 H      0.924     0.061     2.192     2.315
  45   1 H      0.925     0.030     2.585     2.514
  46   1 H      0.926     0.034     2.535     2.490
  47   1 H      0.926     0.035     2.520     2.482
  48   1 H      0.926     0.041     2.432     2.438
  49   1 H      0.926     0.038     2.475     2.460
  50   7 N      2.635    -0.392    30.153     8.155
  51   6 C      3.788     0.029    20.099     6.385
  52   6 C      2.756     0.267    22.488     7.766
  53   8 O      0.859    -0.513    24.065     6.577
  54   6 C      3.806    -0.075    21.925     6.666
  55   6 C      3.803    -0.070    21.830     6.652
  56   6 C      3.802    -0.089    22.203     6.709
  57   6 C      3.730    -0.040    21.383     6.601
  58   7 N      3.481    -0.148    24.182     7.304
  59   1 H      0.860     0.154     1.375     1.837
  60   1 H      0.923     0.051     2.313     2.378
  61   1 H      0.924     0.063     2.159     2.298
  62   1 H      0.924     0.043     2.406     2.425
  63   1 H      0.924     0.041     2.438     2.442
  64   1 H      0.924     0.049     2.332     2.388
  65   1 H      0.925     0.082     1.962     2.190
  66   1 H      0.925     0.074     2.043     2.235
  67   1 H      0.925     0.105     1.739     2.062
  68   1 H      0.925     0.102     1.764     2.077
  69   1 H      0.859     0.297     0.722     1.331
  70   1 H      0.856     0.298     0.719     1.328
  71   1 H      0.859     0.305     0.700     1.311
  72   7 N      2.692    -0.169    24.659     7.375
  73   6 C      3.790     0.031    20.063     6.379
  74   6 C      2.764     0.220    23.362     7.916
  75   8 O      0.856    -0.385    21.377     6.199
  76   6 C      3.807    -0.080    22.015     6.679
  77   6 C      3.848    -0.013    20.778     6.484
  78   6 C      3.755    -0.116    22.781     6.806
  79   6 C      3.755    -0.116    22.781     6.806
  80   1 H      0.860     0.238     0.930     1.511
  81   1 H      0.924     0.074     2.041     2.234
  82   1 H      0.924     0.068     2.104     2.268
  83   1 H      0.924     0.061     2.188     2.313
  84   1 H      0.924     0.046     2.366     2.405
  85   1 H      0.925     0.045     2.387     2.416
  86   1 H      0.925     0.038     2.471     2.458
  87   1 H      0.925     0.035     2.518     2.482
  88   1 H      0.925     0.045     2.386     2.416
  89   1 H      0.925     0.042     2.423     2.434
  90   1 H      0.925     0.041     2.437     2.441
  91   7 N      2.635    -0.390    30.091     8.147
  92   6 C      3.785     0.037    19.960     6.364
  93   6 C      2.765     0.202    23.697     7.972
  94   8 O      0.856    -0.370    21.093     6.158
  95   6 C      3.851    -0.012    20.755     6.480
  96   6 C      3.756    -0.110    22.651     6.786
  97   6 C      3.757    -0.123    22.917     6.825
  98   1 H      0.860     0.177     1.232     1.738
  99   1 H      0.924     0.042     2.416     2.431
 100   1 H      0.924     0.040     2.446     2.446
 101   1 H      0.925     0.043     2.404     2.425
 102   1 H      0.925     0.058     2.221     2.330
 103   1 H      0.925     0.029     2.600     2.521
 104   1 H      0.925     0.051     2.302     2.373
 105   1 H      0.925     0.040     2.446     2.446
 106   1 H      0.925     0.040     2.454     2.450
 107   7 N      2.632    -0.393    30.180     8.159
 108   6 C      3.736    -0.016    20.941     6.530
 109   6 C      2.756     0.267    22.498     7.767
 110   8 O      0.859    -0.507    23.932     6.559
 111   1 H      0.860     0.170     1.273     1.768
 112   1 H      0.924     0.056     2.244     2.343
 113   1 H      0.925     0.071     2.079     2.255
 114   7 N      2.691    -0.167    24.616     7.369
 115   6 C      3.798     0.019    20.265     6.410
 116   6 C      2.756     0.275    22.342     7.740
 117   8 O      0.858    -0.475    23.234     6.463
 118   6 C      3.757    -0.135    23.156     6.861
 119   1 H      0.860     0.229     0.969     1.542
 120   1 H      0.923     0.086     1.915     2.164
 121   1 H      0.925     0.075     2.035     2.231
 122   1 H      0.925     0.080     1.975     2.198
 123   1 H      0.925     0.060     2.198     2.319
 124   7 N      2.691    -0.175    24.779     7.393
 125   6 C      3.798     0.016    20.306     6.416
 126   6 C      2.755     0.271    22.417     7.753
 127   8 O      0.858    -0.470    23.127     6.448
 128   6 C      3.808    -0.056    21.574     6.612
 129   6 C      3.798    -0.095    22.306     6.725
 130   6 C      2.685     0.371    20.708     7.447
 131   8 O      0.856    -0.658    27.580     7.041
 132   8 O      0.856    -0.645    27.260     7.000
 133   1 H      0.860     0.203     1.092     1.637
 134   1 H      0.923     0.084     1.942     2.179
 135   1 H      0.924     0.052     2.300     2.372
 136   1 H      0.924     0.048     2.340     2.392
 137   1 H      0.924     0.030     2.580     2.512
 138   1 H      0.924     0.027     2.632     2.537
 139   7 N      2.695    -0.175    24.784     7.394
 140   6 C      3.796     0.018    20.269     6.411
 141   6 C      2.756     0.278    22.300     7.733
 142   8 O      0.858    -0.488    23.513     6.501
 143   6 C      3.812    -0.081    22.037     6.682
 144   6 C      3.849    -0.010    20.716     6.474
 145   6 C      3.756    -0.120    22.845     6.815
 146   6 C      3.758    -0.120    22.842     6.814
 147   1 H      0.860     0.197     1.120     1.657
 148   1 H      0.924     0.074     2.044     2.236
 149   1 H      0.924     0.056     2.244     2.343
 150   1 H      0.924     0.060     2.199     2.319
 151   1 H      0.924     0.036     2.503     2.474
 152   1 H      0.925     0.051     2.302     2.373
 153   1 H      0.925     0.038     2.470     2.458
 154   1 H      0.925     0.045     2.387     2.416
 155   1 H      0.925     0.052     2.297     2.370
 156   1 H      0.925     0.042     2.419     2.432
 157   1 H      0.925     0.042     2.428     2.437
 158   7 N      2.693    -0.184    24.983     7.424
 159   6 C      3.796     0.007    20.459     6.441
 160   6 C      2.759     0.272    22.398     7.750
 161   8 O      0.859    -0.481    23.363     6.480
 162   6 C      3.726     0.113    18.826     6.195
 163   8 O      1.656    -0.472    22.297     6.374
 164   6 C      3.754    -0.129    23.038     6.844
 165   1 H      0.860     0.224     0.992     1.561
 166   1 H      0.923     0.078     1.999     2.211
 167   1 H      0.923     0.036     2.503     2.474
 168   1 H      0.804     0.327     0.644     1.261
 169   1 H      0.925     0.066     2.124     2.279
 170   1 H      0.925     0.057     2.230     2.335
 171   1 H      0.925     0.065     2.141     2.288
 172   7 N      2.692    -0.178    24.848     7.403
 173   6 C      3.797     0.020    20.249     6.407
 174   6 C      2.757     0.271    22.417     7.753
 175   8 O      0.859    -0.486    23.472     6.496
 176   6 C      3.757    -0.148    23.405     6.898
 177   1 H      0.860     0.223     0.994     1.562
 178   1 H      0.923     0.076     2.017     2.221
 179   1 H      0.925     0.083     1.947     2.182
 180   1 H      0.925     0.077     2.010     2.217
 181   1 H      0.925     0.078     2.000     2.212
 182   7 N      2.690    -0.170    24.675     7.378
 183   6 C      3.798     0.020    20.250     6.407
 184   6 C      2.760     0.273    22.378     7.747
 185   8 O      0.858    -0.491    23.595     6.513
 186   6 C      3.811    -0.122    22.821     6.800
 187   6 C      2.743     0.286    22.153     7.707
 188   8 O      0.859    -0.475    23.239     6.463
 189   7 N      2.640    -0.280    27.245     7.752
 190   1 H      0.860     0.225     0.985     1.555
 191   1 H      0.924     0.086     1.915     2.164
 192   1 H      0.924     0.100     1.782     2.088
 193   1 H      0.924     0.088     1.896     2.153
 194   1 H      0.860     0.239     0.928     1.509
 195   1 H      0.860     0.224     0.991     1.560
 196   7 N      2.690    -0.177    24.843     7.403
 197   6 C      3.806     0.021    20.217     6.401
 198   6 C      2.760     0.281    22.242     7.723
 199   8 O      0.858    -0.518    24.191     6.594
 200   6 C      3.852    -0.018    20.867     6.497
 201   6 C      3.758    -0.112    22.699     6.793
 202   6 C      3.756    -0.124    22.927     6.827
 203   1 H      0.860     0.231     0.961     1.535
 204   1 H      0.923     0.062     2.181     2.310
 205   1 H      0.924     0.048     2.342     2.393
 206   1 H      0.925     0.058     2.220     2.330
 207   1 H      0.925     0.032     2.556     2.500
 208   1 H      0.925     0.047     2.363     2.404
 209   1 H      0.925     0.060     2.204     2.321
 210   1 H      0.925     0.049     2.329     2.387
 211   1 H      0.925     0.056     2.242     2.342
 212   7 N      2.691    -0.187    25.043     7.432
 213   6 C      3.800     0.025    20.157     6.392
 214   6 C      2.770     0.269    22.451     7.760
 215   8 O      0.859    -0.512    24.060     6.577
 216   6 C      3.812    -0.084    22.099     6.691
 217   6 C      3.849    -0.016    20.830     6.492
 218   6 C      3.759    -0.119    22.834     6.812
 219   6 C      3.756    -0.118    22.810     6.810
 220   1 H      0.860     0.238     0.931     1.512
 221   1 H      0.923     0.065     2.145     2.291
 222   1 H      0.924     0.069     2.099     2.266
 223   1 H      0.924     0.059     2.212     2.326
 224   1 H      0.924     0.048     2.339     2.392
 225   1 H      0.925     0.051     2.304     2.374
 226   1 H      0.925     0.037     2.488     2.466
 227   1 H      0.925     0.047     2.358     2.402
 228   1 H      0.925     0.049     2.332     2.388
 229   1 H      0.925     0.043     2.405     2.425
 230   1 H      0.925     0.033     2.546     2.495
 231   7 N      2.688    -0.177    24.834     7.401
 232   6 C      3.807     0.017    20.281     6.411
 233   6 C      2.753     0.279    22.284     7.730
 234   8 O      0.858    -0.500    23.776     6.538
 235   6 C      3.807    -0.087    22.157     6.701
 236   6 C      3.801    -0.085    22.117     6.696
 237   6 C      3.741    -0.033    21.235     6.575
 238   7 N      2.698    -0.142    24.082     7.288
 239   6 C      2.737     0.229    23.195     7.885
 240   7 N      2.652    -0.244    26.356     7.625
 241   7 N      2.655    -0.258    26.686     7.672
 242   1 H      0.860     0.242     0.915     1.498
 243   1 H      0.923     0.079     1.987     2.205
 244   1 H      0.924     0.075     2.031     2.229
 245   1 H      0.924     0.087     1.909     2.161
 246   1 H      0.924     0.070     2.085     2.258
 247   1 H      0.924     0.047     2.354     2.399
 248   1 H      0.925     0.094     1.845     2.124
 249   1 H      0.924     0.095     1.827     2.114
 250   1 H      0.860     0.234     0.950     1.527
 251   1 H      0.860     0.228     0.972     1.544
 252   1 H      0.860     0.250     0.882     1.471
 253   1 H      0.860     0.249     0.887     1.476
 254   1 H      0.860     0.258     0.853     1.447
 255   7 N      2.688    -0.194    25.209     7.457
 256   6 C      3.798     0.047    19.797     6.335
 257   6 C      2.758     0.291    22.062     7.692
 258   8 O      0.858    -0.499    23.773     6.537
 259   6 C      3.804    -0.103    22.459     6.747
 260   6 C      2.684     0.369    20.747     7.454
 261   8 O      0.856    -0.639    27.086     6.978
 262   8 O      0.856    -0.620    26.608     6.916
 263   1 H      0.860     0.225     0.989     1.557
 264   1 H      0.923     0.044     2.400     2.423
 265   1 H      0.925     0.040     2.454     2.450
 266   1 H      0.924     0.038     2.476     2.461
 267   7 N      2.687    -0.200    25.344     7.477
 268   6 C      3.797     0.030    20.072     6.379
 269   6 C      2.755     0.273    22.379     7.747
 270   8 O      0.858    -0.485    23.462     6.494
 271   6 C      3.820    -0.061    21.654     6.622
 272   6 C      3.796    -0.012    20.800     6.494
 273  16 S      1.959    -0.198   149.469    20.577
 274   6 C      3.746    -0.054    21.615     6.632
 275   1 H      0.860     0.217     1.023     1.585
 276   1 H      0.924     0.065     2.141     2.288
 277   1 H      0.924     0.068     2.107     2.270
 278   1 H      0.924     0.051     2.304     2.374
 279   1 H      0.925     0.052     2.300     2.372
 280   1 H      0.925     0.059     2.213     2.326
 281   1 H      0.925     0.071     2.076     2.253
 282   1 H      0.925     0.044     2.402     2.424
 283   1 H      0.925     0.048     2.351     2.398
 284   7 N      2.686    -0.179    24.876     7.408
 285   6 C      3.746    -0.030    21.173     6.563
 286   6 C      2.749     0.279    22.283     7.729
 287   8 O      0.858    -0.475    23.228     6.462
 288   1 H      0.860     0.218     1.019     1.581
 289   1 H      0.924     0.092     1.862     2.134
 290   1 H      0.924     0.097     1.809     2.103
 291   7 N      2.688    -0.183    24.959     7.420
 292   6 C      3.792     0.020    20.252     6.409
 293   6 C      2.754     0.279    22.277     7.729
 294   8 O      0.858    -0.468    23.088     6.442
 295   6 C      3.810    -0.067    21.767     6.641
 296   6 C      3.849     0.001    20.532     6.445
 297   6 C      3.758    -0.110    22.645     6.785
 298   6 C      3.756    -0.113    22.717     6.796
 299   1 H      0.860     0.220     1.009     1.574
 300   1 H      0.924     0.073     2.057     2.243
 301   1 H      0.924     0.050     2.326     2.385
 302   1 H      0.924     0.064     2.150     2.293
 303   1 H      0.924     0.004     2.993     2.705
 304   1 H      0.925     0.035     2.519     2.482
 305   1 H      0.925     0.035     2.512     2.479
 306   1 H      0.925     0.046     2.367     2.406
 307   1 H      0.925     0.035     2.514     2.479
 308   1 H      0.925     0.043     2.406     2.426
 309   1 H      0.925     0.043     2.405     2.425
 310   7 N      2.690    -0.166    24.593     7.365
 311   6 C      3.792     0.018    20.273     6.412
 312   6 C      2.769     0.193    23.873     8.002
 313   8 O      0.856    -0.333    20.385     6.053
 314   6 C      3.811    -0.056    21.575     6.612
 315   6 C      3.808    -0.104    22.470     6.748
 316   6 C      2.746     0.292    22.045     7.688
 317   8 O      0.858    -0.505    23.892     6.553
 318   7 N      2.639    -0.297    27.665     7.812
 319   1 H      0.860     0.205     1.079     1.628
 320   1 H      0.924     0.099     1.797     2.096
 321   1 H      0.924     0.062     2.178     2.308
 322   1 H      0.925     0.066     2.134     2.285
 323   1 H      0.925     0.069     2.093     2.262
 324   1 H      0.925     0.072     2.067     2.248
 325   1 H      0.860     0.228     0.972     1.545
 326   1 H      0.860     0.223     0.998     1.565
 327   7 N      2.634    -0.389    30.079     8.145
 328   6 C      3.783     0.033    20.044     6.377
 329   6 C      2.760     0.269    22.449     7.759
 330   8 O      0.860    -0.505    23.897     6.554
 331   6 C      3.822    -0.062    21.679     6.626
 332   6 C      3.794    -0.015    20.850     6.502
 333  16 S      1.959    -0.231   150.928    20.677
 334   6 C      3.745    -0.062    21.754     6.653
 335   1 H      0.860     0.153     1.378     1.839
 336   1 H      0.923     0.037     2.483     2.464
 337   1 H      0.924     0.053     2.288     2.365
 338   1 H      0.924     0.047     2.352     2.398
 339   1 H      0.925     0.052     2.290     2.366
 340   1 H      0.925     0.056     2.249     2.345
 341   1 H      0.926     0.072     2.064     2.246
 342   1 H      0.925     0.057     2.235     2.338
 343   1 H      0.925     0.053     2.277     2.360
 344   7 N      2.688    -0.172    24.728     7.386
 345   6 C      3.796     0.030    20.076     6.380
 346   6 C      2.766     0.209    23.560     7.949
 347   8 O      0.856    -0.356    20.824     6.118
 348   6 C      3.757    -0.136    23.174     6.863
 349   1 H      0.860     0.239     0.928     1.509
 350   1 H      0.923     0.084     1.936     2.176
 351   1 H      0.925     0.080     1.975     2.197
 352   1 H      0.925     0.077     2.006     2.215
 353   1 H      0.925     0.080     1.978     2.199
 354   7 N      2.638    -0.412    30.698     8.229
 355   6 C      3.789     0.040    19.911     6.355
 356   6 C      2.761     0.274    22.364     7.744
 357   8 O      0.858    -0.521    24.248     6.602
 358   6 C      3.809    -0.077    21.965     6.671
 359   6 C      3.850    -0.011    20.745     6.478
 360   6 C      3.755    -0.104    22.547     6.770
 361   6 C      3.756    -0.120    22.858     6.817
 362   1 H      0.860     0.185     1.189     1.708
 363   1 H      0.924     0.020     2.730     2.584
 364   1 H      0.924     0.042     2.422     2.434
 365   1 H      0.924     0.062     2.172     2.305
 366   1 H      0.924     0.024     2.670     2.555
 367   1 H      0.925     0.035     2.522     2.484
 368   1 H      0.925     0.028     2.615     2.529
 369   1 H      0.925     0.035     2.522     2.484
 370   1 H      0.925     0.046     2.371     2.408
 371   1 H      0.925     0.045     2.383     2.414
 372   1 H      0.925     0.049     2.336     2.390
 373   7 N      2.691    -0.174    24.756     7.390
 374   6 C      3.796     0.029    20.098     6.384
 375   6 C      2.767     0.212    23.511     7.941
 376   8 O      0.856    -0.388    21.440     6.208
 377   6 C      3.810    -0.065    21.742     6.637
 378   6 C      3.806    -0.111    22.606     6.769
 379   6 C      2.746     0.289    22.096     7.697
 380   8 O      0.859    -0.499    23.757     6.535
 381   7 N      2.638    -0.290    27.487     7.786
 382   1 H      0.860     0.244     0.909     1.493
 383   1 H      0.923     0.081     1.971     2.195
 384   1 H      0.924     0.073     2.050     2.239
 385   1 H      0.924     0.060     2.204     2.322
 386   1 H      0.925     0.070     2.085     2.258
 387   1 H      0.924     0.097     1.812     2.105
 388   1 H      0.860     0.228     0.975     1.547
 389   1 H      0.860     0.237     0.935     1.515
 390   1 H      0.862     0.177     1.231     1.738
 391   1 H      0.930     0.068     2.110     2.271
 392   1 H      0.862     0.177     1.234     1.740
 393   1 H      0.930     0.073     2.056     2.242
 394   1 H      0.862     0.177     1.231     1.738
 395   1 H      0.930     0.081     1.965     2.192
 396   1 H      0.862     0.186     1.178     1.700
 397   1 H      0.930     0.062     2.177     2.307
 398   1 H      0.862     0.178     1.223     1.732
 399   1 H      0.930     0.061     2.186     2.312
 400   1 H      0.862     0.179     1.217     1.728
 401   1 H      0.930     0.092     1.856     2.130
 402   1 H      0.862     0.186     1.181     1.702
 403   1 H      0.930     0.072     2.059     2.244
 404   1 H      0.862     0.169     1.278     1.771
 405   1 H      0.930     0.065     2.140     2.288

 Mol. C6AA /au·bohr⁶  :    1471872.668201
 Mol. C8AA /au·bohr⁸  :   32902733.312149
 Mol. α(0) /au        :       1816.212540


Wiberg/Mayer (AO) data.
largest (>0.10) Wiberg bond orders for each atom
          total WBO             WBO to atom ...
     1  N   3.006        C    2 1.007    H  390 0.956    H    9 0.949
     2  C   3.981        N    1 1.007    C    3 0.971    H   10 0.958    C    5 0.956
     3  C   3.891        O    4 1.880    C    2 0.971    H  391 0.955
     4  O   2.040        C    3 1.880
     5  C   3.992        C    7 1.008    C    6 0.993    H   11 0.966    C    2 0.956
     6  C   3.996        C    8 1.021    C    5 0.993    H   13 0.974    H   12 0.972
     7  C   3.994        C    5 1.008    H   14 0.985    H   15 0.983    H   16 0.983
     8  C   3.996        C    6 1.021    H   17 0.985    H   18 0.985    H   19 0.976
     9  H   0.973        N    1 0.949
    10  H   0.997        C    2 0.958
    11  H   0.998        C    5 0.966
    12  H   0.999        C    6 0.972
    13  H   0.996        C    6 0.974
    14  H   0.997        C    7 0.985
    15  H   0.999        C    7 0.983
    16  H   0.998        C    7 0.983
    17  H   0.998        C    8 0.985
    18  H   0.998        C    8 0.985
    19  H   0.999        C    8 0.976
    20  N   2.997        C   21 1.013    H  392 0.958    H   25 0.940
    21  C   3.985        N   20 1.013    C   24 0.977    C   22 0.971    H   26 0.962
    22  C   3.888        O   23 1.897    C   21 0.971    H  393 0.954
    23  O   2.036        C   22 1.897
    24  C   3.988        H   27 0.979    C   21 0.977    H   29 0.974    H   28 0.974
    25  H   0.971        N   20 0.940
    26  H   0.998        C   21 0.962
    27  H   0.998        C   24 0.979
    28  H   0.997        C   24 0.974
    29  H   0.993        C   24 0.974
    30  N   3.002        C   31 1.010    H  394 0.954    H   41 0.951
    31  C   3.985        N   30 1.010    C   32 0.974    H   42 0.959    C   34 0.951
    32  C   3.890        O   33 1.884    C   31 0.974    H  395 0.953
    33  O   2.053        C   32 1.884
    34  C   3.991        C   35 1.011    H   44 0.970    H   43 0.965    C   31 0.951
    35  C   3.989        C   36 1.414    C   37 1.412    C   34 1.011    C   40 0.110
    36  C   3.992        C   38 1.445    C   35 1.414    H   45 0.969    C   39 0.110
    37  C   3.992        C   39 1.446    C   35 1.412    H   46 0.968    C   38 0.111
    38  C   3.992        C   36 1.445    C   40 1.437    H   47 0.968    C   37 0.111
    39  C   3.992        C   37 1.446    C   40 1.438    H   48 0.970    C   36 0.110
    40  C   3.991        C   39 1.438    C   38 1.437    H   49 0.971    C   35 0.110
    41  H   0.971        N   30 0.951
    42  H   0.998        C   31 0.959
    43  H   0.996        C   34 0.965
    44  H   0.996        C   34 0.970
    45  H   0.999        C   36 0.969
    46  H   0.999        C   37 0.968
    47  H   0.998        C   38 0.968
    48  H   0.998        C   39 0.970
    49  H   0.998        C   40 0.971
    50  N   2.997        C   51 1.016    H   59 0.956    H  396 0.955
    51  C   3.984        N   50 1.016    C   54 0.975    H   60 0.955    C   52 0.941
    52  C   3.943        O   53 1.585    N   72 1.339    C   51 0.941
    53  O   1.943        C   52 1.585    N   72 0.195
    54  C   3.992        C   55 1.006    H   62 0.975    C   51 0.975    H   61 0.967
    55  C   3.994        C   56 1.008    C   54 1.006    H   63 0.976    H   64 0.974
    56  C   3.987        C   55 1.008    C   57 1.005    H   66 0.974    H   65 0.961
    57  C   3.917        C   56 1.005    H   67 0.968    H   68 0.966    N   58 0.958
    58  N   3.666        C   57 0.958    H   69 0.898    H   70 0.895    H   71 0.894
    59  H   0.976        N   50 0.956
    60  H   0.997        C   51 0.955
    61  H   0.995        C   54 0.967
    62  H   0.998        C   54 0.975
    63  H   0.998        C   55 0.976
    64  H   0.998        C   55 0.974
    65  H   0.993        C   56 0.961
    66  H   0.995        C   56 0.974
    67  H   0.989        C   57 0.968
    68  H   0.990        C   57 0.966
    69  H   0.912        N   58 0.898
    70  H   0.911        N   58 0.895
    71  H   0.907        N   58 0.894
    72  N   3.486        C   52 1.339    C   73 0.971    H   80 0.887    O   53 0.195
    73  C   3.968        C   74 0.980    N   72 0.971    C   76 0.967    H   81 0.949
    74  C   3.904        O   75 1.837    C   73 0.980    H  397 0.956
    75  O   2.036        C   74 1.837
    76  C   3.985        C   77 0.995    H   83 0.973    C   73 0.967    H   82 0.966
    77  C   3.994        C   78 1.010    C   79 1.009    C   76 0.995    H   84 0.966
    78  C   3.995        C   77 1.010    H   86 0.986    H   85 0.985    H   87 0.981
    79  C   3.995        C   77 1.009    H   88 0.986    H   90 0.985    H   89 0.984
    80  H   0.943        N   72 0.887
    81  H   0.994        C   73 0.949
    82  H   0.995        C   76 0.966
    83  H   0.996        C   76 0.973
    84  H   0.997        C   77 0.966
    85  H   0.998        C   78 0.985
    86  H   0.999        C   78 0.986
    87  H   0.999        C   78 0.981
    88  H   0.998        C   79 0.986
    89  H   0.998        C   79 0.984
    90  H   0.998        C   79 0.985
    91  N   2.998        C   92 1.017    H  398 0.956    H   98 0.924
    92  C   3.987        N   91 1.017    C   93 0.979    H   99 0.962    C   95 0.941
    93  C   3.898        O   94 1.900    C   92 0.979    H  399 0.956
    94  O   2.037        C   93 1.900
    95  C   3.993        C   96 1.012    C   97 1.008    H  100 0.963    C   92 0.941
    96  C   3.995        C   95 1.012    H  103 0.986    H  101 0.983    H  102 0.978
    97  C   3.995        C   95 1.008    H  105 0.986    H  106 0.986    H  104 0.982
    98  H   0.969        N   91 0.924
    99  H   0.998        C   92 0.962
   100  H   0.998        C   95 0.963
   101  H   0.998        C   96 0.983
   102  H   0.997        C   96 0.978
   103  H   0.999        C   96 0.986
   104  H   0.997        C   97 0.982
   105  H   0.998        C   97 0.986
   106  H   0.998        C   97 0.986
   107  N   2.990        C  108 1.024    H  400 0.957    H  111 0.957
   108  C   3.985        N  107 1.024    H  112 0.968    C  109 0.958    H  113 0.953
   109  C   3.943        O  110 1.566    N  114 1.335    C  108 0.958
   110  O   1.949        C  109 1.566    N  114 0.187
   111  H   0.971        N  107 0.957
   112  H   0.996        C  108 0.968
   113  H   0.995        C  108 0.953
   114  N   3.491        C  109 1.335    C  115 0.975    H  119 0.914    O  110 0.187
   115  C   3.963        C  118 0.997    N  114 0.975    H  120 0.949    C  116 0.933
   116  C   3.948        O  117 1.627    N  124 1.303    C  115 0.933
   117  O   1.969        C  116 1.627    N  124 0.194
   118  C   3.983        C  115 0.997    H  123 0.981    H  121 0.980    H  122 0.978
   119  H   0.947        N  114 0.914
   120  H   0.992        C  115 0.949
   121  H   0.994        C  118 0.980
   122  H   0.993        C  118 0.978
   123  H   0.996        C  118 0.981
   124  N   3.474        C  116 1.303    C  125 0.977    H  133 0.918    O  117 0.194
   125  C   3.963        C  128 0.979    N  124 0.977    H  134 0.951    C  126 0.932
   126  C   3.950        O  127 1.621    N  139 1.311    C  125 0.932
   127  O   1.970        C  126 1.621    N  139 0.196
   128  C   3.991        C  129 1.004    C  125 0.979    H  136 0.974    H  135 0.969
   129  C   3.991        C  128 1.004    H  137 0.981    H  138 0.964    C  130 0.912
   130  C   3.931        O  132 1.514    O  131 1.485    C  129 0.912
   131  O   1.776        C  130 1.485    O  132 0.218
   132  O   1.804        C  130 1.514    O  131 0.218
   133  H   0.959        N  124 0.918
   134  H   0.993        C  125 0.951
   135  H   0.997        C  128 0.969
   136  H   0.997        C  128 0.974
   137  H   0.999        C  129 0.981
   138  H   0.999        C  129 0.964
   139  N   3.475        C  126 1.311    C  140 0.969    H  147 0.922    O  127 0.196
   140  C   3.956        C  143 0.979    N  139 0.969    H  148 0.949    C  141 0.937
   141  C   3.952        O  142 1.600    N  158 1.327    C  140 0.937
   142  O   1.956        C  141 1.600    N  158 0.197
   143  C   3.984        C  144 0.993    C  140 0.979    H  149 0.969    H  150 0.965
   144  C   3.993        C  145 1.010    C  146 1.008    C  143 0.993    H  151 0.967
   145  C   3.994        C  144 1.010    H  154 0.986    H  153 0.983    H  152 0.983
   146  C   3.994        C  144 1.008    H  156 0.986    H  157 0.986    H  155 0.985
   147  H   0.961        N  139 0.922
   148  H   0.994        C  140 0.949
   149  H   0.996        C  143 0.969
   150  H   0.996        C  143 0.965
   151  H   0.999        C  144 0.967
   152  H   0.997        C  145 0.983
   153  H   0.999        C  145 0.983
   154  H   0.998        C  145 0.986
   155  H   0.997        C  146 0.985
   156  H   0.998        C  146 0.986
   157  H   0.998        C  146 0.986
   158  N   3.483        C  141 1.327    C  159 0.976    H  165 0.884    O  142 0.197
   159  C   3.961        N  158 0.976    H  166 0.952    C  162 0.950    C  160 0.940
   160  C   3.953        O  161 1.600    N  172 1.325    C  159 0.940
   161  O   1.971        C  160 1.600    N  172 0.199
   162  C   3.957        C  164 1.004    O  163 1.002    H  167 0.953    C  159 0.950
   163  O   1.951        C  162 1.002    H  168 0.850
   164  C   3.988        C  162 1.004    H  171 0.983    H  169 0.982    H  170 0.978
   165  H   0.950        N  158 0.884
   166  H   0.993        C  159 0.952
   167  H   0.999        C  162 0.953
   168  H   0.893        O  163 0.850
   169  H   0.995        C  164 0.982
   170  H   0.997        C  164 0.978
   171  H   0.996        C  164 0.983
   172  N   3.484        C  160 1.325    C  173 0.973    H  177 0.900    O  161 0.199
   173  C   3.961        C  176 0.994    N  172 0.973    H  178 0.949    C  174 0.939
   174  C   3.950        O  175 1.599    N  182 1.321    C  173 0.939
   175  O   1.959        C  174 1.599    N  182 0.195
   176  C   3.979        C  173 0.994    H  179 0.979    H  180 0.978    H  181 0.977
   177  H   0.950        N  172 0.900
   178  H   0.994        C  173 0.949
   179  H   0.992        C  176 0.979
   180  H   0.994        C  176 0.978
   181  H   0.994        C  176 0.977
   182  N   3.484        C  174 1.321    C  183 0.980    H  190 0.897    O  175 0.195
   183  C   3.967        C  186 0.991    N  182 0.980    H  191 0.944    C  184 0.929
   184  C   3.948        O  185 1.617    N  196 1.322    C  183 0.929
   185  O   1.964        C  184 1.617    N  196 0.201
   186  C   3.988        C  183 0.991    C  187 0.968    H  193 0.952    H  192 0.939
   187  C   3.951        O  188 1.623    N  189 1.322    C  186 0.968
   188  O   1.967        C  187 1.623    N  189 0.195
   189  N   3.407        C  187 1.322    H  195 0.932    H  194 0.921    O  188 0.195
   190  H   0.949        N  182 0.897
   191  H   0.992        C  183 0.944
   192  H   0.990        C  186 0.939
   193  H   0.992        C  186 0.952
   194  H   0.942        N  189 0.921
   195  H   0.950        N  189 0.932
   196  N   3.482        C  184 1.322    C  197 0.978    H  203 0.895    O  185 0.201
   197  C   3.963        N  196 0.978    C  200 0.964    H  204 0.952    C  198 0.938
   198  C   3.946        O  199 1.594    N  212 1.326    C  197 0.938
   199  O   1.936        C  198 1.594    N  212 0.194
   200  C   3.987        C  201 1.008    C  202 1.006    H  205 0.965    C  197 0.964
   201  C   3.993        C  200 1.008    H  208 0.985    H  207 0.984    H  206 0.982
   202  C   3.991        C  200 1.006    H  210 0.983    H  209 0.981    H  211 0.975
   203  H   0.946        N  196 0.895
   204  H   0.996        C  197 0.952
   205  H   0.998        C  200 0.965
   206  H   0.996        C  201 0.982
   207  H   0.999        C  201 0.984
   208  H   0.998        C  201 0.985
   209  H   0.996        C  202 0.981
   210  H   0.998        C  202 0.983
   211  H   0.997        C  202 0.975
   212  N   3.476        C  198 1.326    C  213 0.979    H  220 0.881    O  199 0.194
   213  C   3.965        C  216 0.979    N  212 0.979    H  221 0.947    C  214 0.940
   214  C   3.946        O  215 1.574    N  231 1.336    C  213 0.940
   215  O   1.943        C  214 1.574    N  231 0.190
   216  C   3.984        C  217 0.991    C  213 0.979    H  223 0.968    H  222 0.966
   217  C   3.993        C  219 1.011    C  218 1.007    C  216 0.991    H  224 0.962
   218  C   3.993        C  217 1.007    H  225 0.983    H  226 0.982    H  227 0.980
   219  C   3.994        C  217 1.011    H  229 0.986    H  228 0.984    H  230 0.980
   220  H   0.943        N  212 0.881
   221  H   0.995        C  213 0.947
   222  H   0.995        C  216 0.966
   223  H   0.996        C  216 0.968
   224  H   0.997        C  217 0.962
   225  H   0.997        C  218 0.983
   226  H   0.999        C  218 0.982
   227  H   0.998        C  218 0.980
   228  H   0.997        C  219 0.984
   229  H   0.998        C  219 0.986
   230  H   0.999        C  219 0.980
   231  N   3.488        C  214 1.336    C  232 0.984    H  242 0.881    O  215 0.190
   232  C   3.963        N  231 0.984    C  235 0.980    H  243 0.944    C  233 0.929
   233  C   3.942        O  234 1.632    N  255 1.300    C  232 0.929
   234  O   1.951        C  233 1.632    N  255 0.196
   235  C   3.982        C  236 1.006    C  232 0.980    H  244 0.970    H  245 0.967
   236  C   3.991        C  235 1.006    C  237 0.993    H  247 0.975    H  246 0.965
   237  C   3.953        C  236 0.993    N  238 0.989    H  248 0.967    H  249 0.960
   238  N   3.466        C  239 1.308    C  237 0.989    H  250 0.916    N  241 0.102
   239  C   3.977        N  241 1.326    N  240 1.311    N  238 1.308
   240  N   3.391        C  239 1.311    H  251 0.920    H  252 0.900    N  241 0.101
   241  N   3.397        C  239 1.326    H  253 0.918    H  254 0.899    N  238 0.102    N  240 0.101
   242  H   0.941        N  231 0.881
   243  H   0.993        C  232 0.944
   244  H   0.994        C  235 0.970
   245  H   0.992        C  235 0.967
   246  H   0.995        C  236 0.965
   247  H   0.998        C  236 0.975
   248  H   0.991        C  237 0.967
   249  H   0.991        C  237 0.960
   250  H   0.945        N  238 0.916
   251  H   0.948        N  240 0.920
   252  H   0.937        N  240 0.900
   253  H   0.938        N  241 0.918
   254  H   0.933        N  241 0.899
   255  N   3.464        C  233 1.300    C  256 0.976    H  263 0.896    O  234 0.196
   256  C   3.971        C  259 0.980    N  255 0.976    H  264 0.958    C  257 0.934
   257  C   3.940        O  258 1.651    N  267 1.277    C  256 0.934
   258  O   1.956        C  257 1.651    N  267 0.187
   259  C   3.979        C  256 0.980    H  265 0.973    H  266 0.971    C  260 0.896
   260  C   3.938        O  261 1.513    O  262 1.507    C  259 0.896
   261  O   1.806        C  260 1.513    O  262 0.221
   262  O   1.809        C  260 1.507    O  261 0.221
   263  H   0.949        N  255 0.896
   264  H   0.998        C  256 0.958
   265  H   0.998        C  259 0.973
   266  H   0.999        C  259 0.971
   267  N   3.440        C  257 1.277    C  268 0.983    H  275 0.901    O  258 0.187
   268  C   3.961        N  267 0.983    C  271 0.958    H  276 0.950    C  269 0.943
   269  C   3.951        O  270 1.634    N  284 1.293    C  268 0.943
   270  O   1.958        C  269 1.634    N  284 0.193
   271  C   3.986        C  272 1.009    H  278 0.971    H  277 0.967    C  268 0.958
   272  C   3.980        C  271 1.009    S  273 0.990    H  280 0.974    H  279 0.969
   273  S   2.084        C  274 1.014    C  272 0.990
   274  C   3.980        S  273 1.014    H  282 0.982    H  283 0.982    H  281 0.975
   275  H   0.953        N  267 0.901
   276  H   0.995        C  268 0.950
   277  H   0.995        C  271 0.967
   278  H   0.997        C  271 0.971
   279  H   0.997        C  272 0.969
   280  H   0.996        C  272 0.974
   281  H   0.995        C  274 0.975
   282  H   0.998        C  274 0.982
   283  H   0.998        C  274 0.982
   284  N   3.459        C  269 1.293    C  285 0.994    H  288 0.895    O  270 0.193
   285  C   3.963        N  284 0.994    H  289 0.961    H  290 0.952    C  286 0.945
   286  C   3.949        O  287 1.618    N  291 1.309    C  285 0.945
   287  O   1.983        C  286 1.618    N  291 0.191
   288  H   0.952        N  284 0.895
   289  H   0.991        C  285 0.961
   290  H   0.990        C  285 0.952
   291  N   3.471        C  286 1.309    C  292 0.976    H  299 0.901    O  287 0.191
   292  C   3.965        C  295 0.983    N  291 0.976    H  300 0.943    C  293 0.934
   293  C   3.951        O  294 1.665    N  310 1.274    C  292 0.934
   294  O   1.982        C  293 1.665    N  310 0.195
   295  C   3.989        C  296 0.996    C  292 0.983    H  301 0.973    H  302 0.968
   296  C   3.995        C  298 1.010    C  297 1.007    C  295 0.996    H  303 0.966
   297  C   3.996        C  296 1.007    H  305 0.987    H  304 0.987    H  306 0.986
   298  C   3.995        C  296 1.010    H  308 0.986    H  307 0.985    H  309 0.978
   299  H   0.951        N  291 0.901
   300  H   0.995        C  292 0.943
   301  H   0.998        C  295 0.973
   302  H   0.995        C  295 0.968
   303  H   1.000        C  296 0.966
   304  H   0.998        C  297 0.987
   305  H   0.999        C  297 0.987
   306  H   0.998        C  297 0.986
   307  H   0.999        C  298 0.985
   308  H   0.998        C  298 0.986
   309  H   0.998        C  298 0.978
   310  N   3.457        C  293 1.274    C  311 0.983    H  319 0.925    O  294 0.195
   311  C   3.963        N  310 0.983    C  312 0.973    C  314 0.953    H  320 0.951
   312  C   3.898        O  313 1.890    C  311 0.973    H  401 0.950
   313  O   2.070        C  312 1.890
   314  C   3.988        C  315 0.990    H  321 0.970    H  322 0.969    C  311 0.953
   315  C   3.992        C  314 0.990    H  324 0.965    H  323 0.964    C  316 0.961
   316  C   3.944        O  317 1.641    N  318 1.315    C  315 0.961
   317  O   1.940        C  316 1.641    N  318 0.204
   318  N   3.397        C  316 1.315    H  326 0.928    H  325 0.896    O  317 0.204
   319  H   0.958        N  310 0.925
   320  H   0.990        C  311 0.951
   321  H   0.996        C  314 0.970
   322  H   0.995        C  314 0.969
   323  H   0.995        C  315 0.964
   324  H   0.995        C  315 0.965
   325  H   0.948        N  318 0.896
   326  H   0.950        N  318 0.928
   327  N   2.995        C  328 1.017    H  335 0.955    H  402 0.955
   328  C   3.986        N  327 1.017    C  331 0.977    H  336 0.955    C  329 0.941
   329  C   3.946        O  330 1.590    N  344 1.328    C  328 0.941
   330  O   1.956        C  329 1.590    N  344 0.194
   331  C   3.993        C  332 1.007    C  328 0.977    H  338 0.974    H  337 0.971
   332  C   3.981        C  331 1.007    S  333 0.992    H  339 0.974    H  340 0.969
   333  S   2.089        C  334 1.013    C  332 0.992
   334  C   3.977        S  333 1.013    H  343 0.980    H  342 0.978    H  341 0.972
   335  H   0.976        N  327 0.955
   336  H   0.998        C  328 0.955
   337  H   0.997        C  331 0.971
   338  H   0.997        C  331 0.974
   339  H   0.997        C  332 0.974
   340  H   0.997        C  332 0.969
   341  H   0.995        C  334 0.972
   342  H   0.997        C  334 0.978
   343  H   0.997        C  334 0.980
   344  N   3.478        C  329 1.328    C  345 0.975    H  349 0.878    O  330 0.194
   345  C   3.965        C  348 0.982    N  344 0.975    C  346 0.973    H  350 0.945
   346  C   3.896        O  347 1.869    C  345 0.973    H  403 0.954
   347  O   2.066        C  346 1.869
   348  C   3.978        C  345 0.982    H  353 0.981    H  351 0.979    H  352 0.974
   349  H   0.943        N  344 0.878
   350  H   0.993        C  345 0.945
   351  H   0.993        C  348 0.979
   352  H   0.994        C  348 0.974
   353  H   0.994        C  348 0.981
   354  N   2.986        C  355 1.011    H  404 0.960    H  362 0.924
   355  C   3.985        N  354 1.011    C  358 0.980    H  363 0.964    C  356 0.935
   356  C   3.938        O  357 1.601    N  373 1.321    C  355 0.935
   357  O   1.948        C  356 1.601    N  373 0.194
   358  C   3.991        C  359 0.994    C  355 0.980    H  364 0.974    H  365 0.965
   359  C   3.995        C  360 1.009    C  361 1.008    C  358 0.994    H  366 0.966
   360  C   3.996        C  359 1.009    H  369 0.986    H  368 0.984    H  367 0.976
   361  C   3.994        C  359 1.008    H  370 0.985    H  372 0.984    H  371 0.979
   362  H   0.966        N  354 0.924
   363  H   0.999        C  355 0.964
   364  H   0.998        C  358 0.974
   365  H   0.996        C  358 0.965
   366  H   0.999        C  359 0.966
   367  H   0.999        C  360 0.976
   368  H   0.999        C  360 0.984
   369  H   0.999        C  360 0.986
   370  H   0.998        C  361 0.985
   371  H   0.998        C  361 0.979
   372  H   0.998        C  361 0.984
   373  N   3.472        C  356 1.321    C  374 0.980    H  382 0.880    O  357 0.194
   374  C   3.970        N  373 0.980    C  375 0.976    C  377 0.967    H  383 0.948
   375  C   3.901        O  376 1.870    C  374 0.976    H  405 0.956
   376  O   2.020        C  375 1.870
   377  C   3.985        C  378 0.992    H  385 0.973    H  384 0.971    C  374 0.967
   378  C   3.989        C  377 0.992    H  386 0.972    C  379 0.967    H  387 0.945
   379  C   3.946        O  380 1.651    N  381 1.300    C  378 0.967
   380  O   1.950        C  379 1.651    N  381 0.199
   381  N   3.384        C  379 1.300    H  388 0.928    H  389 0.922    O  380 0.199
   382  H   0.941        N  373 0.880
   383  H   0.993        C  374 0.948
   384  H   0.995        C  377 0.971
   385  H   0.996        C  377 0.973
   386  H   0.995        C  378 0.972
   387  H   0.991        C  378 0.945
   388  H   0.948        N  381 0.928
   389  H   0.943        N  381 0.922
   390  H   0.969        N    1 0.956
   391  H   0.995        C    3 0.955
   392  H   0.969        N   20 0.958
   393  H   0.995        C   22 0.954
   394  H   0.969        N   30 0.954
   395  H   0.993        C   32 0.953
   396  H   0.965        N   50 0.955
   397  H   0.996        C   74 0.956
   398  H   0.968        N   91 0.956
   399  H   0.996        C   93 0.956
   400  H   0.968        N  107 0.957
   401  H   0.991        C  312 0.950
   402  H   0.965        N  327 0.955
   403  H   0.995        C  346 0.954
   404  H   0.971        N  354 0.960
   405  H   0.996        C  375 0.956
 
molecular dipole:
                 x           y           z       tot (Debye)
 q only:       10.116       4.414       2.257
   full:        8.359       4.336       3.839      25.849
molecular quadrupole (traceless):
                xx          xy          yy          xz          yz          zz
 q only:      652.650     980.794     -77.672     868.236     128.243    -574.979
  q+dip:      431.864     879.605     -64.726     855.409     228.690    -367.139
   full:      433.574     881.955     -60.460     856.290     225.940    -373.115


           -------------------------------------------------
          | TOTAL ENERGY             -602.642049854392 Eh   |
          | GRADIENT NORM               0.626402195932 Eh/α |
          | HOMO-LUMO GAP               1.234978010128 eV   |
           -------------------------------------------------

------------------------------------------------------------------------
 * finished run on 2019/05/31 at 04:12:58.919     
------------------------------------------------------------------------
 total:
 * wall-time:     0 d,  0 h,  0 min,  7.734 sec
 *  cpu-time:     0 d,  0 h,  0 min,  7.683 sec
 * ratio c/w:     0.993 speedup
 SCF:
 * wall-time:     0 d,  0 h,  0 min,  7.291 sec
 *  cpu-time:     0 d,  0 h,  0 min,  7.295 sec
 * ratio c/w:     1.001 speedup

