      -----------------------------------------------------------      
     |                   =====================                   |     
     |                           x T B                           |     
     |                   =====================                   |     
     |                         S. Grimme                         |     
     |          Mulliken Center for Theoretical Chemistry        |     
     |                    University of Bonn                     |     
     |                 Version 6.0.1 (SAW181210)                 |     
      -----------------------------------------------------------      

   This program is distributed in the hope that it will be useful,
   but WITHOUT ANY WARRANTY; without even the implied warranty of
   MERCHANTABILITY or FITNESS FOR A PARTICULAR PURPOSE.
   
   FOR NON-COMMERCIAL, ACADEMIA USE ONLY.
   
   Cite this work as:
   S. Grimme, C. Bannwarth, P. Shushkov, J. Comput. Theory Chem., 2017,
   13, 1989-2009.
   C. Bannwarth, S. Ehlert and S. Grimme., ChemRxiv, 2018, preprint.
   http://doi.org/10.26434/chemrxiv.7246238.v1
   
   for sTDA-xTB:
   S. Grimme and C. Bannwarth, J. Chem. Phys., 2016, 145, 054103.
   
   in the mass-spec context:
   V. Asgeirsson, C. Bauer and S. Grimme, Chem. Sci., 2017, 8, 4879.
   
   if GBSA is used:
   P. Shushkov, F. März and S. Grimme, unpublished.
   
   for ANC optimizer:
   S. Grimme, unpublished.
   Rational Function algorithm used in ANCopt:
   F. Eckert, P. Pulay, H.-J. Werner, J. Comput. Chem., 1997, 18, 1473.
   
   with help from (in alphabetical order)
   C. Bannwarth, F. Bohle, G. Brandenburg, E. Caldeweyher, M. Checinski,
   S. Dohm, S. Ehlert, S. Ehrlich, F. März, H. Neugebauer, J. Pisarek,
   P. Pracht, P. Shushkov, and S. Spicher.
   
 * started run on 2019/02/13 at 00:18:57.959     
========================================================================
 # omp threads = 16
========================================================================
number of atoms            : 79
number of electrons        : 214
charge                     : 0
spin                       : .0
first test random number   : .3252

########################################################################
# WARNING! Please study the warnings concerning your input carefully
#  - Process number higher than OMP_NUM_THREADS, I hope you know what you are doing.
########################################################################

           ------------------------------------------------- 
          |                 G F N 2 - x T B                 |
          | Geometry, Frequencies, Noncovalent interactions |
          |            JCTC 2018 parametrisation            |
           ------------------------------------------------- 
 
      method parameters     
 k(s)        :  1.8500
 k(p)        :  2.2300
 k(d)        :  2.2300
 k(f)        :  2.0000
 kEN (H0ij)  : -2.0000
 D4 a1       :  0.5200
 D4 a2       :  5.0000
 D4 s6       :  1.0000
 D4 s8       :  2.7000
 D4 s9       :  5.0000
 alphaj      :  2.0000

 Solvent             : h2o
 Using internal parameter file: .param_gbsa2_h2o
 Gsolv ref. state (COSMO-RS): gsolv [1 M gas/solution]
 temperature (mdtemp)       :    298.150000000000     
 dielectric constant        :    80.2000000000000     
 rho                        :    1.00000000000000     
 mass                       :    18.0000000000000     
 surface tension            :    15.5689454083859     
 probe radius               :   0.975313790000000     
 vdW radii scaling          :    1.00000000000000     
 Gshift (Eh)                :   1.857443126794793E-003
 c1                         :    1.55243817000000     
 soset                      :   0.130326360000000     
 HB correction              :  T

            Z     q(EN)     CN     RAES       Cart. coordinates
     1  N   5.0   -0.21    3.22    1.96   425.40603   118.84960   227.19535
     2  C   4.0    0.03    4.27    4.14   426.11276   119.21834   224.57046
     3  C   4.0    0.15    3.41    3.08   428.08842   121.33230   224.29445
     4  O   6.0   -0.30    1.23    1.80   429.89563   121.14418   222.86366
     5  C   4.0    0.03    4.13    3.87   423.76466   119.75745   222.95425
     6  O   6.0   -0.25    2.04    1.83   422.78433   122.20189   223.23722
     7  H   1.0    0.08    1.02    1.43   423.61312   119.22474   227.74692
     8  H   1.0    0.05    1.05    1.44   427.01059   117.48212   223.87571
     9  H   1.0    0.05    1.02    1.43   424.26205   119.57252   220.95827
    10  H   1.0    0.04    1.01    1.43   422.32471   118.32912   223.41107
    11  H   1.0    0.11    1.01    1.43   422.59101   122.65310   225.02484
    12  N   5.0   -0.14    3.51    2.08   427.67617   123.36793   225.72871
    13  C   4.0    0.04    4.35    4.29   429.23405   125.59872   225.50965
    14  C   4.0    0.15    3.47    3.10   431.84917   125.30285   226.68577
    15  O   6.0   -0.31    1.31    1.80   433.39381   127.03384   226.49969
    16  C   4.0   -0.07    4.11    3.82   427.86262   127.89899   226.55346
    17  H   1.0    0.08    1.07    1.44   426.12219   123.49284   226.84520
    18  H   1.0    0.06    1.06    1.44   429.63889   125.88906   223.49072
    19  H   1.0    0.05    1.00    1.43   429.03323   129.56216   226.28597
    20  H   1.0    0.04    1.00    1.43   426.07048   128.14743   225.58670
    21  H   1.0    0.05    1.00    1.43   427.50382   127.64215   228.55703
    22  N   5.0   -0.14    3.52    2.09   432.41192   123.10090   227.75957
    23  C   4.0    0.04    4.47    4.49   434.99061   122.48341   228.39999
    24  C   4.0    0.17    3.52    3.12   436.75487   123.07039   226.19154
    25  O   6.0   -0.28    1.25    1.80   438.93566   123.74387   226.59214
    26  C   4.0    0.05    4.23    4.06   435.29185   119.64619   229.08601
    27  O   6.0   -0.24    2.11    1.84   434.40534   118.10398   227.11393
    28  C   4.0   -0.07    4.07    3.74   434.05520   119.06583   231.62071
    29  H   1.0    0.08    1.08    1.44   431.04936   121.80641   228.09446
    30  H   1.0    0.05    1.05    1.44   435.64138   123.62561   230.00469
    31  H   1.0    0.06    1.04    1.43   437.33421   119.28854   229.20161
    32  H   1.0    0.12    1.02    1.43   432.63021   117.72289   227.38071
    33  H   1.0    0.05    1.00    1.43   434.15053   117.04374   231.96538
    34  H   1.0    0.04    1.00    1.43   435.04050   120.05289   233.12373
    35  H   1.0    0.04    1.00    1.43   432.08476   119.64705   231.60813
    36  N   5.0   -0.13    3.42    2.03   435.77898   122.81866   223.86998
    37  C   4.0    0.02    4.25    4.09   437.28230   123.33432   221.65307
    38  C   4.0    0.16    3.33    3.06   438.60423   125.91084   221.62934
    39  O   6.0   -0.28    1.23    1.80   440.35314   126.27715   220.15373
    40  H   1.0    0.11    1.07    1.44   434.05297   122.03046   223.61463
    41  H   1.0    0.06    1.02    1.43   438.78307   121.92318   221.42767
    42  H   1.0    0.05    1.03    1.43   436.05758   123.24716   219.99656
    43  N   5.0   -0.14    3.48    2.07   437.69079   127.70864   223.14777
    44  C   4.0    0.04    4.34    4.27   438.74485   130.22681   223.17587
    45  C   4.0    0.10    3.20    3.04   441.01382   130.57070   224.94221
    46  O   6.0   -0.27    1.12    1.80   442.22315   132.54091   224.90071
    47  C   4.0   -0.04    4.36    4.31   436.70199   132.15107   223.88462
    48  C   4.0   -0.02    4.19    3.98   434.52317   132.23815   221.97882
    49  C   4.0   -0.07    4.10    3.81   432.43100   133.99153   222.90966
    50  C   4.0   -0.07    4.12    3.84   435.44811   133.11912   219.40237
    51  H   1.0    0.11    1.11    1.45   436.23196   127.38052   224.35035
    52  H   1.0    0.06    1.07    1.44   439.47662   130.61413   221.27734
    53  H   1.0    0.06    1.03    1.43   435.97452   131.65996   225.75131
    54  H   1.0    0.06    1.03    1.43   437.59141   134.00622   224.02118
    55  H   1.0    0.05    1.06    1.44   433.73251   130.33428   221.80404
    56  H   1.0    0.04    1.00    1.43   430.87515   134.00377   221.56923
    57  H   1.0    0.05    1.00    1.43   431.72307   133.38342   224.74053
    58  H   1.0    0.05    1.00    1.43   433.11107   135.92251   223.09353
    59  H   1.0    0.04    1.00    1.43   433.86297   133.29211   218.11290
    60  H   1.0    0.06    1.00    1.43   436.33583   134.96074   219.58745
    61  H   1.0    0.05    1.00    1.43   436.80764   131.79394   218.61839
    62  N   5.0   -0.20    3.22    1.96   434.18750   132.60782   211.32708
    63  C   4.0    0.04    4.30    4.19   436.64272   133.01315   212.45170
    64  C   4.0    0.09    3.21    3.04   437.29588   135.77544   212.90888
    65  O   6.0   -0.28    1.12    1.80   438.67277   136.35093   214.68339
    66  C   4.0    0.06    4.25    4.09   438.69860   131.83420   210.75291
    67  O   6.0   -0.25    2.15    1.85   438.14233   132.60098   208.25511
    68  C   4.0   -0.07    4.06    3.73   438.76177   128.96387   211.04044
    69  H   1.0    0.10    1.04    1.43   434.21467   131.72620   209.63637
    70  H   1.0    0.04    1.06    1.44   436.68478   132.08779   214.30411
    71  H   1.0    0.05    1.04    1.43   440.53565   132.61736   211.33026
    72  H   1.0    0.12    1.03    1.43   439.35032   131.82638   207.13132
    73  H   1.0    0.05    1.00    1.43   440.06749   128.13869   209.68375
    74  H   1.0    0.05    1.00    1.43   439.37834   128.46875   212.93387
    75  H   1.0    0.05    1.00    1.43   436.89412   128.15824   210.74704
    76  H   1.0    0.09    1.07    1.44   425.64495   117.22125   227.62425
    77  H   1.0    0.07    1.04    1.43   441.50608   129.18480   226.12881
    78  H   1.0    0.09    1.07    1.44   433.24003   131.64779   212.36304
    79  H   1.0    0.06    1.04    1.44   436.60384   137.11169   211.76582

  Z AO/shell   Hii/eV     exponent
  1     Wed Apr 25 08:07:45 CEST 2018   EN: 2.200 GM2: 0.406  GM3: 0.0800  RAES: 1.40
     1s    -10.707211    1.230000
  6     Wed Apr 25 08:07:45 CEST 2018   EN: 2.550 GM2: 0.538  GM3: 0.1500  RAES: 3.00
     2s    -13.970922    2.096432
     2p    -10.063292    1.800000
  7     Wed Apr 25 08:07:45 CEST 2018   EN: 3.040 GM2: 0.461  GM3:-0.0640  RAES: 1.90
     2s    -16.686243    2.339881
     2p    -12.523956    2.014332
  8     Wed Apr 25 08:07:45 CEST 2018   EN: 3.440 GM2: 0.452  GM3:-0.0517  RAES: 1.80
     2s    -20.229985    2.439742
     2p    -15.503117    2.137023
 no old-style atom pair restraining (fixing) potential

molecular fragmentation (1/2 indicates fragments):
111111111111111111111111111111111111111111111111111111111111122222222222
2221122
# atoms in fragment 1/2:    63    16
 fragment masses (1/2) :      431.49      103.12
CMA distance (Bohr)    :  16.003
constraining FC (au)   :  0.0500
           ------------------------------------------------- 
          |        Self-Consistent Charge Iterations        |
           ------------------------------------------------- 

 Ncao       : 190
 Nao        : 190
 Nshell     : 116
 Nel        : 214
 T(el)      :   500.0
 intcut     :    35.0
 scfconv/Eh :  0.100E-06
   qconv/e  :  0.100E-04
 intneglect :  0.100E-08
 broydamp   :      0.400
 iter      E             dE          RMSdq      gap      omega  full diag
   1   -123.7040043 -0.123704E+03  0.483E+00    3.62       0.0  T
   2   -124.0187777 -0.314773E+00  0.222E+00    2.28       1.0  T
   3   -124.0374494 -0.186717E-01  0.121E+00    2.47       1.0  T
   4   -124.0564948 -0.190454E-01  0.258E-01    2.13       1.0  T
   5   -124.0575165 -0.102169E-02  0.109E-01    2.26       1.0  T
   6   -124.0576556 -0.139104E-03  0.356E-02    2.25       1.0  T
   7   -124.0576759 -0.202967E-04  0.167E-02    2.24       1.0  T
   8   -124.0576780 -0.217612E-05  0.607E-03    2.24       1.9  T
   9   -124.0576787 -0.699166E-06  0.233E-03    2.24       4.8  T
  10   -124.0576788 -0.572030E-07  0.785E-04    2.24      14.3  T
  11   -124.0576788 -0.487934E-08  0.348E-04    2.24      32.4  T
  12   -124.0576788 -0.974083E-09  0.104E-04    2.24     108.6  T
  13   -124.0576788 -0.137490E-09  0.446E-05    2.24     252.2  T
  14   -124.0576788 -0.259917E-10  0.194E-05    2.24     581.1  T
speedup 15.75
cpu  time for SCC    2.10 s
wall time for SCC    0.13 s

   *** convergence criteria satisfied after 14 iterations ***

          eigenvalues
 #    :          95         96         97         98         99        100        101        102
 occ. :        2.000      2.000      2.000      2.000      2.000      2.000      2.000      2.000
 eps  :       -11.710    -11.646    -11.628    -11.571    -11.555    -11.538    -11.253    -11.131
 #    :         103        104        105        106        107        108        109        110
 occ. :        2.000      2.000      2.000      2.000      2.000      0.000      0.000      0.000
 eps  :       -11.065    -10.944    -10.776    -10.513     -9.953     -7.710     -7.636     -6.551
 #    :         111        112        113        114        115        116        117        118
 occ. :        0.000      0.000      0.000      0.000      0.000      0.000      0.000      0.000
 eps  :        -6.380     -6.124     -5.881     -1.017     -0.723     -0.269     -0.156     -0.020


   #   Z            q   n(s)   n(p)   n(d)      C6AA      α(0)
   1   7 N     -0.397  1.307  4.091  0.000    30.293     8.174
   2   6 C      0.012  1.063  2.925  0.000    20.396     6.433
   3   6 C      0.269  1.045  2.686  0.000    22.460     7.761
   4   8 O     -0.498  1.752  4.746  0.000    23.742     6.533
   5   6 C      0.075  1.039  2.886  0.000    19.538     6.333
   6   8 O     -0.475  1.727  4.749  0.000    22.364     6.384
   7   1 H      0.170  0.830  0.000  0.000     1.272     1.767
   8   1 H      0.051  0.949  0.000  0.000     2.305     2.374
   9   1 H      0.049  0.951  0.000  0.000     2.330     2.387
  10   1 H      0.039  0.961  0.000  0.000     2.461     2.453
  11   1 H      0.331  0.669  0.000  0.000     0.635     1.252
  12   7 N     -0.172  1.242  3.929  0.000    24.718     7.384
  13   6 C      0.022  1.056  2.922  0.000    20.209     6.401
  14   6 C      0.270  1.044  2.687  0.000    22.448     7.759
  15   8 O     -0.492  1.748  4.744  0.000    23.605     6.514
  16   6 C     -0.132  1.041  3.091  0.000    23.092     6.851
  17   1 H      0.224  0.776  0.000  0.000     0.990     1.559
  18   1 H      0.086  0.914  0.000  0.000     1.921     2.167
  19   1 H      0.076  0.924  0.000  0.000     2.018     2.221
  20   1 H      0.079  0.921  0.000  0.000     1.990     2.206
  21   1 H      0.069  0.931  0.000  0.000     2.098     2.265
  22   7 N     -0.167  1.232  3.935  0.000    24.612     7.368
  23   6 C      0.005  1.068  2.926  0.000    20.493     6.446
  24   6 C      0.282  1.038  2.680  0.000    22.224     7.720
  25   8 O     -0.501  1.754  4.746  0.000    23.801     6.541
  26   6 C      0.112  1.046  2.842  0.000    18.835     6.196
  27   8 O     -0.474  1.728  4.746  0.000    22.344     6.381
  28   6 C     -0.146  1.047  3.099  0.000    23.373     6.894
  29   1 H      0.210  0.790  0.000  0.000     1.056     1.610
  30   1 H      0.080  0.920  0.000  0.000     1.976     2.198
  31   1 H      0.051  0.949  0.000  0.000     2.310     2.377
  32   1 H      0.332  0.668  0.000  0.000     0.632     1.249
  33   1 H      0.076  0.924  0.000  0.000     2.018     2.221
  34   1 H      0.067  0.933  0.000  0.000     2.122     2.278
  35   1 H      0.066  0.934  0.000  0.000     2.131     2.283
  36   7 N     -0.170  1.236  3.934  0.000    24.685     7.379
  37   6 C     -0.029  1.051  2.978  0.000    21.160     6.562
  38   6 C      0.282  1.038  2.680  0.000    22.227     7.720
  39   8 O     -0.512  1.752  4.760  0.000    24.063     6.577
  40   1 H      0.220  0.780  0.000  0.000     1.008     1.573
  41   1 H      0.084  0.916  0.000  0.000     1.936     2.176
  42   1 H      0.096  0.904  0.000  0.000     1.818     2.109
  43   7 N     -0.172  1.241  3.931  0.000    24.718     7.384
  44   6 C      0.029  1.057  2.914  0.000    20.091     6.383
  45   6 C      0.205  1.086  2.709  0.000    23.642     7.963
  46   8 O     -0.371  1.753  4.617  0.000    21.107     6.160
  47   6 C     -0.071  1.059  3.013  0.000    21.857     6.655
  48   6 C     -0.010  1.056  2.954  0.000    20.719     6.474
  49   6 C     -0.117  1.042  3.075  0.000    22.801     6.808
  50   6 C     -0.112  1.039  3.073  0.000    22.692     6.792
  51   1 H      0.223  0.777  0.000  0.000     0.997     1.564
  52   1 H      0.097  0.903  0.000  0.000     1.811     2.105
  53   1 H      0.061  0.939  0.000  0.000     2.187     2.313
  54   1 H      0.065  0.935  0.000  0.000     2.136     2.286
  55   1 H      0.039  0.961  0.000  0.000     2.465     2.455
  56   1 H      0.052  0.948  0.000  0.000     2.296     2.370
  57   1 H      0.043  0.957  0.000  0.000     2.405     2.425
  58   1 H      0.044  0.956  0.000  0.000     2.397     2.421
  59   1 H      0.046  0.954  0.000  0.000     2.372     2.408
  60   1 H      0.045  0.955  0.000  0.000     2.382     2.414
  61   1 H      0.028  0.972  0.000  0.000     2.612     2.527
  62   7 N     -0.386  1.312  4.074  0.000    29.993     8.134
  63   6 C      0.036  1.055  2.909  0.000    19.990     6.369
  64   6 C      0.201  1.091  2.708  0.000    23.722     7.976
  65   8 O     -0.382  1.759  4.623  0.000    21.323     6.191
  66   6 C      0.124  1.045  2.831  0.000    18.658     6.167
  67   8 O     -0.482  1.726  4.756  0.000    22.507     6.404
  68   6 C     -0.131  1.044  3.087  0.000    23.081     6.851
  69   1 H      0.180  0.820  0.000  0.000     1.211     1.724
  70   1 H      0.053  0.947  0.000  0.000     2.284     2.363
  71   1 H      0.010  0.990  0.000  0.000     2.890     2.658
  72   1 H      0.341  0.659  0.000  0.000     0.610     1.227
  73   1 H      0.058  0.942  0.000  0.000     2.221     2.331
  74   1 H      0.050  0.950  0.000  0.000     2.320     2.382
  75   1 H      0.060  0.940  0.000  0.000     2.194     2.316
  76   1 H      0.188  0.812  0.000  0.000     1.171     1.695
  77   1 H      0.069  0.931  0.000  0.000     2.091     2.261
  78   1 H      0.185  0.815  0.000  0.000     1.186     1.706
  79   1 H      0.081  0.919  0.000  0.000     1.970     2.195

 Mol. C6AA /au·bohr⁶  :      53835.764428
 Mol. C8AA /au·bohr⁸  :    1169530.476697
 Mol. α(0) /au        :        343.892848

 
molecular dipole:
                 x           y           z       tot (Debye)
 q only:       -6.905      -3.320       2.134
   full:       -7.592      -4.624       2.428      23.421
molecular quadrupole (traceless):
                xx          xy          yy          xz          yz          zz
 q only:    -6071.787   -3471.117    1664.516    -958.450    -722.028    4407.271
  q+dip:    -6563.604   -4440.109    1562.274   -1006.134   -1100.377    5001.330
   full:    -6563.677   -4441.599    1561.487   -1007.202   -1099.954    5002.190
speedup 15.76
cpu  time for grad    2.27 s
wall time for grad    0.14 s

SCC energy    :    -124.0595224
rep           :       1.4059738
ES            :       0.3627108
AES           :       0.0076517
AXC           :       0.0338936
disp          :      -0.0778328
XB            :       0.0000000
fix           :       0.0000000
Gborn         :       0.0000000
Gsasa         :       0.0000000
Ghb           :       0.0000000
Gshift        :       0.0000000
Gsolv         :      -0.0630377      -39.56
Etot ala COSMO:    -124.0595224
grad norm     :       0.3136253
total E       :    -122.6511112
atomizationE  :      21.3452932    13394.37
(atE without considering molecular charge,
 total energy contains solvation terms)
H-L gap (eV)  :          2.2430

------------------------------------------------------------------------
 * finished run on 2019/02/13 at 00:18:58.199     
------------------------------------------------------------------------
 total:
 * wall-time:     0 d,  0 h,  0 min,  0.238 sec
 *  cpu-time:     0 d,  0 h,  0 min,  3.264 sec
 * ratio c/w:    13.707 speedup
 SCF:
 * wall-time:     0 d,  0 h,  0 min,  0.158 sec
 *  cpu-time:     0 d,  0 h,  0 min,  2.492 sec
 * ratio c/w:    15.784 speedup

