      -----------------------------------------------------------      
     |                   =====================                   |     
     |                           x T B                           |     
     |                   =====================                   |     
     |                         S. Grimme                         |     
     |          Mulliken Center for Theoretical Chemistry        |     
     |                    University of Bonn                     |     
     |                 Version 6.0.1 (SAW181210)                 |     
      -----------------------------------------------------------      

   This program is distributed in the hope that it will be useful,
   but WITHOUT ANY WARRANTY; without even the implied warranty of
   MERCHANTABILITY or FITNESS FOR A PARTICULAR PURPOSE.
   
   FOR NON-COMMERCIAL, ACADEMIA USE ONLY.
   
   Cite this work as:
   S. Grimme, C. Bannwarth, P. Shushkov, J. Comput. Theory Chem., 2017,
   13, 1989-2009.
   C. Bannwarth, S. Ehlert and S. Grimme., ChemRxiv, 2018, preprint.
   http://doi.org/10.26434/chemrxiv.7246238.v1
   
   for sTDA-xTB:
   S. Grimme and C. Bannwarth, J. Chem. Phys., 2016, 145, 054103.
   
   in the mass-spec context:
   V. Asgeirsson, C. Bauer and S. Grimme, Chem. Sci., 2017, 8, 4879.
   
   if GBSA is used:
   P. Shushkov, F. März and S. Grimme, unpublished.
   
   for ANC optimizer:
   S. Grimme, unpublished.
   Rational Function algorithm used in ANCopt:
   F. Eckert, P. Pulay, H.-J. Werner, J. Comput. Chem., 1997, 18, 1473.
   
   with help from (in alphabetical order)
   C. Bannwarth, F. Bohle, G. Brandenburg, E. Caldeweyher, M. Checinski,
   S. Dohm, S. Ehlert, S. Ehrlich, F. März, H. Neugebauer, J. Pisarek,
   P. Pracht, P. Shushkov, and S. Spicher.
   
 * started run on 2019/03/14 at 15:08:20.752     
========================================================================
 # omp threads = 1
========================================================================
number of atoms            : 728
number of electrons        : 1870
charge                     : 0
spin                       : .0
first test random number   : .6213
           ------------------------------------------------- 
          |                 G F N 2 - x T B                 |
          | Geometry, Frequencies, Noncovalent interactions |
          |            JCTC 2018 parametrisation            |
           ------------------------------------------------- 
 
      method parameters     
 k(s)        :  1.8500
 k(p)        :  2.2300
 k(d)        :  2.2300
 k(f)        :  2.0000
 kEN (H0ij)  : -2.0000
 D4 a1       :  0.5200
 D4 a2       :  5.0000
 D4 s6       :  1.0000
 D4 s8       :  2.7000
 D4 s9       :  5.0000
 alphaj      :  2.0000

 Solvent             : h2o
 Using internal parameter file: .param_gbsa2_h2o
 Gsolv ref. state (COSMO-RS): gsolv [1 M gas/solution]
 temperature (mdtemp)       :    298.150000000000     
 dielectric constant        :    80.2000000000000     
 rho                        :    1.00000000000000     
 mass                       :    18.0000000000000     
 surface tension            :    15.5689454083859     
 probe radius               :   0.975313790000000     
 vdW radii scaling          :    1.00000000000000     
 Gshift (Eh)                :   1.857443126794793E-003
 c1                         :    1.55243817000000     
 soset                      :   0.130326360000000     
 HB correction              :  T

            Z     q(EN)     CN     RAES       Cart. coordinates
     1  N   5.0   -0.22    3.22    1.96    78.38522   121.27380    71.87767
     2  C   4.0    0.02    4.40    4.39    80.22200   120.49023    70.00210
     3  C   4.0    0.13    3.56    3.14    79.30720   118.23326    68.45194
     4  O   6.0   -0.33    1.36    1.80    79.31936   118.40695    66.13072
     5  C   4.0   -0.03    4.34    4.28    82.81070   119.96150    71.20716
     6  C   4.0   -0.05    4.20    4.00    83.87962   122.39942    72.34610
     7  C   4.0   -0.08    4.15    3.90    84.60508   118.88027    69.22568
     8  C   4.0   -0.08    4.02    3.66    86.31902   121.95586    73.80766
     9  H   1.0    0.07    1.03    1.43    79.01986   121.57621    73.66070
    10  H   1.0    0.04    1.06    1.44    80.46237   122.00235    68.58972
    11  H   1.0    0.04    1.05    1.44    82.54062   118.56653    72.70993
    12  H   1.0    0.03    1.03    1.43    84.21866   123.75647    70.83123
    13  H   1.0    0.03    1.03    1.43    82.49657   123.20469    73.64132
    14  H   1.0    0.03    1.00    1.43    86.41227   118.42427    70.07867
    15  H   1.0    0.04    1.01    1.43    83.83698   117.16582    68.40262
    16  H   1.0    0.04    1.00    1.43    84.90943   120.23971    67.71363
    17  H   1.0    0.04    1.00    1.43    86.88188   123.68474    74.75927
    18  H   1.0    0.04    1.00    1.43    86.03558   120.47938    75.21076
    19  H   1.0    0.04    1.00    1.43    87.84452   121.37931    72.56479
    20  N   5.0   -0.11    3.67    2.24    78.66214   116.05721    69.57176
    21  C   4.0    0.03    4.61    4.68    78.00884   113.93455    67.94803
    22  C   4.0    0.16    3.53    3.13    75.85735   114.71728    66.22426
    23  O   6.0   -0.33    1.36    1.80    75.84509   114.21740    63.97446
    24  C   4.0   -0.05    4.30    4.20    77.21310   111.75729    69.67865
    25  C   4.0   -0.05    4.22    4.05    76.79288   112.96665    72.27441
    26  C   4.0   -0.02    4.33    4.26    78.03649   115.58148    72.19405
    27  H   1.0    0.05    1.05    1.44    79.60063   113.41727    66.72987
    28  H   1.0    0.04    1.03    1.43    75.49712   110.87855    68.95093
    29  H   1.0    0.03    1.02    1.43    78.67309   110.31058    69.75546
    30  H   1.0    0.03    1.02    1.43    74.77779   113.15558    72.66038
    31  H   1.0    0.03    1.02    1.43    77.68008   111.86503    73.76532
    32  H   1.0    0.04    1.03    1.43    76.73954   117.01658    72.89145
    33  H   1.0    0.03    1.02    1.43    79.71429   115.62387    73.38854
    34  N   5.0   -0.15    3.56    2.12    73.94686   115.91054    67.36438
    35  C   4.0    0.04    4.52    4.56    71.76544   116.71608    65.94866
    36  C   4.0    0.15    3.46    3.10    72.45555   118.42159    63.72235
    37  O   6.0   -0.33    1.34    1.80    71.21747   118.27175    61.75918
    38  C   4.0   -0.05    4.12    3.85    69.90228   118.09954    67.64584
    39  S   6.0   -0.08    2.38    3.10    68.37240   115.89704    69.82262
    40  H   1.0    0.07    1.08    1.44    74.03679   116.38044    69.20826
    41  H   1.0    0.05    1.06    1.44    70.84121   115.03939    65.13001
    42  H   1.0    0.04    1.06    1.44    70.85490   119.55748    68.73607
    43  H   1.0    0.04    1.07    1.44    68.44200   118.96361    66.48196
    44  H   1.0    0.04    0.98    1.43    70.02310   116.22707    71.68387
    45  N   5.0   -0.14    3.50    2.08    74.33488   120.04732    64.05691
    46  C   4.0    0.03    4.42    4.41    75.11747   121.79226    62.09283
    47  C   4.0    0.15    3.44    3.09    76.55940   120.39866    60.00307
    48  O   6.0   -0.32    1.28    1.80    76.19753   120.86232    57.75646
    49  C   4.0   -0.05    4.35    4.30    76.81104   123.89197    63.14119
    50  C   4.0   -0.03    4.17    3.95    75.55607   125.59471    65.12482
    51  C   4.0   -0.08    4.11    3.81    77.50611   127.51484    66.05406
    52  C   4.0   -0.08    4.10    3.81    73.23456   126.96022    64.09926
    53  H   1.0    0.09    1.07    1.44    75.13413   120.22438    65.79238
    54  H   1.0    0.05    1.05    1.44    73.42739   122.60580    61.20852
    55  H   1.0    0.05    1.03    1.43    78.48013   123.01562    63.98267
    56  H   1.0    0.04    1.03    1.43    77.42474   125.05238    61.54767
    57  H   1.0    0.04    1.05    1.44    74.96520   124.40503    66.70535
    58  H   1.0    0.04    1.00    1.43    76.65883   128.83548    67.37823
    59  H   1.0    0.03    1.00    1.43    79.07360   126.56644    66.98681
    60  H   1.0    0.04    1.00    1.43    78.24183   128.59002    64.46605
    61  H   1.0    0.04    1.00    1.43    72.46404   128.20531    65.53917
    62  H   1.0    0.04    1.00    1.43    73.72312   128.09310    62.45624
    63  H   1.0    0.04    1.00    1.43    71.76453   125.62990    63.56313
    64  N   5.0   -0.14    3.54    2.10    78.25094   118.71634    60.80335
    65  C   4.0    0.03    4.43    4.44    79.77262   117.29677    59.02850
    66  C   4.0    0.15    3.45    3.10    78.14614   115.38541    57.60997
    67  O   6.0   -0.34    1.33    1.80    78.67373   114.74353    55.44202
    68  C   4.0   -0.05    4.38    4.34    81.88004   115.80590    60.32562
    69  C   4.0   -0.02    4.18    3.97    83.61021   117.32099    62.07900
    70  C   4.0   -0.08    4.12    3.83    85.30502   115.44642    63.47338
    71  C   4.0   -0.08    4.10    3.81    85.19421   119.23065    60.62255
    72  H   1.0    0.11    1.10    1.44    78.56081   118.44754    62.67818
    73  H   1.0    0.05    1.05    1.44    80.54350   118.59016    57.60212
    74  H   1.0    0.05    1.03    1.43    80.99702   114.29086    61.41190
    75  H   1.0    0.04    1.03    1.43    83.02907   114.96276    58.83395
    76  H   1.0    0.06    1.07    1.44    82.46424   118.31779    63.47395
    77  H   1.0    0.03    1.00    1.43    86.66131   116.42964    64.65800
    78  H   1.0    0.04    1.00    1.43    84.16654   114.21484    64.66115
    79  H   1.0    0.03    1.00    1.43    86.33019   114.27735    62.13104
    80  H   1.0    0.03    1.00    1.43    86.33496   120.33188    61.92687
    81  H   1.0    0.03    1.00    1.43    86.45281   118.25678    59.32508
    82  H   1.0    0.04    1.00    1.43    84.01170   120.52072    59.54755
    83  N   5.0   -0.14    3.58    2.14    76.19648   114.48219    58.90366
    84  C   4.0    0.03    4.42    4.42    74.28912   112.79369    57.90998
    85  C   4.0    0.16    3.55    3.14    72.51239   114.27956    56.21285
    86  O   6.0   -0.33    1.38    1.80    71.68220   113.40697    54.22551
    87  C   4.0   -0.03    4.37    4.32    72.82428   111.65731    60.12967
    88  C   4.0   -0.01    3.59    3.16    70.27401   110.61388    59.47396
    89  C   4.0   -0.04    3.47    3.10    68.26711   110.95976    61.12713
    90  C   4.0   -0.04    3.56    3.14    69.89675   109.17913    57.31669
    91  C   4.0   -0.04    3.41    3.08    65.99547   109.76325    60.69181
    92  C   4.0   -0.05    3.40    3.08    67.63175   107.93364    56.89973
    93  C   4.0   -0.04    3.42    3.08    65.69712   108.18137    58.62687
    94  H   1.0    0.12    1.15    1.45    76.09572   114.80531    60.79193
    95  H   1.0    0.04    1.05    1.44    75.17474   111.32713    56.74922
    96  H   1.0    0.04    1.03    1.43    73.97415   110.16608    60.98164
    97  H   1.0    0.06    1.05    1.44    72.56916   113.13362    61.53766
    98  H   1.0    0.05    1.03    1.43    68.48576   112.14306    62.77527
    99  H   1.0    0.05    1.04    1.43    71.40477   109.02795    55.95658
   100  H   1.0    0.06    1.04    1.43    64.43609   110.00963    61.97013
   101  H   1.0    0.04    1.03    1.43    67.41212   106.74685    55.25881
   102  H   1.0    0.06    1.04    1.43    63.95430   107.15376    58.42179
   103  N   5.0   -0.13    3.56    2.13    71.96535   116.61307    56.95430
   104  C   4.0    0.04    4.42    4.42    70.67203   118.24952    55.20334
   105  C   4.0    0.16    3.49    3.11    72.35565   118.63802    52.89501
   106  O   6.0   -0.32    1.35    1.80    71.40624   118.99542    50.80923
   107  C   4.0    0.04    4.15    3.90    69.95208   120.79614    56.37517
   108  O   6.0   -0.25    2.04    1.83    68.07366   120.60312    58.22242
   109  H   1.0    0.12    1.11    1.45    72.35557   117.25682    58.71690
   110  H   1.0    0.06    1.06    1.44    68.93080   117.33939    54.53062
   111  H   1.0    0.06    1.01    1.43    71.67602   121.68063    57.11258
   112  H   1.0    0.05    1.02    1.43    69.16055   121.96824    54.87140
   113  H   1.0    0.15    1.06    1.44    68.75608   119.69257    59.66417
   114  N   5.0   -0.13    3.53    2.10    74.85298   118.46005    53.22028
   115  C   4.0    0.04    4.45    4.46    76.47584   118.44586    51.01453
   116  C   4.0    0.16    3.49    3.11    76.31625   115.87627    49.71410
   117  O   6.0   -0.33    1.39    1.80    76.31723   115.74815    47.39881
   118  C   4.0   -0.03    4.33    4.25    79.24241   118.99946    51.66604
   119  C   4.0   -0.01    3.56    3.15    80.76481   119.54541    49.32534
   120  C   4.0   -0.04    3.48    3.10    80.58273   121.91017    48.19248
   121  C   4.0   -0.04    3.46    3.10    82.34345   117.74552    48.25559
   122  C   4.0   -0.05    3.37    3.07    82.09333   122.54171    46.15758
   123  C   4.0   -0.05    3.41    3.08    83.80982   118.35024    46.16891
   124  C   4.0   -0.04    3.38    3.07    83.75446   120.77048    45.18442
   125  H   1.0    0.11    1.10    1.44    75.65306   118.78336    54.93524
   126  H   1.0    0.06    1.06    1.44    75.75582   119.83175    49.64229
   127  H   1.0    0.05    1.03    1.43    79.30752   120.63526    52.92347
   128  H   1.0    0.06    1.05    1.44    79.99527   117.36020    52.66007
   129  H   1.0    0.05    1.03    1.43    79.23584   123.25913    48.92196
   130  H   1.0    0.05    1.03    1.43    82.40265   115.85756    49.03503
   131  H   1.0    0.05    1.03    1.43    81.96081   124.39999    45.32498
   132  H   1.0    0.06    1.03    1.43    85.00220   116.95064    45.28169
   133  H   1.0    0.05    1.03    1.43    84.97129   121.24104    43.61911
   134  N   5.0   -0.13    3.52    2.09    76.14508   113.80945    51.14547
   135  C   4.0    0.04    4.46    4.48    76.01309   111.36958    49.92324
   136  C   4.0    0.15    3.48    3.11    73.55020   111.02068    48.48257
   137  O   6.0   -0.34    1.35    1.80    73.51528   109.55579    46.68717
   138  C   4.0   -0.05    4.39    4.36    76.13705   109.13149    51.73991
   139  C   4.0   -0.02    4.18    3.96    78.62325   108.88012    53.18718
   140  C   4.0   -0.08    4.11    3.83    78.35129   106.84556    55.21361
   141  C   4.0   -0.08    4.11    3.83    80.78807   108.19846    51.41103
   142  H   1.0    0.11    1.12    1.45    76.62792   113.88333    53.00633
   143  H   1.0    0.05    1.06    1.44    77.53708   111.21502    48.52023
   144  H   1.0    0.04    1.03    1.43    74.55023   109.30418    53.04272
   145  H   1.0    0.04    1.04    1.43    75.85002   107.43615    50.59402
   146  H   1.0    0.06    1.06    1.44    79.06635   110.68409    54.08815
   147  H   1.0    0.04    1.00    1.43    80.09508   106.70157    56.28233
   148  H   1.0    0.03    1.00    1.43    76.82888   107.27190    56.52562
   149  H   1.0    0.04    1.00    1.43    77.96375   105.02705    54.33580
   150  H   1.0    0.04    1.00    1.43    82.52541   107.97443    52.47946
   151  H   1.0    0.03    1.00    1.43    80.38479   106.43579    50.43596
   152  H   1.0    0.04    1.00    1.43    81.08725   109.66462    50.00572
   153  N   5.0   -0.14    3.51    2.08    71.51410   112.23791    49.33339
   154  C   4.0    0.03    4.47    4.50    69.09751   112.15321    48.06394
   155  C   4.0    0.16    3.54    3.13    68.87627   114.31923    46.18910
   156  O   6.0   -0.32    1.49    1.80    68.22516   113.91772    44.01547
   157  C   4.0    0.05    4.26    4.12    66.75038   112.27159    49.79609
   158  O   6.0   -0.25    2.13    1.84    66.73131   114.49705    51.25009
   159  C   4.0   -0.08    4.09    3.79    66.53182   109.95814    51.46945
   160  H   1.0    0.12    1.14    1.45    71.63930   113.19265    50.99027
   161  H   1.0    0.05    1.07    1.44    68.98280   110.42729    46.94111
   162  H   1.0    0.05    1.08    1.44    65.13799   112.37946    48.51171
   163  H   1.0    0.14    1.05    1.44    67.90186   114.21409    52.63027
   164  H   1.0    0.05    1.00    1.43    64.88020   110.12888    52.68239
   165  H   1.0    0.03    1.00    1.43    66.35839   108.26064    50.33537
   166  H   1.0    0.05    1.02    1.43    68.21141   109.87460    52.63820
   167  N   5.0   -0.13    3.49    2.07    69.46833   116.59664    47.04967
   168  C   4.0    0.02    4.27    4.15    69.72491   118.72583    45.36885
   169  C   4.0    0.17    3.44    3.09    71.15524   117.79775    43.04732
   170  O   6.0   -0.33    1.40    1.80    70.32050   118.10773    40.92119
   171  H   1.0    0.12    1.13    1.45    69.68635   116.96972    48.91620
   172  H   1.0    0.05    1.02    1.43    67.88845   119.47660    44.77023
   173  H   1.0    0.06    1.03    1.43    70.73175   120.20162    46.39005
   174  N   5.0   -0.14    3.52    2.09    73.29306   116.54336    43.49995
   175  C   4.0    0.04    4.44    4.44    74.64215   115.27061    41.50563
   176  C   4.0    0.15    3.57    3.15    73.30653   112.87977    40.65744
   177  O   6.0   -0.34    1.63    1.81    73.36674   112.34460    38.39942
   178  C   4.0   -0.04    4.36    4.30    77.35497   114.56487    42.17551
   179  C   4.0   -0.02    4.17    3.93    79.31453   116.72721    42.19871
   180  C   4.0   -0.08    4.13    3.85    81.40197   116.13015    40.30423
   181  C   4.0   -0.07    4.13    3.85    78.30186   119.36487    41.64637
   182  H   1.0    0.12    1.14    1.45    74.09392   116.42759    45.24130
   183  H   1.0    0.05    1.07    1.44    74.71415   116.46655    39.81086
   184  H   1.0    0.06    1.04    1.43    77.32642   113.63839    44.00607
   185  H   1.0    0.04    1.06    1.44    77.93589   113.18912    40.76098
   186  H   1.0    0.05    1.08    1.44    80.14296   116.80005    44.08498
   187  H   1.0    0.05    1.00    1.43    82.86336   117.56697    40.37918
   188  H   1.0    0.03    1.00    1.43    82.24118   114.30541    40.71996
   189  H   1.0    0.04    1.00    1.43    80.65074   116.08067    38.38936
   190  H   1.0    0.05    1.01    1.43    79.85934   120.69234    41.81697
   191  H   1.0    0.04    1.00    1.43    77.58194   119.49647    39.72794
   192  H   1.0    0.05    1.00    1.43    76.83552   119.90893    42.97440
   193  N   5.0   -0.13    3.57    2.13    72.06037   111.31501    42.21618
   194  C   4.0    0.04    4.60    4.66    71.03493   109.07993    40.97164
   195  C   4.0    0.16    3.50    3.11    69.27604   109.90471    38.81070
   196  O   6.0   -0.29    1.19    1.80    68.97396   108.58392    36.93389
   197  C   4.0   -0.02    4.26    4.12    69.79900   107.26681    42.87070
   198  C   4.0   -0.07    4.16    3.93    66.99498   107.81606    43.17545
   199  C   4.0   -0.08    4.11    3.83    70.25274   104.54272    42.06654
   200  H   1.0    0.12    1.14    1.45    72.42611   111.17802    44.07211
   201  H   1.0    0.05    1.07    1.44    72.59599   108.07284    40.04828
   202  H   1.0    0.06    1.08    1.44    70.76388   107.54211    44.66824
   203  H   1.0    0.03    1.00    1.43    66.16956   106.58897    44.59850
   204  H   1.0    0.06    1.01    1.43    66.69088   109.76880    43.70851
   205  H   1.0    0.05    1.01    1.43    66.02355   107.51387    41.39339
   206  H   1.0    0.04    1.00    1.43    69.30733   103.24140    43.33963
   207  H   1.0    0.05    1.00    1.43    69.55212   104.22278    40.17166
   208  H   1.0    0.04    1.00    1.43    72.26129   104.13402    42.08157
   209  N   5.0   -0.13    3.63    2.18    68.17368   112.13096    39.21387
   210  C   4.0    0.04    4.41    4.40    66.50664   113.63989    37.65331
   211  C   4.0    0.15    3.44    3.09    67.83844   115.18841    35.62267
   212  O   6.0   -0.28    1.23    1.80    66.88141   115.49997    33.53452
   213  C   4.0   -0.03    4.42    4.42    65.23786   115.55455    39.41961
   214  C   4.0    0.00    3.64    3.19    63.78531   114.33332    41.50145
   215  C   4.0   -0.02    3.54    3.13    63.52315   115.65639    43.74647
   216  C   4.0   -0.04    3.52    3.12    62.89087   111.88986    41.33436
   217  C   4.0   -0.04    3.40    3.08    62.48869   114.52713    45.85771
   218  C   4.0   -0.04    3.41    3.08    61.91091   110.74099    43.46058
   219  C   4.0   -0.04    3.40    3.08    61.70526   112.03499    45.71733
   220  H   1.0    0.12    1.19    1.46    68.44742   112.86039    40.96706
   221  H   1.0    0.06    1.05    1.44    65.13441   112.43966    36.66925
   222  H   1.0    0.07    1.06    1.44    66.71502   116.69508    40.29441
   223  H   1.0    0.05    1.03    1.43    64.01650   116.83512    38.38768
   224  H   1.0    0.05    1.03    1.43    64.19028   117.58277    43.81311
   225  H   1.0    0.05    1.03    1.43    63.02453   110.85702    39.58343
   226  H   1.0    0.06    1.03    1.43    62.37175   115.57252    47.60605
   227  H   1.0    0.05    1.04    1.43    61.40128   108.79655    43.33275
   228  H   1.0    0.05    1.03    1.43    60.93274   111.12432    47.36551
   229  N   5.0   -0.14    3.58    2.14    70.07447   116.18101    36.24781
   230  C   4.0    0.04    4.40    4.38    71.42153   117.75112    34.45317
   231  C   4.0    0.15    3.36    3.07    73.02683   115.94346    32.74301
   232  O   6.0   -0.28    1.22    1.80    73.28687   116.36735    30.46235
   233  C   4.0   -0.03    4.26    4.13    72.86850   119.88226    35.79155
   234  C   4.0   -0.00    3.51    3.12    71.25432   121.98606    36.91339
   235  C   4.0   -0.04    3.47    3.10    72.34387   124.36875    37.21002
   236  C   4.0   -0.02    3.51    3.12    68.78252   121.68884    37.74684
   237  C   4.0   -0.03    3.44    3.09    70.97971   126.39076    38.13257
   238  C   4.0   -0.04    3.43    3.09    67.38849   123.70273    38.67896
   239  C   4.0    0.07    3.44    3.09    68.45619   126.09030    38.81201
   240  O   6.0   -0.24    2.11    1.84    67.15712   128.16434    39.60224
   241  H   1.0    0.12    1.13    1.45    70.46172   116.45856    38.11730
   242  H   1.0    0.07    1.06    1.44    70.04118   118.67847    33.20304
   243  H   1.0    0.05    1.03    1.43    74.00669   119.08480    37.31610
   244  H   1.0    0.05    1.03    1.43    74.16872   120.72948    34.42860
   245  H   1.0    0.05    1.03    1.43    74.30013   124.66763    36.70745
   246  H   1.0    0.06    1.05    1.44    67.86797   119.87647    37.71993
   247  H   1.0    0.06    1.03    1.43    71.81153   128.24336    38.30527
   248  H   1.0    0.05    1.02    1.43    65.44708   123.40267    39.26210
   249  H   1.0    0.12    1.04    1.43    65.38017   127.78017    39.74273
   250  N   5.0   -0.14    3.47    2.06    73.90528   113.91318    33.92824
   251  C   4.0    0.04    4.31    4.22    75.12639   111.68339    32.86383
   252  C   4.0    0.10    3.21    3.04    73.87838   110.76851    30.42201
   253  O   6.0   -0.28    1.13    1.80    75.18881   110.24122    28.56642
   254  C   4.0   -0.04    4.30    4.20    75.64084   109.51738    34.76894
   255  C   4.0   -0.02    4.19    3.98    77.94209   110.14988    36.46066
   256  C   4.0   -0.08    4.12    3.84    77.92641   108.70816    38.96282
   257  C   4.0   -0.08    4.13    3.87    80.45766   109.53029    35.19911
   258  H   1.0    0.12    1.22    1.47    73.42566   113.72849    35.80734
   259  H   1.0    0.06    1.16    1.46    77.02682   112.18876    32.26979
   260  H   1.0    0.07    1.04    1.43    74.00751   109.15726    35.95646
   261  H   1.0    0.05    1.03    1.43    76.03248   107.81514    33.66741
   262  H   1.0    0.05    1.06    1.44    77.88371   112.18339    36.82276
   263  H   1.0    0.03    1.00    1.43    79.59776   109.21006    40.05340
   264  H   1.0    0.05    1.01    1.43    76.28067   109.11931    40.10162
   265  H   1.0    0.04    1.00    1.43    77.96246   106.68832    38.60131
   266  H   1.0    0.04    1.00    1.43    81.98573   110.46544    36.19875
   267  H   1.0    0.04    1.01    1.43    80.79449   107.51000    35.29263
   268  H   1.0    0.06    1.03    1.43    80.46621   110.11875    33.24839
   269  N   5.0   -0.22    3.23    1.96    77.69386    94.92300    45.19204
   270  C   4.0    0.02    4.41    4.39    77.29246    97.05798    46.86326
   271  C   4.0    0.14    3.49    3.11    75.01154    96.54489    48.54145
   272  O   6.0   -0.33    1.44    1.80    75.23045    96.67465    50.86498
   273  C   4.0   -0.03    4.26    4.12    77.00013    99.57013    45.43443
   274  C   4.0   -0.08    4.12    3.85    76.61728   101.74192    47.29898
   275  C   4.0   -0.08    4.13    3.86    79.36305   100.04644    43.86062
   276  H   1.0    0.07    1.02    1.43    77.51585    95.17762    43.30558
   277  H   1.0    0.04    1.06    1.44    78.91510    97.18787    48.15244
   278  H   1.0    0.04    1.05    1.44    75.34593    99.42310    44.20895
   279  H   1.0    0.04    1.00    1.43    76.60873   103.53216    46.29105
   280  H   1.0    0.04    1.00    1.43    74.83565   101.54774    48.30015
   281  H   1.0    0.04    1.00    1.43    78.14106   101.77322    48.68076
   282  H   1.0    0.03    1.00    1.43    79.20306   101.81171    42.82533
   283  H   1.0    0.03    1.00    1.43    80.97969   100.17948    45.12027
   284  H   1.0    0.04    1.00    1.43    79.67703    98.50822    42.53780
   285  N   5.0   -0.15    3.49    2.07    72.82525    96.01271    47.45407
   286  C   4.0    0.03    4.46    4.47    70.58771    95.56756    48.96828
   287  C   4.0    0.16    3.55    3.14    71.18800    93.79960    51.15402
   288  O   6.0   -0.32    1.34    1.80    70.53534    94.31610    53.32778
   289  C   4.0   -0.05    4.38    4.35    68.45933    94.37262    47.41800
   290  C   4.0   -0.03    4.19    3.98    67.66191    95.95293    45.12977
   291  C   4.0   -0.08    4.10    3.81    65.82139    94.41835    43.52414
   292  C   4.0   -0.08    4.11    3.82    66.52298    98.45127    45.98918
   293  H   1.0    0.07    1.06    1.44    72.67006    95.84023    45.55040
   294  H   1.0    0.05    1.05    1.44    69.97306    97.36283    49.80857
   295  H   1.0    0.04    1.03    1.43    69.09266    92.52047    46.77956
   296  H   1.0    0.04    1.03    1.43    66.83629    94.10153    48.66490
   297  H   1.0    0.03    1.06    1.44    69.32838    96.36587    43.98130
   298  H   1.0    0.04    1.00    1.43    65.33255    95.42054    41.80246
   299  H   1.0    0.04    1.00    1.43    66.64837    92.61740    43.01352
   300  H   1.0    0.04    1.00    1.43    64.10773    94.00815    44.57138
   301  H   1.0    0.04    1.00    1.43    65.86363    99.51939    44.37211
   302  H   1.0    0.04    1.00    1.43    64.94561    98.11446    47.26319
   303  H   1.0    0.04    1.00    1.43    67.93384    99.56467    46.97593
   304  N   5.0   -0.15    3.53    2.10    72.28142    91.63364    50.49903
   305  C   4.0    0.03    4.44    4.45    72.84560    89.70801    52.35594
   306  C   4.0    0.16    3.51    3.12    74.36036    90.93174    54.47984
   307  O   6.0   -0.32    1.31    1.80    73.62450    90.86383    56.67235
   308  C   4.0   -0.06    4.36    4.30    74.32832    87.48991    51.24598
   309  C   4.0   -0.03    4.20    3.99    73.22407    86.43631    48.78486
   310  C   4.0   -0.08    4.10    3.81    74.74493    84.12500    47.97906
   311  C   4.0   -0.08    4.11    3.82    70.42165    85.81665    49.01765
   312  H   1.0    0.07    1.07    1.44    72.87460    91.36513    48.69875
   313  H   1.0    0.05    1.05    1.44    71.07112    89.03503    53.20349
   314  H   1.0    0.04    1.03    1.43    76.26534    88.09554    50.87779
   315  H   1.0    0.04    1.03    1.43    74.39065    86.00024    52.67434
   316  H   1.0    0.04    1.06    1.44    73.44915    87.86298    47.31193
   317  H   1.0    0.04    1.00    1.43    73.98644    83.36204    46.23332
   318  H   1.0    0.04    1.00    1.43    76.71977    84.62926    47.69735
   319  H   1.0    0.04    1.00    1.43    74.65984    82.64153    49.39689
   320  H   1.0    0.04    1.00    1.43    69.82514    84.74420    47.37422
   321  H   1.0    0.04    1.00    1.43    70.06008    84.69369    50.68909
   322  H   1.0    0.04    1.00    1.43    69.31174    87.53826    49.13482
   323  N   5.0   -0.14    3.50    2.08    76.51342    92.04613    53.76442
   324  C   4.0    0.03    4.40    4.38    78.25341    93.09364    55.60420
   325  C   4.0    0.17    3.47    3.10    76.92232    94.98694    57.34813
   326  O   6.0   -0.31    1.28    1.80    77.19783    94.93247    59.64543
   327  C   4.0    0.03    4.17    3.93    80.45790    94.44090    54.28402
   328  O   6.0   -0.27    2.10    1.84    79.80189    96.72996    53.15759
   329  H   1.0    0.08    1.06    1.44    77.00296    92.12339    51.90624
   330  H   1.0    0.04    1.05    1.44    79.03844    91.58023    56.78896
   331  H   1.0    0.04    1.02    1.43    81.88570    94.88953    55.71191
   332  H   1.0    0.03    1.01    1.43    81.27444    93.14176    52.87519
   333  H   1.0    0.14    1.08    1.44    78.28759    96.50638    52.10297
   334  N   5.0   -0.13    3.61    2.17    75.57334    96.68859    56.08838
   335  C   4.0    0.03    4.45    4.46    74.30402    98.85654    57.16516
   336  C   4.0    0.16    3.48    3.11    72.52289    97.91582    59.21162
   337  O   6.0   -0.33    1.29    1.80    72.53355    98.76716    61.36278
   338  C   4.0   -0.04    4.40    4.38    72.92389   100.17383    54.99161
   339  C   4.0   -0.03    4.16    3.93    71.51687   102.63071    55.63810
   340  C   4.0   -0.08    4.15    3.89    72.77126   103.99429    57.84076
   341  C   4.0   -0.08    4.11    3.83    71.43458   104.20898    53.21428
   342  H   1.0    0.12    1.15    1.45    75.38230    96.53615    54.19689
   343  H   1.0    0.05    1.05    1.44    75.69391   100.11998    58.03338
   344  H   1.0    0.05    1.04    1.43    74.35838   100.60911    53.57205
   345  H   1.0    0.06    1.03    1.43    71.60723    98.82287    54.16416
   346  H   1.0    0.04    1.05    1.44    69.57922   102.19127    56.21513
   347  H   1.0    0.04    1.04    1.43    71.88456   105.80541    58.17634
   348  H   1.0    0.05    1.01    1.43    72.54669   102.87703    59.54087
   349  H   1.0    0.03    1.01    1.43    74.76520   104.27696    57.48932
   350  H   1.0    0.04    1.01    1.43    70.82053   106.12914    53.53460
   351  H   1.0    0.04    1.00    1.43    73.30585   104.31582    52.37665
   352  H   1.0    0.04    1.00    1.43    70.13019   103.35167    51.87863
   353  N   5.0   -0.14    3.56    2.12    70.99530    96.08786    58.40344
   354  C   4.0    0.04    4.46    4.48    69.22142    94.80070    60.01532
   355  C   4.0    0.15    3.50    3.11    70.58012    93.62624    62.26766
   356  O   6.0   -0.29    1.27    1.80    69.77466    94.01348    64.40858
   357  C   4.0    0.06    4.23    4.07    67.68458    92.88957    58.42763
   358  O   6.0   -0.25    2.13    1.84    66.32034    94.17963    56.54502
   359  C   4.0   -0.06    4.09    3.79    65.78334    91.49232    60.07097
   360  H   1.0    0.11    1.12    1.45    71.16980    95.42612    56.61488
   361  H   1.0    0.06    1.05    1.44    67.89952    96.19746    60.81012
   362  H   1.0    0.06    1.04    1.43    69.01635    91.54656    57.56577
   363  H   1.0    0.14    1.05    1.44    67.45574    94.62967    55.18004
   364  H   1.0    0.05    1.00    1.43    64.47319    90.48325    58.85648
   365  H   1.0    0.05    1.00    1.43    66.72622    90.16728    61.31718
   366  H   1.0    0.05    1.00    1.43    64.72817    92.85175    61.18727
   367  N   5.0   -0.14    3.50    2.08    72.65903    92.26856    61.82961
   368  C   4.0    0.04    4.54    4.59    73.96484    91.18404    63.98783
   369  C   4.0    0.17    3.54    3.13    74.60446    93.29817    65.84847
   370  O   6.0   -0.32    1.31    1.80    74.20803    93.09255    68.12407
   371  C   4.0   -0.02    4.27    4.14    76.44089    89.76927    63.39031
   372  C   4.0   -0.08    4.13    3.86    77.03720    88.04312    65.62519
   373  C   4.0   -0.07    4.13    3.87    76.25018    88.23172    60.96789
   374  H   1.0    0.11    1.10    1.44    73.16594    91.75741    60.05589
   375  H   1.0    0.05    1.05    1.44    72.66018    89.88525    64.95959
   376  H   1.0    0.05    1.06    1.44    77.95742    91.15804    63.18111
   377  H   1.0    0.04    1.00    1.43    78.76492    86.98671    65.28826
   378  H   1.0    0.05    1.00    1.43    77.26380    89.13505    67.34931
   379  H   1.0    0.04    1.00    1.43    75.49487    86.71153    65.89584
   380  H   1.0    0.04    1.00    1.43    77.72031    86.79806    60.91685
   381  H   1.0    0.05    1.01    1.43    74.41760    87.33309    60.86465
   382  H   1.0    0.06    1.02    1.43    76.45012    89.43871    59.33078
   383  N   5.0   -0.14    3.56    2.12    75.74200    95.29306    64.81673
   384  C   4.0    0.04    4.47    4.49    76.63462    97.38928    66.33128
   385  C   4.0    0.16    3.48    3.11    74.48565    98.40161    67.96762
   386  O   6.0   -0.32    1.30    1.80    74.77973    98.74361    70.23914
   387  C   4.0   -0.04    4.33    4.26    77.71540    99.45880    64.63366
   388  C   4.0   -0.01    3.56    3.14    79.95615    98.60311    63.09632
   389  C   4.0   -0.04    3.47    3.10    80.86089   100.14754    61.17042
   390  C   4.0   -0.03    3.52    3.12    81.12877    96.29380    63.49837
   391  C   4.0   -0.04    3.37    3.07    82.86343    99.39414    59.66932
   392  C   4.0   -0.04    3.39    3.07    83.09433    95.51770    61.96514
   393  C   4.0   -0.04    3.37    3.07    83.98567    97.06273    60.05650
   394  H   1.0    0.12    1.11    1.45    76.09241    95.34363    62.93141
   395  H   1.0    0.05    1.05    1.44    78.08600    96.73328    67.67008
   396  H   1.0    0.06    1.04    1.43    76.22915   100.08867    63.34545
   397  H   1.0    0.04    1.03    1.43    78.25041   101.06400    65.81871
   398  H   1.0    0.04    1.03    1.43    79.98449   101.96544    60.86553
   399  H   1.0    0.05    1.04    1.43    80.52313    95.07188    65.01189
   400  H   1.0    0.05    1.03    1.43    83.53106   100.61401    58.17792
   401  H   1.0    0.04    1.03    1.43    83.90319    93.67022    62.26264
   402  H   1.0    0.05    1.03    1.43    85.55980    96.45294    58.90979
   403  N   5.0   -0.14    3.49    2.07    72.37341    98.98555    66.73310
   404  C   4.0    0.04    4.34    4.28    70.23062   100.04351    68.05553
   405  C   4.0    0.09    3.25    3.04    69.28105    98.18085    70.04366
   406  O   6.0   -0.30    1.12    1.80    68.73394    98.92813    72.17393
   407  C   4.0   -0.05    4.34    4.27    68.10643   100.77301    66.24125
   408  C   4.0   -0.02    4.19    3.98    68.88776   102.73755    64.25732
   409  C   4.0   -0.07    4.11    3.83    66.66355   103.26277    62.50253
   410  C   4.0   -0.08    4.11    3.82    69.80206   105.19444    65.45311
   411  H   1.0    0.11    1.11    1.44    72.21651    98.64550    64.85409
   412  H   1.0    0.05    1.06    1.44    70.85524   101.71487    69.11687
   413  H   1.0    0.05    1.03    1.43    67.46090    99.06390    65.28283
   414  H   1.0    0.04    1.03    1.43    66.54162   101.52522    67.35644
   415  H   1.0    0.06    1.07    1.44    70.41956   101.93855    63.13120
   416  H   1.0    0.04    1.01    1.43    67.20301   104.61960    61.06225
   417  H   1.0    0.05    1.00    1.43    66.05228   101.53785    61.57191
   418  H   1.0    0.04    1.00    1.43    65.08231   104.04614    63.55206
   419  H   1.0    0.04    1.00    1.43    70.09692   106.60640    63.99154
   420  H   1.0    0.04    1.00    1.43    68.40632   105.91403    66.77677
   421  H   1.0    0.04    1.00    1.43    71.57579   104.91296    66.44746
   422  N   5.0   -0.19    3.27    1.97    72.31966    93.92235    73.01942
   423  C   4.0    0.03    4.41    4.40    74.08686    93.80850    75.10906
   424  C   4.0    0.15    3.49    3.11    73.98197    96.24485    76.61933
   425  O   6.0   -0.29    1.27    1.80    74.27908    96.26502    78.93484
   426  C   4.0   -0.02    4.26    4.12    76.79589    93.22330    74.24775
   427  C   4.0   -0.07    4.14    3.88    78.54718    93.19028    76.53834
   428  C   4.0   -0.07    4.13    3.86    76.86737    90.64470    72.96492
   429  H   1.0    0.12    1.07    1.44    73.04234    93.98635    71.24789
   430  H   1.0    0.05    1.06    1.44    73.51484    92.29609    76.41366
   431  H   1.0    0.05    1.05    1.44    77.39433    94.70139    72.92408
   432  H   1.0    0.04    1.00    1.43    80.47257    92.72777    75.99204
   433  H   1.0    0.06    1.00    1.43    78.58974    95.00334    77.50362
   434  H   1.0    0.05    1.00    1.43    77.88492    91.76704    77.86741
   435  H   1.0    0.04    1.00    1.43    78.79361    90.18444    72.41998
   436  H   1.0    0.04    1.00    1.43    76.20583    89.22398    74.29303
   437  H   1.0    0.06    1.01    1.43    75.66445    90.63398    71.30555
   438  N   5.0   -0.13    3.51    2.08    73.41403    98.36689    75.39103
   439  C   4.0    0.04    4.44    4.44    73.08496   100.66501    76.84873
   440  C   4.0    0.10    3.26    3.04    70.78729   100.29723    78.59638
   441  O   6.0   -0.28    1.11    1.80    70.84607   101.02482    80.80695
   442  C   4.0   -0.02    4.31    4.21    72.93694   103.00067    75.12821
   443  C   4.0   -0.04    4.20    4.00    75.47700   103.33600    73.76108
   444  C   4.0   -0.07    4.13    3.85    72.30757   105.34385    76.68787
   445  C   4.0   -0.08    4.01    3.64    75.35812   105.18738    71.55906
   446  H   1.0    0.12    1.10    1.44    73.40747    98.44508    73.47685
   447  H   1.0    0.06    1.06    1.44    74.71845   100.87170    78.12422
   448  H   1.0    0.06    1.05    1.44    71.44106   102.66409    73.73826
   449  H   1.0    0.04    1.03    1.43    76.89542   103.96646    75.12079
   450  H   1.0    0.06    1.05    1.44    76.09507   101.51532    73.02756
   451  H   1.0    0.04    1.00    1.43    72.15145   106.99684    75.48318
   452  H   1.0    0.05    1.00    1.43    70.54067   105.09650    77.70219
   453  H   1.0    0.05    1.00    1.43    73.80205   105.68154    78.05843
   454  H   1.0    0.04    1.00    1.43    77.14476   105.17795    70.54395
   455  H   1.0    0.04    1.00    1.43    73.87723   104.61456    70.25757
   456  H   1.0    0.03    1.00    1.43    74.98850   107.10059    72.19763
   457  N   5.0   -0.21    3.25    1.97    52.61420   113.66680    69.07061
   458  C   4.0    0.03    4.32    4.24    54.44954   114.35789    67.15554
   459  C   4.0    0.15    3.54    3.13    55.61395   111.91620    66.20440
   460  O   6.0   -0.32    1.40    1.80    55.39992   111.34440    63.95313
   461  C   4.0   -0.04    4.31    4.22    56.33945   116.25660    68.22562
   462  C   4.0   -0.02    3.53    3.13    58.91004   116.46898    66.99871
   463  C   4.0   -0.04    3.48    3.11    60.71497   117.91640    68.25388
   464  C   4.0   -0.04    3.50    3.12    59.60046   115.30410    64.74990
   465  C   4.0   -0.04    3.42    3.08    63.16315   118.05776    67.36446
   466  C   4.0   -0.04    3.37    3.07    62.08204   115.35827    63.90734
   467  C   4.0   -0.04    3.40    3.08    63.87432   116.70351    65.24037
   468  H   1.0    0.08    1.02    1.43    53.03509   114.00127    70.91441
   469  H   1.0    0.05    1.05    1.44    53.41999   115.13915    65.52814
   470  H   1.0    0.04    1.03    1.43    55.41181   118.10016    68.19222
   471  H   1.0    0.04    1.04    1.43    56.66106   115.75662    70.20460
   472  H   1.0    0.05    1.03    1.43    60.19941   118.96376    69.92988
   473  H   1.0    0.07    1.06    1.44    58.19406   114.37596    63.61807
   474  H   1.0    0.05    1.04    1.44    64.50112   119.21018    68.38037
   475  H   1.0    0.05    1.03    1.43    62.65457   114.36288    62.21510
   476  H   1.0    0.05    1.03    1.43    65.79544   116.69332    64.56086
   477  N   5.0   -0.15    3.47    2.06    56.77786   110.44995    67.85356
   478  C   4.0    0.03    4.41    4.39    58.11784   108.22437    66.96724
   479  C   4.0    0.10    3.32    3.06    56.30523   106.73984    65.28127
   480  O   6.0   -0.30    1.20    1.80    56.92880   106.08890    63.13395
   481  C   4.0   -0.03    4.23    4.07    59.32480   106.77869    69.19821
   482  C   4.0   -0.07    4.11    3.83    57.67733   104.66668    70.25591
   483  C   4.0   -0.08    4.11    3.81    61.88723   105.70275    68.42293
   484  H   1.0    0.07    1.06    1.44    56.90692   110.86834    69.72211
   485  H   1.0    0.05    1.06    1.44    59.65364   108.86472    65.71810
   486  H   1.0    0.04    1.06    1.44    59.62211   108.17219    70.69776
   487  H   1.0    0.04    1.00    1.43    58.59507   103.86484    71.90984
   488  H   1.0    0.04    1.00    1.43    55.83649   105.36997    70.81656
   489  H   1.0    0.05    1.00    1.43    57.43846   103.17911    68.85978
   490  H   1.0    0.04    1.00    1.43    62.74396   104.72302    70.01341
   491  H   1.0    0.05    1.00    1.43    61.65699   104.35870    66.88562
   492  H   1.0    0.04    1.00    1.43    63.16203   107.19493    67.81773
   493  N   5.0   -0.20    3.25    1.97    55.44385   110.10973    58.98926
   494  C   4.0    0.04    4.20    4.00    57.60605   109.78497    57.36603
   495  C   4.0    0.09    3.22    3.04    57.64208   107.13110    56.25453
   496  O   6.0   -0.33    1.25    1.80    58.43894   106.78663    54.10443
   497  C   4.0    0.04    4.16    3.92    59.99785   110.33592    58.88905
   498  O   6.0   -0.26    2.10    1.84    60.63931   108.47271    60.63740
   499  H   1.0    0.13    1.10    1.44    55.69874   110.46854    60.85052
   500  H   1.0    0.05    1.05    1.44    57.50192   111.08989    55.75357
   501  H   1.0    0.05    1.02    1.43    61.61975   110.47802    57.61601
   502  H   1.0    0.04    1.01    1.43    59.67650   112.17380    59.80160
   503  H   1.0    0.16    1.08    1.44    59.20359   107.86475    61.63369
   504  N   5.0   -0.21    3.21    1.96    56.64185   104.41836    50.03138
   505  C   4.0    0.03    4.25    4.09    58.18318   102.55828    48.70542
   506  C   4.0    0.09    3.20    3.04    56.38319   100.71505    47.38502
   507  O   6.0   -0.29    1.12    1.80    56.64338   100.25257    45.12513
   508  C   4.0    0.05    4.17    3.94    60.31872   101.27180    50.22098
   509  O   6.0   -0.25    2.08    1.84    59.50777    99.62687    52.13806
   510  C   4.0   -0.07    4.06    3.73    62.20374   103.23789    51.23289
   511  H   1.0    0.12    1.10    1.44    57.19971   105.11120    51.74414
   512  H   1.0    0.05    1.07    1.44    59.12934   103.50590    47.12966
   513  H   1.0    0.04    1.04    1.43    61.33340   100.05988    48.86352
   514  H   1.0    0.12    1.02    1.43    57.84535   100.11846    52.77429
   515  H   1.0    0.05    1.00    1.43    63.58557   102.33216    52.45661
   516  H   1.0    0.03    1.00    1.43    63.18509   104.12751    49.66684
   517  H   1.0    0.07    1.02    1.43    61.22554   104.66498    52.32609
   518  N   5.0   -0.22    3.22    1.96    90.55777    97.52286    50.24774
   519  C   4.0    0.03    4.25    4.10    88.94095    96.25484    52.04316
   520  C   4.0    0.07    3.23    3.04    90.53095    95.10628    54.14223
   521  O   6.0   -0.34    1.23    1.80    90.02838    95.57228    56.35970
   522  C   4.0   -0.05    4.37    4.32    87.40192    94.17225    50.78101
   523  C   4.0   -0.03    4.21    4.01    85.89915    95.07593    48.48644
   524  C   4.0   -0.08    4.12    3.83    84.37993    92.86156    47.46386
   525  C   4.0   -0.08    4.12    3.83    84.19818    97.31859    49.06982
   526  H   1.0    0.08    1.03    1.43    90.51559    96.90677    48.43563
   527  H   1.0    0.04    1.05    1.44    87.68690    97.63426    52.95961
   528  H   1.0    0.04    1.03    1.43    88.70083    92.69063    50.17067
   529  H   1.0    0.04    1.03    1.43    86.11463    93.37448    52.18443
   530  H   1.0    0.03    1.06    1.44    87.23302    95.65339    47.02361
   531  H   1.0    0.03    1.00    1.43    83.29181    93.45454    45.83405
   532  H   1.0    0.04    1.00    1.43    85.63927    91.33689    46.89644
   533  H   1.0    0.04    1.00    1.43    83.08487    92.14018    48.88851
   534  H   1.0    0.03    1.00    1.43    83.15616    97.82792    47.37859
   535  H   1.0    0.05    1.02    1.43    82.85012    96.88017    50.54957
   536  H   1.0    0.04    1.00    1.43    85.30536    98.93520    49.67972
   537  N   5.0   -0.20    3.21    1.96    94.34168    99.49882    58.27660
   538  C   4.0    0.03    4.35    4.30    92.52396   100.65773    59.95316
   539  C   4.0    0.14    3.48    3.11    91.67899    98.84249    62.03107
   540  O   6.0   -0.32    1.37    1.80    91.82465    99.51991    64.25190
   541  C   4.0    0.05    4.23    4.05    90.24088   101.70553    58.45157
   542  O   6.0   -0.26    2.12    1.84    91.02569   103.55704    56.71071
   543  C   4.0   -0.07    4.10    3.80    88.34982   102.95789    60.22650
   544  H   1.0    0.09    1.03    1.43    93.78129    99.23425    56.46455
   545  H   1.0    0.05    1.05    1.44    93.47248   102.22624    60.93852
   546  H   1.0    0.05    1.04    1.43    89.34517   100.10977    57.46598
   547  H   1.0    0.11    1.02    1.43    91.69390   102.72815    55.21617
   548  H   1.0    0.04    1.00    1.43    86.85974   103.84866    59.12932
   549  H   1.0    0.04    1.00    1.43    87.51652   101.59677    61.51261
   550  H   1.0    0.04    1.00    1.43    89.32471   104.41046    61.29824
   551  N   5.0   -0.15    3.45    2.05    90.82331    96.56939    61.37578
   552  C   4.0    0.04    4.40    4.39    90.07731    94.84418    63.37040
   553  C   4.0    0.10    3.36    3.07    92.16347    94.88279    65.38553
   554  O   6.0   -0.29    1.12    1.80    91.69321    94.94745    67.65354
   555  C   4.0   -0.03    4.25    4.10    89.72978    92.03916    62.62001
   556  C   4.0   -0.07    4.13    3.86    88.35210    90.70838    64.78416
   557  C   4.0   -0.08    4.10    3.80    88.37814    91.55032    60.12353
   558  H   1.0    0.11    1.12    1.45    90.59530    96.06540    59.54040
   559  H   1.0    0.05    1.05    1.44    88.32836    95.55508    64.24696
   560  H   1.0    0.04    1.06    1.44    91.60787    91.19955    62.42886
   561  H   1.0    0.04    1.00    1.43    87.94209    88.75576    64.29702
   562  H   1.0    0.05    1.00    1.43    89.49517    90.73198    66.48903
   563  H   1.0    0.04    1.00    1.43    86.58151    91.66872    65.19164
   564  H   1.0    0.04    1.00    1.43    88.26868    89.51862    59.82705
   565  H   1.0    0.04    1.01    1.43    86.47924    92.30593    60.10574
   566  H   1.0    0.06    1.02    1.43    89.40297    92.38966    58.56593
   567  N   5.0   -0.20    3.22    1.96    92.89878   100.67872    69.37442
   568  C   4.0    0.04    4.22    4.05    90.79633   100.89556    71.11177
   569  C   4.0    0.09    3.20    3.04    91.23617    99.11521    73.35217
   570  O   6.0   -0.29    1.11    1.80    91.04023    99.83714    75.54961
   571  C   4.0   -0.04    4.33    4.25    88.26918   100.36810    69.82487
   572  C   4.0   -0.02    4.18    3.96    87.65706   102.19485    67.65236
   573  C   4.0   -0.08    4.11    3.81    85.14727   101.44897    66.43845
   574  C   4.0   -0.08    4.11    3.82    87.53712   104.93671    68.53079
   575  H   1.0    0.12    1.07    1.44    92.54817   100.02756    67.60866
   576  H   1.0    0.05    1.05    1.44    90.78650   102.80990    71.91444
   577  H   1.0    0.06    1.03    1.43    88.29338    98.43392    69.10300
   578  H   1.0    0.04    1.03    1.43    86.80189   100.48426    71.27666
   579  H   1.0    0.06    1.07    1.44    89.14584   102.01075    66.23441
   580  H   1.0    0.04    1.00    1.43    84.68347   102.73165    64.90279
   581  H   1.0    0.04    1.00    1.43    85.23753    99.53531    65.69543
   582  H   1.0    0.04    1.00    1.43    83.63663   101.53007    67.82991
   583  H   1.0    0.03    1.00    1.43    86.99319   106.14798    66.96531
   584  H   1.0    0.04    1.00    1.43    86.14763   105.14587    70.03210
   585  H   1.0    0.04    1.00    1.43    89.35499   105.57021    69.24151
   586  N   5.0   -0.21    3.23    1.96    98.84188   113.99136    57.96010
   587  C   4.0    0.03    4.40    4.38    96.18355   113.57250    57.43750
   588  C   4.0    0.14    3.48    3.11    95.28321   115.47602    55.48309
   589  O   6.0   -0.33    1.35    1.80    94.28999   114.66998    53.53312
   590  C   4.0   -0.03    4.27    4.14    94.61923   113.72070    59.88509
   591  C   4.0   -0.08    4.13    3.86    91.80879   114.13988    59.37746
   592  C   4.0   -0.08    4.11    3.83    94.97382   111.30691    61.41952
   593  H   1.0    0.08    1.03    1.43    99.26481   114.36911    59.79459
   594  H   1.0    0.05    1.06    1.44    95.92567   111.71323    56.54858
   595  H   1.0    0.03    1.06    1.44    95.33466   115.33435    60.95297
   596  H   1.0    0.03    1.00    1.43    90.85984   114.60311    61.13979
   597  H   1.0    0.04    1.01    1.43    91.49413   115.68256    58.06449
   598  H   1.0    0.04    1.00    1.43    90.95988   112.44741    58.58278
   599  H   1.0    0.04    1.00    1.43    94.04998   111.49723    63.24338
   600  H   1.0    0.04    1.00    1.43    94.13792   109.71327    60.42727
   601  H   1.0    0.04    1.00    1.43    96.96841   110.93289    61.71169
   602  N   5.0   -0.15    3.45    2.05    95.61698   117.91335    55.94788
   603  C   4.0    0.03    4.43    4.43    94.66473   119.81942    54.22279
   604  C   4.0    0.08    3.31    3.05    96.08176   119.60056    51.73103
   605  O   6.0   -0.33    1.25    1.80    94.96980   119.89474    49.71587
   606  C   4.0   -0.03    4.30    4.19    94.83064   122.51131    55.31469
   607  C   4.0   -0.05    4.18    3.95    92.68055   123.22428    57.14897
   608  C   4.0   -0.07    4.17    3.94    94.79974   124.46256    53.18225
   609  C   4.0   -0.08    4.03    3.67    91.26655   121.06943    58.41505
   610  H   1.0    0.07    1.06    1.44    96.21954   118.51923    57.67721
   611  H   1.0    0.05    1.07    1.44    92.70266   119.36604    53.73603
   612  H   1.0    0.04    1.06    1.44    96.62930   122.62913    56.32295
   613  H   1.0    0.03    1.03    1.43    93.49345   124.40851    58.62930
   614  H   1.0    0.03    1.04    1.43    91.32060   124.37458    56.11040
   615  H   1.0    0.04    1.00    1.43    94.73752   126.36088    53.96380
   616  H   1.0    0.05    1.00    1.43    96.44295   124.30717    51.96378
   617  H   1.0    0.04    1.00    1.43    93.11832   124.18090    52.03265
   618  H   1.0    0.03    1.00    1.43    89.83725   121.88082    59.64066
   619  H   1.0    0.03    1.00    1.43    90.32441   119.86466    57.04354
   620  H   1.0    0.04    1.00    1.43    92.53368   119.92959    59.54805
   621  N   5.0   -0.20    3.25    1.97    93.18769   114.37316    48.58408
   622  C   4.0    0.03    4.37    4.33    90.70799   115.03123    47.62925
   623  C   4.0    0.14    3.46    3.10    90.91259   116.83937    45.38551
   624  O   6.0   -0.34    1.34    1.80    89.26537   116.81686    43.73224
   625  C   4.0   -0.02    4.25    4.09    88.78348   116.14322    49.53208
   626  C   4.0   -0.08    4.09    3.79    88.52572   114.54228    51.91181
   627  C   4.0   -0.07    4.12    3.84    89.24120   118.93885    50.10312
   628  H   1.0    0.13    1.09    1.44    93.64693   114.91273    50.36906
   629  H   1.0    0.04    1.06    1.44    89.90286   113.27338    46.86681
   630  H   1.0    0.04    1.08    1.44    86.98413   116.01656    48.53697
   631  H   1.0    0.04    1.00    1.43    87.15201   115.39805    53.17961
   632  H   1.0    0.04    1.00    1.43    87.84315   112.67327    51.40278
   633  H   1.0    0.06    1.02    1.43    90.31407   114.36125    52.89153
   634  H   1.0    0.04    1.00    1.43    88.15929   119.53947    51.74419
   635  H   1.0    0.06    1.03    1.43    91.22409   119.32027    50.41636
   636  H   1.0    0.05    1.00    1.43    88.63286   120.08102    48.50707
   637  N   5.0   -0.15    3.49    2.07    92.90123   118.36225    45.31751
   638  C   4.0    0.04    4.41    4.40    93.41270   120.00039    43.18995
   639  C   4.0    0.08    3.27    3.05    94.55975   118.53151    40.99719
   640  O   6.0   -0.30    1.14    1.80    94.23636   119.27247    38.82191
   641  C   4.0   -0.02    4.27    4.14    95.21958   122.17288    43.90245
   642  C   4.0   -0.07    4.15    3.89    96.19303   123.57801    41.57600
   643  C   4.0   -0.07    4.12    3.84    93.88991   124.02575    45.65739
   644  H   1.0    0.11    1.13    1.45    94.01882   118.54415    46.87106
   645  H   1.0    0.05    1.06    1.44    91.60664   120.75072    42.50018
   646  H   1.0    0.05    1.06    1.44    96.81525   121.28842    44.87193
   647  H   1.0    0.04    1.00    1.43    97.32675   125.18589    42.15935
   648  H   1.0    0.06    1.01    1.43    97.33181   122.35966    40.38184
   649  H   1.0    0.05    1.00    1.43    94.62444   124.27692    40.44779
   650  H   1.0    0.04    1.00    1.43    95.17688   125.52184    46.22322
   651  H   1.0    0.04    1.00    1.43    92.29494   124.87457    44.68187
   652  H   1.0    0.06    1.01    1.43    93.21421   123.05043    47.32541
   653  N   5.0   -0.20    3.24    1.97    93.13432   112.45503    40.29062
   654  C   4.0    0.03    4.33    4.25    90.66958   111.58012    39.46653
   655  C   4.0    0.15    3.46    3.10    89.54526   113.59172    37.72927
   656  O   6.0   -0.32    1.31    1.80    88.77174   113.03102    35.63336
   657  C   4.0   -0.05    4.38    4.34    88.98023   111.10010    41.75181
   658  C   4.0   -0.02    4.19    3.98    86.23933   110.42009    41.12014
   659  C   4.0   -0.08    4.12    3.83    86.09330   108.26554    39.21549
   660  C   4.0   -0.08    4.11    3.82    84.90486   109.71645    43.58325
   661  H   1.0    0.08    1.02    1.43    93.55459   112.31372    42.15674
   662  H   1.0    0.04    1.05    1.44    90.84549   109.86598    38.30577
   663  H   1.0    0.03    1.03    1.43    89.80034   109.57576    42.85583
   664  H   1.0    0.06    1.05    1.44    88.97894   112.80004    42.90615
   665  H   1.0    0.04    1.05    1.44    85.32637   112.08852    40.30185
   666  H   1.0    0.03    1.00    1.43    84.18712   107.51082    39.14001
   667  H   1.0    0.05    1.00    1.43    86.63052   108.93726    37.35174
   668  H   1.0    0.04    1.00    1.43    87.37034   106.76240    39.76865
   669  H   1.0    0.03    1.00    1.43    82.90255   109.38338    43.27523
   670  H   1.0    0.03    1.00    1.43    85.72670   108.01001    44.37889
   671  H   1.0    0.04    1.00    1.43    85.11319   111.23447    44.95141
   672  N   5.0   -0.14    3.46    2.05    89.49733   115.96881    38.65099
   673  C   4.0    0.05    4.39    4.35    88.05765   117.84221    37.26402
   674  C   4.0    0.10    3.25    3.04    89.29498   118.45802    34.72464
   675  O   6.0   -0.28    1.13    1.80    88.03741   119.14166    32.88856
   676  C   4.0   -0.03    4.29    4.17    87.59981   120.27475    38.74893
   677  C   4.0    0.15    3.23    3.04    85.23583   121.60312    37.73139
   678  O   6.0   -0.30    1.24    1.80    83.85771   120.68278    36.13388
   679  N   5.0   -0.19    3.18    1.95    84.73340   123.86361    38.77112
   680  H   1.0    0.11    1.13    1.45    89.56278   116.22406    40.56674
   681  H   1.0    0.06    1.08    1.44    86.18975   117.04933    36.83069
   682  H   1.0    0.05    1.03    1.43    87.28070   119.76433    40.72526
   683  H   1.0    0.05    1.02    1.43    89.23019   121.52822    38.61287
   684  H   1.0    0.09    1.03    1.43    83.18913   124.78834    38.13717
   685  H   1.0    0.08    1.03    1.43    85.79031   124.63164    40.14666
   686  N   5.0   -0.19    3.21    1.96    88.77003   113.71701    30.53749
   687  C   4.0    0.05    4.29    4.18    86.04994   113.49237    30.51950
   688  C   4.0    0.10    3.35    3.06    84.99820   115.04549    28.29957
   689  O   6.0   -0.26    1.14    1.80    83.76762   114.18574    26.53980
   690  C   4.0   -0.03    4.33    4.25    84.64219   114.24092    32.94067
   691  C   4.0    0.05    3.91    3.47    81.99903   114.75887    32.18813
   692  N   5.0   -0.16    2.71    1.91    80.82009   113.18426    30.51050
   693  C   4.0   -0.01    3.60    3.17    80.57297   116.87198    32.54143
   694  C   4.0    0.09    3.75    3.29    78.76752   114.37167    29.80579
   695  N   5.0   -0.11    3.50    2.08    78.51445   116.58717    31.02216
   696  H   1.0    0.11    1.02    1.43    89.76915   115.09490    31.42366
   697  H   1.0    0.06    1.07    1.44    85.74314   111.50364    30.13913
   698  H   1.0    0.05    1.04    1.43    84.79588   112.73045    34.32275
   699  H   1.0    0.07    1.07    1.44    85.39173   115.98060    33.69754
   700  H   1.0    0.07    1.02    1.43    80.89477   118.49610    33.69925
   701  H   1.0    0.08    1.04    1.43    77.46042   113.65279    28.44405
   702  H   1.0    0.10    1.06    1.44    77.12514   117.85350    30.71236
   703  H   1.0    0.09    1.07    1.44    77.67436   122.74229    71.39728
   704  H   1.0    0.07    1.04    1.43    71.99877   110.59720    30.32825
   705  H   1.0    0.08    1.07    1.44    79.27584    94.33256    45.39522
   706  H   1.0    0.07    1.04    1.44    69.10322    96.34926    69.61387
   707  H   1.0    0.10    1.07    1.44    71.32073    92.54611    73.04507
   708  H   1.0    0.07    1.04    1.43    69.22544    99.45995    77.94013
   709  H   1.0    0.09    1.07    1.44    51.16442   114.51363    68.79938
   710  H   1.0    0.06    1.04    1.44    54.58490   106.28265    65.91571
   711  H   1.0    0.10    1.07    1.44    54.51256   111.42200    58.43862
   712  H   1.0    0.07    1.04    1.44    57.01651   105.67001    57.27675
   713  H   1.0    0.10    1.07    1.44    56.47818   105.81046    49.06813
   714  H   1.0    0.06    1.04    1.43    54.99440    99.88676    48.36290
   715  H   1.0    0.09    1.07    1.44    90.14123    99.17013    50.17322
   716  H   1.0    0.05    1.04    1.44    91.98262    93.97393    53.71620
   717  H   1.0    0.09    1.07    1.44    95.73735   100.46738    58.19551
   718  H   1.0    0.06    1.05    1.44    93.98004    94.85511    64.86557
   719  H   1.0    0.09    1.07    1.44    93.60627   102.20832    69.14561
   720  H   1.0    0.07    1.05    1.44    91.69721    97.30822    73.04676
   721  H   1.0    0.09    1.07    1.44    99.72948   112.60429    57.53493
   722  H   1.0    0.05    1.05    1.44    97.93166   119.21465    51.72681
   723  H   1.0    0.09    1.07    1.44    93.36785   112.68198    48.57828
   724  H   1.0    0.06    1.05    1.44    95.57129   116.97078    41.33180
   725  H   1.0    0.09    1.07    1.44    94.34720   111.56876    39.49311
   726  H   1.0    0.07    1.05    1.44    91.16833   118.30953    34.52569
   727  H   1.0    0.11    1.08    1.44    89.45009   112.32432    31.23783
   728  H   1.0    0.07    1.05    1.44    85.30422   116.90862    28.22109

  Z AO/shell   Hii/eV     exponent
  1     Wed Apr 25 08:07:45 CEST 2018   EN: 2.200 GM2: 0.406  GM3: 0.0800  RAES: 1.40
     1s    -10.707211    1.230000
  6     Wed Apr 25 08:07:45 CEST 2018   EN: 2.550 GM2: 0.538  GM3: 0.1500  RAES: 3.00
     2s    -13.970922    2.096432
     2p    -10.063292    1.800000
  7     Wed Apr 25 08:07:45 CEST 2018   EN: 3.040 GM2: 0.461  GM3:-0.0640  RAES: 1.90
     2s    -16.686243    2.339881
     2p    -12.523956    2.014332
  8     Wed Apr 25 08:07:45 CEST 2018   EN: 3.440 GM2: 0.452  GM3:-0.0517  RAES: 1.80
     2s    -20.229985    2.439742
     2p    -15.503117    2.137023
 16     Tue Apr 24 11:44:34 CEST 2018   EN: 2.580 GM2: 0.340  GM3:-0.0502  RAES: 3.10
     3s    -20.029654    1.981333
     3p    -11.377694    2.025643
     3d     -0.420282    1.702555
 no old-style atom pair restraining (fixing) potential

molecular fragmentation (1/2 indicates fragments):
111111111111111111111111111111111111111111111111111111111111111111111111
111111111111111111111111111111111111111111111111111111111111111111111111
111111111111111111111111111111111111111111111111111111111111111111111111
111111111111111111111111111111111111111111111111111122222222222222222222
222222222222222222222222222222222222222222222222222222222222222222222222
222222222222222222222222222222222222222222222222222222222222222222222222
222222222222222222222222222222222222222222222222222222222222222222222222
222222222222222222222222222222222222222222222222222222222222222222222222
222222222222222222222222222222222222222222222222222222222222222222222222
222222222222222222222222222222222222222222222222222222112222222222222222
22222222
# atoms in fragment 1/2:   270   458
 fragment masses (1/2) :     1830.30     2858.75
CMA distance (Bohr)    :  13.439
constraining FC (au)   :  0.0500
           ------------------------------------------------- 
          |        Self-Consistent Charge Iterations        |
           ------------------------------------------------- 

 Ncao       : 1727
 Nao        : 1726
 Nshell     : 1060
 Nel        : 1870
 T(el)      :   500.0
 intcut     :    35.0
 scfconv/Eh :  0.100E-06
   qconv/e  :  0.100E-04
 intneglect :  0.100E-08
 broydamp   :      0.400
 iter      E             dE          RMSdq      gap      omega  full diag
   1  -1057.3688662 -0.105737E+04  0.424E+00    2.93       0.0  T
   2  -1059.4763281 -0.210746E+01  0.203E+00    1.81       1.0  T
   3  -1059.5933525 -0.117024E+00  0.115E+00    1.82       1.0  T
   4  -1059.7591914 -0.165839E+00  0.215E-01    1.13       1.0  T
   5  -1059.7675292 -0.833781E-02  0.994E-02    1.30       1.0  T
   6  -1059.7690850 -0.155572E-02  0.416E-02    1.31       1.0  T
   7  -1059.7694606 -0.375623E-03  0.180E-02    1.29       1.0  T
   8  -1059.7695045 -0.438729E-04  0.819E-03    1.29       1.0  T
   9  -1059.7695167 -0.122963E-04  0.370E-03    1.28       1.0  T
  10  -1059.7695190 -0.221771E-05  0.173E-03    1.28       2.1  T
  11  -1059.7695194 -0.448431E-06  0.867E-04    1.28       4.3  T
  12  -1059.7695195 -0.127298E-06  0.444E-04    1.28       8.4  T
  13  -1059.7695196 -0.566970E-07  0.236E-04    1.28      15.7  T
  14  -1059.7695196 -0.112059E-07  0.124E-04    1.28      30.0  T
  15  -1059.7695196 -0.322098E-08  0.520E-05    1.28      71.3  T
  16  -1059.7695196 -0.584578E-09  0.240E-05    1.28     154.2  T
speedup  1.00
cpu  time for SCC   28.62 s
wall time for SCC   28.62 s

   *** convergence criteria satisfied after 16 iterations ***

          eigenvalues
 #    :         923        924        925        926        927        928        929        930
 occ. :        2.000      2.000      2.000      2.000      2.000      2.000      2.000      2.000
 eps  :       -10.269    -10.162    -10.120    -10.111    -10.008     -9.918     -9.863     -9.847
 #    :         931        932        933        934        935        936        937        938
 occ. :        2.000      2.000      2.000      2.000      2.000      0.000      0.000      0.000
 eps  :        -9.648     -9.537     -9.536     -9.477     -9.459     -8.177     -8.003     -7.862
 #    :         939        940        941        942        943        944        945        946
 occ. :        0.000      0.000      0.000      0.000      0.000      0.000      0.000      0.000
 eps  :        -7.798     -7.732     -7.693     -7.661     -7.588     -7.540     -7.487     -7.477


   #   Z            q   n(s)   n(p)   n(d)      C6AA      α(0)
   1   7 N     -0.389  1.307  4.082  0.000    30.076     8.145
   2   6 C      0.032  1.061  2.907  0.000    20.049     6.377
   3   6 C      0.250  1.056  2.694  0.000    22.803     7.821
   4   8 O     -0.507  1.738  4.768  0.000    23.931     6.559
   5   6 C     -0.025  1.067  2.958  0.000    20.989     6.516
   6   6 C     -0.058  1.049  3.009  0.000    21.622     6.620
   7   6 C     -0.115  1.038  3.077  0.000    22.751     6.801
   8   6 C     -0.111  1.037  3.074  0.000    22.684     6.792
   9   1 H      0.164  0.836  0.000  0.000     1.311     1.794
  10   1 H      0.033  0.967  0.000  0.000     2.547     2.496
  11   1 H      0.042  0.958  0.000  0.000     2.425     2.435
  12   1 H      0.037  0.963  0.000  0.000     2.484     2.465
  13   1 H      0.035  0.965  0.000  0.000     2.514     2.480
  14   1 H      0.048  0.952  0.000  0.000     2.340     2.392
  15   1 H      0.041  0.959  0.000  0.000     2.432     2.439
  16   1 H      0.043  0.957  0.000  0.000     2.412     2.429
  17   1 H      0.037  0.963  0.000  0.000     2.492     2.469
  18   1 H      0.038  0.962  0.000  0.000     2.477     2.461
  19   1 H      0.042  0.958  0.000  0.000     2.429     2.437
  20   7 N     -0.086  1.237  3.848  0.000    22.907     7.108
  21   6 C      0.016  1.065  2.919  0.000    20.285     6.408
  22   6 C      0.279  1.041  2.680  0.000    22.274     7.729
  23   8 O     -0.474  1.730  4.744  0.000    23.223     6.461
  24   6 C     -0.079  1.056  3.023  0.000    21.994     6.675
  25   6 C     -0.081  1.055  3.027  0.000    22.037     6.681
  26   6 C     -0.021  1.054  2.968  0.000    21.003     6.535
  27   1 H      0.079  0.921  0.000  0.000     1.986     2.204
  28   1 H      0.071  0.929  0.000  0.000     2.076     2.253
  29   1 H      0.077  0.923  0.000  0.000     2.007     2.216
  30   1 H      0.068  0.932  0.000  0.000     2.113     2.273
  31   1 H      0.078  0.922  0.000  0.000     2.004     2.214
  32   1 H      0.081  0.919  0.000  0.000     1.965     2.192
  33   1 H      0.076  0.924  0.000  0.000     2.025     2.226
  34   7 N     -0.176  1.235  3.941  0.000    24.808     7.397
  35   6 C      0.022  1.058  2.920  0.000    20.177     6.391
  36   6 C      0.266  1.042  2.691  0.000    22.508     7.769
  37   8 O     -0.492  1.738  4.754  0.000    23.618     6.516
  38   6 C     -0.027  1.066  2.961  0.000    21.058     6.533
  39  16 S     -0.272  1.950  4.278  0.044   152.763    20.803
  40   1 H      0.218  0.782  0.000  0.000     1.020     1.582
  41   1 H      0.087  0.913  0.000  0.000     1.906     2.159
  42   1 H      0.079  0.921  0.000  0.000     1.988     2.205
  43   1 H      0.076  0.924  0.000  0.000     2.023     2.224
  44   1 H      0.198  0.802  0.000  0.000     1.108     1.646
  45   7 N     -0.160  1.241  3.920  0.000    24.469     7.347
  46   6 C      0.017  1.062  2.920  0.000    20.290     6.414
  47   6 C      0.266  1.043  2.691  0.000    22.512     7.770
  48   8 O     -0.500  1.747  4.753  0.000    23.778     6.538
  49   6 C     -0.080  1.060  3.020  0.000    22.010     6.678
  50   6 C     -0.012  1.057  2.955  0.000    20.756     6.480
  51   6 C     -0.118  1.042  3.076  0.000    22.812     6.809
  52   6 C     -0.120  1.040  3.081  0.000    22.857     6.817
  53   1 H      0.213  0.787  0.000  0.000     1.041     1.598
  54   1 H      0.079  0.921  0.000  0.000     1.987     2.204
  55   1 H      0.065  0.935  0.000  0.000     2.138     2.286
  56   1 H      0.063  0.937  0.000  0.000     2.161     2.299
  57   1 H      0.036  0.964  0.000  0.000     2.500     2.473
  58   1 H      0.050  0.950  0.000  0.000     2.322     2.383
  59   1 H      0.041  0.959  0.000  0.000     2.439     2.442
  60   1 H      0.046  0.954  0.000  0.000     2.375     2.410
  61   1 H      0.050  0.950  0.000  0.000     2.325     2.384
  62   1 H      0.043  0.957  0.000  0.000     2.406     2.426
  63   1 H      0.036  0.964  0.000  0.000     2.499     2.472
  64   7 N     -0.181  1.249  3.932  0.000    24.923     7.415
  65   6 C      0.019  1.059  2.921  0.000    20.252     6.407
  66   6 C      0.265  1.044  2.691  0.000    22.521     7.771
  67   8 O     -0.484  1.738  4.746  0.000    23.430     6.490
  68   6 C     -0.078  1.059  3.019  0.000    21.972     6.671
  69   6 C     -0.019  1.057  2.962  0.000    20.884     6.500
  70   6 C     -0.117  1.042  3.075  0.000    22.786     6.805
  71   6 C     -0.120  1.041  3.079  0.000    22.852     6.816
  72   1 H      0.243  0.757  0.000  0.000     0.910     1.494
  73   1 H      0.078  0.922  0.000  0.000     2.004     2.214
  74   1 H      0.056  0.944  0.000  0.000     2.248     2.345
  75   1 H      0.067  0.933  0.000  0.000     2.124     2.279
  76   1 H      0.057  0.943  0.000  0.000     2.231     2.336
  77   1 H      0.050  0.950  0.000  0.000     2.317     2.381
  78   1 H      0.034  0.966  0.000  0.000     2.530     2.487
  79   1 H      0.045  0.955  0.000  0.000     2.384     2.414
  80   1 H      0.046  0.954  0.000  0.000     2.370     2.407
  81   1 H      0.047  0.953  0.000  0.000     2.354     2.399
  82   1 H      0.036  0.964  0.000  0.000     2.503     2.474
  83   7 N     -0.198  1.253  3.945  0.000    25.298     7.470
  84   6 C      0.020  1.058  2.922  0.000    20.245     6.407
  85   6 C      0.272  1.044  2.684  0.000    22.411     7.753
  86   8 O     -0.498  1.734  4.764  0.000    23.746     6.533
  87   6 C     -0.084  1.055  3.028  0.000    22.082     6.688
  88   6 C     -0.001  1.077  2.924  0.000    28.045     8.687
  89   6 C     -0.042  1.078  2.964  0.000    29.043     8.838
  90   6 C     -0.046  1.078  2.968  0.000    29.135     8.852
  91   6 C     -0.031  1.082  2.948  0.000    28.764     8.795
  92   6 C     -0.042  1.082  2.960  0.000    29.035     8.836
  93   6 C     -0.036  1.084  2.952  0.000    28.890     8.814
  94   1 H      0.244  0.756  0.000  0.000     0.905     1.490
  95   1 H      0.084  0.916  0.000  0.000     1.943     2.180
  96   1 H      0.083  0.917  0.000  0.000     1.943     2.180
  97   1 H      0.072  0.928  0.000  0.000     2.060     2.244
  98   1 H      0.033  0.967  0.000  0.000     2.539     2.492
  99   1 H      0.040  0.960  0.000  0.000     2.445     2.445
 100   1 H      0.053  0.947  0.000  0.000     2.279     2.361
 101   1 H      0.050  0.950  0.000  0.000     2.323     2.384
 102   1 H      0.053  0.947  0.000  0.000     2.277     2.360
 103   7 N     -0.182  1.246  3.936  0.000    24.950     7.419
 104   6 C      0.009  1.062  2.928  0.000    20.417     6.432
 105   6 C      0.267  1.045  2.688  0.000    22.492     7.767
 106   8 O     -0.489  1.741  4.748  0.000    23.541     6.505
 107   6 C      0.074  1.033  2.892  0.000    19.546     6.333
 108   8 O     -0.468  1.717  4.751  0.000    22.218     6.363
 109   1 H      0.230  0.770  0.000  0.000     0.967     1.540
 110   1 H      0.088  0.912  0.000  0.000     1.902     2.157
 111   1 H      0.045  0.955  0.000  0.000     2.384     2.415
 112   1 H      0.062  0.938  0.000  0.000     2.176     2.307
 113   1 H      0.341  0.659  0.000  0.000     0.610     1.227
 114   7 N     -0.189  1.254  3.935  0.000    25.103     7.441
 115   6 C      0.030  1.060  2.910  0.000    20.061     6.377
 116   6 C      0.271  1.045  2.684  0.000    22.424     7.755
 117   8 O     -0.493  1.740  4.753  0.000    23.620     6.516
 118   6 C     -0.083  1.055  3.028  0.000    22.075     6.688
 119   6 C      0.012  1.080  2.908  0.000    27.741     8.639
 120   6 C     -0.041  1.080  2.961  0.000    29.027     8.835
 121   6 C     -0.034  1.079  2.956  0.000    28.859     8.810
 122   6 C     -0.034  1.081  2.953  0.000    28.844     8.807
 123   6 C     -0.028  1.082  2.947  0.000    28.707     8.786
 124   6 C     -0.034  1.078  2.956  0.000    28.852     8.809
 125   1 H      0.226  0.774  0.000  0.000     0.980     1.551
 126   1 H      0.068  0.932  0.000  0.000     2.111     2.272
 127   1 H      0.067  0.933  0.000  0.000     2.124     2.279
 128   1 H      0.079  0.921  0.000  0.000     1.985     2.203
 129   1 H      0.037  0.963  0.000  0.000     2.486     2.466
 130   1 H      0.033  0.967  0.000  0.000     2.545     2.495
 131   1 H      0.044  0.956  0.000  0.000     2.399     2.422
 132   1 H      0.050  0.950  0.000  0.000     2.321     2.382
 133   1 H      0.030  0.970  0.000  0.000     2.580     2.512
 134   7 N     -0.194  1.260  3.934  0.000    25.205     7.456
 135   6 C      0.029  1.055  2.916  0.000    20.085     6.380
 136   6 C      0.270  1.045  2.686  0.000    22.444     7.759
 137   8 O     -0.488  1.738  4.749  0.000    23.517     6.502
 138   6 C     -0.075  1.059  3.016  0.000    21.917     6.662
 139   6 C     -0.019  1.056  2.963  0.000    20.881     6.500
 140   6 C     -0.122  1.043  3.078  0.000    22.880     6.819
 141   6 C     -0.119  1.040  3.079  0.000    22.839     6.814
 142   1 H      0.239  0.761  0.000  0.000     0.927     1.508
 143   1 H      0.072  0.928  0.000  0.000     2.063     2.246
 144   1 H      0.053  0.947  0.000  0.000     2.288     2.365
 145   1 H      0.066  0.934  0.000  0.000     2.128     2.281
 146   1 H      0.050  0.950  0.000  0.000     2.326     2.385
 147   1 H      0.051  0.949  0.000  0.000     2.313     2.378
 148   1 H      0.044  0.956  0.000  0.000     2.394     2.420
 149   1 H      0.049  0.951  0.000  0.000     2.335     2.389
 150   1 H      0.050  0.950  0.000  0.000     2.317     2.380
 151   1 H      0.047  0.953  0.000  0.000     2.359     2.402
 152   1 H      0.031  0.969  0.000  0.000     2.571     2.507
 153   7 N     -0.191  1.246  3.945  0.000    25.144     7.447
 154   6 C     -0.003  1.064  2.939  0.000    20.645     6.470
 155   6 C      0.270  1.038  2.693  0.000    22.445     7.759
 156   8 O     -0.488  1.738  4.750  0.000    23.523     6.503
 157   6 C      0.102  1.044  2.853  0.000    18.983     6.219
 158   8 O     -0.474  1.725  4.749  0.000    22.338     6.380
 159   6 C     -0.141  1.045  3.095  0.000    23.266     6.878
 160   1 H      0.236  0.764  0.000  0.000     0.938     1.517
 161   1 H      0.086  0.914  0.000  0.000     1.923     2.169
 162   1 H      0.056  0.944  0.000  0.000     2.243     2.342
 163   1 H      0.322  0.678  0.000  0.000     0.659     1.275
 164   1 H      0.067  0.933  0.000  0.000     2.124     2.279
 165   1 H      0.060  0.940  0.000  0.000     2.196     2.317
 166   1 H      0.070  0.930  0.000  0.000     2.084     2.257
 167   7 N     -0.177  1.244  3.933  0.000    24.832     7.401
 168   6 C     -0.028  1.051  2.977  0.000    21.134     6.556
 169   6 C      0.283  1.037  2.680  0.000    22.200     7.716
 170   8 O     -0.480  1.735  4.745  0.000    23.342     6.478
 171   1 H      0.245  0.755  0.000  0.000     0.901     1.487
 172   1 H      0.077  0.923  0.000  0.000     2.007     2.216
 173   1 H      0.095  0.905  0.000  0.000     1.829     2.115
 174   7 N     -0.197  1.252  3.945  0.000    25.275     7.467
 175   6 C      0.034  1.053  2.913  0.000    20.008     6.369
 176   6 C      0.269  1.048  2.683  0.000    22.456     7.762
 177   8 O     -0.484  1.742  4.742  0.000    23.424     6.489
 178   6 C     -0.083  1.058  3.025  0.000    22.074     6.688
 179   6 C     -0.015  1.056  2.958  0.000    20.801     6.487
 180   6 C     -0.109  1.041  3.067  0.000    22.623     6.781
 181   6 C     -0.111  1.038  3.073  0.000    22.674     6.789
 182   1 H      0.238  0.762  0.000  0.000     0.930     1.511
 183   1 H      0.061  0.939  0.000  0.000     2.182     2.310
 184   1 H      0.068  0.932  0.000  0.000     2.109     2.271
 185   1 H      0.065  0.935  0.000  0.000     2.146     2.291
 186   1 H      0.054  0.946  0.000  0.000     2.269     2.356
 187   1 H      0.040  0.960  0.000  0.000     2.447     2.446
 188   1 H      0.039  0.961  0.000  0.000     2.458     2.452
 189   1 H      0.028  0.972  0.000  0.000     2.614     2.528
 190   1 H      0.049  0.951  0.000  0.000     2.338     2.391
 191   1 H      0.026  0.974  0.000  0.000     2.640     2.541
 192   1 H      0.035  0.965  0.000  0.000     2.517     2.481
 193   7 N     -0.200  1.275  3.925  0.000    25.351     7.478
 194   6 C      0.027  1.068  2.904  0.000    20.096     6.379
 195   6 C      0.294  1.038  2.668  0.000    22.014     7.682
 196   8 O     -0.525  1.753  4.772  0.000    24.338     6.614
 197   6 C     -0.028  1.061  2.968  0.000    21.040     6.524
 198   6 C     -0.122  1.039  3.082  0.000    22.890     6.821
 199   6 C     -0.121  1.040  3.081  0.000    22.874     6.819
 200   1 H      0.231  0.769  0.000  0.000     0.959     1.534
 201   1 H      0.064  0.936  0.000  0.000     2.151     2.293
 202   1 H      0.077  0.923  0.000  0.000     2.012     2.218
 203   1 H      0.053  0.947  0.000  0.000     2.280     2.361
 204   1 H      0.046  0.954  0.000  0.000     2.367     2.406
 205   1 H      0.030  0.970  0.000  0.000     2.588     2.516
 206   1 H      0.063  0.937  0.000  0.000     2.166     2.302
 207   1 H      0.040  0.960  0.000  0.000     2.445     2.445
 208   1 H      0.050  0.950  0.000  0.000     2.323     2.384
 209   7 N     -0.210  1.250  3.960  0.000    25.567     7.510
 210   6 C      0.036  1.055  2.909  0.000    19.984     6.367
 211   6 C      0.276  1.044  2.680  0.000    22.324     7.738
 212   8 O     -0.524  1.758  4.766  0.000    24.322     6.612
 213   6 C     -0.078  1.052  3.026  0.000    21.961     6.668
 214   6 C      0.022  1.078  2.900  0.000    27.511     8.604
 215   6 C     -0.033  1.080  2.953  0.000    28.818     8.804
 216   6 C     -0.038  1.075  2.963  0.000    28.948     8.823
 217   6 C     -0.037  1.079  2.957  0.000    28.918     8.819
 218   6 C     -0.035  1.076  2.958  0.000    28.861     8.810
 219   6 C     -0.042  1.077  2.965  0.000    29.040     8.837
 220   1 H      0.247  0.753  0.000  0.000     0.893     1.481
 221   1 H      0.051  0.949  0.000  0.000     2.302     2.373
 222   1 H      0.082  0.918  0.000  0.000     1.957     2.188
 223   1 H      0.050  0.950  0.000  0.000     2.314     2.379
 224   1 H      0.030  0.970  0.000  0.000     2.586     2.515
 225   1 H      0.023  0.977  0.000  0.000     2.690     2.565
 226   1 H      0.047  0.953  0.000  0.000     2.358     2.402
 227   1 H      0.043  0.957  0.000  0.000     2.404     2.425
 228   1 H      0.049  0.951  0.000  0.000     2.338     2.391
 229   7 N     -0.209  1.271  3.938  0.000    25.542     7.506
 230   6 C      0.028  1.065  2.906  0.000    20.104     6.385
 231   6 C      0.267  1.050  2.683  0.000    22.498     7.766
 232   8 O     -0.534  1.760  4.774  0.000    24.548     6.643
 233   6 C     -0.066  1.054  3.012  0.000    21.758     6.640
 234   6 C      0.003  1.080  2.917  0.000    27.960     8.673
 235   6 C     -0.044  1.084  2.960  0.000    29.101     8.847
 236   6 C     -0.034  1.081  2.952  0.000    28.836     8.806
 237   6 C     -0.063  1.075  2.988  0.000    29.568     8.917
 238   6 C     -0.077  1.077  3.000  0.000    29.922     8.970
 239   6 C      0.142  1.045  2.813  0.000    24.902     8.178
 240   8 O     -0.434  1.716  4.719  0.000    21.524     6.263
 241   1 H      0.242  0.758  0.000  0.000     0.917     1.500
 242   1 H      0.062  0.938  0.000  0.000     2.175     2.306
 243   1 H      0.052  0.948  0.000  0.000     2.296     2.370
 244   1 H      0.052  0.948  0.000  0.000     2.297     2.370
 245   1 H      0.044  0.956  0.000  0.000     2.396     2.420
 246   1 H      0.039  0.961  0.000  0.000     2.464     2.455
 247   1 H      0.058  0.942  0.000  0.000     2.222     2.331
 248   1 H      0.039  0.961  0.000  0.000     2.469     2.457
 249   1 H      0.350  0.650  0.000  0.000     0.589     1.206
 250   7 N     -0.211  1.269  3.942  0.000    25.587     7.513
 251   6 C      0.019  1.061  2.921  0.000    20.279     6.414
 252   6 C      0.207  1.083  2.710  0.000    23.611     7.958
 253   8 O     -0.376  1.759  4.617  0.000    21.205     6.174
 254   6 C     -0.069  1.062  3.007  0.000    21.824     6.652
 255   6 C     -0.005  1.058  2.948  0.000    20.642     6.462
 256   6 C     -0.110  1.040  3.070  0.000    22.657     6.785
 257   6 C     -0.126  1.043  3.084  0.000    22.972     6.832
 258   1 H      0.260  0.740  0.000  0.000     0.846     1.441
 259   1 H      0.102  0.898  0.000  0.000     1.767     2.079
 260   1 H      0.073  0.927  0.000  0.000     2.056     2.243
 261   1 H      0.051  0.949  0.000  0.000     2.302     2.373
 262   1 H      0.028  0.972  0.000  0.000     2.608     2.526
 263   1 H      0.049  0.951  0.000  0.000     2.331     2.388
 264   1 H      0.033  0.967  0.000  0.000     2.548     2.496
[...]
 442   6 C     -0.020  1.066  2.953  0.000    20.887     6.500
 443   6 C     -0.071  1.051  3.019  0.000    21.849     6.654
 444   6 C     -0.120  1.040  3.080  0.000    22.859     6.817
 445   6 C     -0.112  1.039  3.074  0.000    22.706     6.795
 446   1 H      0.233  0.767  0.000  0.000     0.954     1.530
 447   1 H      0.072  0.928  0.000  0.000     2.069     2.249
 448   1 H      0.057  0.943  0.000  0.000     2.230     2.335
 449   1 H      0.040  0.960  0.000  0.000     2.448     2.447
 450   1 H      0.049  0.951  0.000  0.000     2.327     2.385
 451   1 H      0.074  0.926  0.000  0.000     2.039     2.233
 452   1 H      0.034  0.966  0.000  0.000     2.525     2.485
 453   1 H      0.049  0.951  0.000  0.000     2.331     2.388
 454   1 H      0.044  0.956  0.000  0.000     2.393     2.419
 455   1 H      0.036  0.964  0.000  0.000     2.500     2.472
 456   1 H      0.059  0.941  0.000  0.000     2.214     2.327
 457   7 N     -0.400  1.321  4.079  0.000    30.366     8.184
 458   6 C      0.035  1.055  2.910  0.000    19.993     6.369
 459   6 C      0.279  1.045  2.676  0.000    22.283     7.731
 460   8 O     -0.500  1.748  4.752  0.000    23.779     6.538
 461   6 C     -0.081  1.059  3.022  0.000    22.040     6.683
 462   6 C      0.006  1.085  2.909  0.000    27.885     8.662
 463   6 C     -0.044  1.082  2.962  0.000    29.086     8.845
 464   6 C     -0.046  1.078  2.968  0.000    29.139     8.852
 465   6 C     -0.032  1.079  2.953  0.000    28.786     8.798
 466   6 C     -0.033  1.081  2.952  0.000    28.822     8.804
 467   6 C     -0.034  1.077  2.957  0.000    28.838     8.806
 468   1 H      0.170  0.830  0.000  0.000     1.275     1.769
 469   1 H      0.045  0.955  0.000  0.000     2.380     2.412
 470   1 H      0.061  0.939  0.000  0.000     2.192     2.315
 471   1 H      0.061  0.939  0.000  0.000     2.184     2.311
 472   1 H      0.039  0.961  0.000  0.000     2.467     2.456
 473   1 H      0.029  0.971  0.000  0.000     2.607     2.525
 474   1 H      0.043  0.957  0.000  0.000     2.407     2.426
 475   1 H      0.034  0.966  0.000  0.000     2.535     2.490
 476   1 H      0.033  0.967  0.000  0.000     2.547     2.496
 477   7 N     -0.157  1.244  3.913  0.000    24.405     7.337
 478   6 C      0.020  1.066  2.914  0.000    20.245     6.406
 479   6 C      0.214  1.082  2.704  0.000    23.475     7.935
 480   8 O     -0.363  1.755  4.608  0.000    20.953     6.137
 481   6 C     -0.020  1.066  2.953  0.000    20.890     6.501
 482   6 C     -0.125  1.039  3.086  0.000    22.956     6.832
 483   6 C     -0.121  1.041  3.080  0.000    22.871     6.818
 484   1 H      0.221  0.779  0.000  0.000     1.005     1.570
 485   1 H      0.088  0.912  0.000  0.000     1.894     2.152
 486   1 H      0.066  0.934  0.000  0.000     2.133     2.284
 487   1 H      0.060  0.940  0.000  0.000     2.195     2.317
 488   1 H      0.052  0.948  0.000  0.000     2.299     2.371
 489   1 H      0.043  0.957  0.000  0.000     2.412     2.429
 490   1 H      0.059  0.941  0.000  0.000     2.215     2.328
 491   1 H      0.046  0.954  0.000  0.000     2.371     2.408
 492   1 H      0.056  0.944  0.000  0.000     2.247     2.344
 493   7 N     -0.416  1.312  4.104  0.000    30.829     8.246
 494   6 C      0.034  1.055  2.911  0.000    20.020     6.374
 495   6 C      0.201  1.094  2.705  0.000    23.721     7.976
 496   8 O     -0.372  1.742  4.631  0.000    21.134     6.164
 497   6 C      0.088  1.035  2.877  0.000    19.314     6.294
 498   8 O     -0.472  1.701  4.771  0.000    22.304     6.375
 499   1 H      0.198  0.802  0.000  0.000     1.114     1.654
 500   1 H      0.045  0.955  0.000  0.000     2.383     2.414
 501   1 H      0.045  0.955  0.000  0.000     2.389     2.417
 502   1 H      0.029  0.971  0.000  0.000     2.607     2.525
 503   1 H      0.329  0.671  0.000  0.000     0.641     1.258
 504   7 N     -0.412  1.316  4.097  0.000    30.720     8.232
 505   6 C      0.024  1.063  2.913  0.000    20.187     6.400
 506   6 C      0.200  1.091  2.709  0.000    23.739     7.979
 507   8 O     -0.387  1.762  4.625  0.000    21.417     6.205
 508   6 C      0.121  1.046  2.833  0.000    18.709     6.177
 509   8 O     -0.479  1.721  4.758  0.000    22.448     6.396
 510   6 C     -0.135  1.045  3.091  0.000    23.165     6.864
 511   1 H      0.204  0.796  0.000  0.000     1.084     1.631
 512   1 H      0.045  0.955  0.000  0.000     2.382     2.414
 513   1 H      0.031  0.969  0.000  0.000     2.568     2.506
 514   1 H      0.332  0.668  0.000  0.000     0.632     1.248
 515   1 H      0.063  0.937  0.000  0.000     2.162     2.300
 516   1 H      0.045  0.955  0.000  0.000     2.379     2.412
 517   1 H      0.075  0.925  0.000  0.000     2.033     2.230
 518   7 N     -0.387  1.309  4.079  0.000    30.026     8.138
 519   6 C      0.041  1.052  2.907  0.000    19.904     6.355
 520   6 C      0.193  1.097  2.709  0.000    23.868     8.001
 521   8 O     -0.366  1.741  4.625  0.000    21.007     6.145
 522   6 C     -0.075  1.059  3.016  0.000    21.919     6.664
 523   6 C     -0.010  1.054  2.956  0.000    20.718     6.474
 524   6 C     -0.116  1.041  3.074  0.000    22.760     6.801
 525   6 C     -0.125  1.039  3.087  0.000    22.960     6.832
 526   1 H      0.170  0.830  0.000  0.000     1.272     1.767
 527   1 H      0.054  0.946  0.000  0.000     2.274     2.358
 528   1 H      0.050  0.950  0.000  0.000     2.324     2.384
 529   1 H      0.048  0.952  0.000  0.000     2.343     2.394
 530   1 H      0.034  0.966  0.000  0.000     2.530     2.487
 531   1 H      0.041  0.959  0.000  0.000     2.432     2.439
 532   1 H      0.041  0.959  0.000  0.000     2.432     2.439
 533   1 H      0.039  0.961  0.000  0.000     2.461     2.453
 534   1 H      0.039  0.961  0.000  0.000     2.458     2.451
 535   1 H      0.063  0.937  0.000  0.000     2.164     2.300
 536   1 H      0.035  0.965  0.000  0.000     2.517     2.481
 537   7 N     -0.393  1.317  4.075  0.000    30.170     8.158
 538   6 C      0.021  1.065  2.915  0.000    20.243     6.409
 539   6 C      0.265  1.051  2.685  0.000    22.538     7.775
 540   8 O     -0.495  1.747  4.748  0.000    23.675     6.524
 541   6 C      0.114  1.048  2.837  0.000    18.804     6.192
 542   8 O     -0.472  1.722  4.749  0.000    22.289     6.373
 543   6 C     -0.124  1.041  3.083  0.000    22.939     6.829
 544   1 H      0.155  0.845  0.000  0.000     1.365     1.830
 545   1 H      0.046  0.954  0.000  0.000     2.377     2.411
 546   1 H      0.024  0.976  0.000  0.000     2.668     2.554
 547   1 H      0.321  0.679  0.000  0.000     0.660     1.277
 548   1 H      0.066  0.934  0.000  0.000     2.128     2.281
 549   1 H      0.047  0.953  0.000  0.000     2.352     2.398
 550   1 H      0.055  0.945  0.000  0.000     2.253     2.347
 551   7 N     -0.181  1.251  3.929  0.000    24.920     7.414
 552   6 C      0.030  1.063  2.907  0.000    20.065     6.377
 553   6 C      0.213  1.082  2.705  0.000    23.486     7.937
 554   8 O     -0.382  1.757  4.625  0.000    21.319     6.190
 555   6 C     -0.016  1.061  2.955  0.000    20.816     6.489
 556   6 C     -0.117  1.040  3.077  0.000    22.788     6.806
 557   6 C     -0.130  1.040  3.090  0.000    23.061     6.847
 558   1 H      0.250  0.750  0.000  0.000     0.884     1.473
 559   1 H      0.068  0.932  0.000  0.000     2.105     2.269
 560   1 H      0.046  0.954  0.000  0.000     2.372     2.409
 561   1 H      0.058  0.942  0.000  0.000     2.228     2.334
 562   1 H      0.036  0.964  0.000  0.000     2.508     2.477
 563   1 H      0.045  0.955  0.000  0.000     2.381     2.413
 564   1 H      0.058  0.942  0.000  0.000     2.221     2.331
 565   1 H      0.057  0.943  0.000  0.000     2.231     2.336
 566   1 H      0.064  0.936  0.000  0.000     2.155     2.296
 567   7 N     -0.406  1.316  4.090  0.000    30.532     8.206
 568   6 C      0.046  1.055  2.899  0.000    19.818     6.342
 569   6 C      0.202  1.096  2.702  0.000    23.702     7.973
 570   8 O     -0.395  1.759  4.636  0.000    21.585     6.229
 571   6 C     -0.063  1.058  3.005  0.000    21.704     6.632
 572   6 C     -0.011  1.055  2.955  0.000    20.730     6.476
 573   6 C     -0.109  1.041  3.068  0.000    22.645     6.785
 574   6 C     -0.117  1.041  3.076  0.000    22.796     6.808
 575   1 H      0.188  0.812  0.000  0.000     1.169     1.694
 576   1 H      0.045  0.955  0.000  0.000     2.384     2.414
 577   1 H      0.041  0.959  0.000  0.000     2.433     2.439
 578   1 H      0.029  0.971  0.000  0.000     2.596     2.519
 579   1 H      0.050  0.950  0.000  0.000     2.318     2.381
 580   1 H      0.049  0.951  0.000  0.000     2.331     2.387
 581   1 H      0.023  0.977  0.000  0.000     2.687     2.563
 582   1 H      0.037  0.963  0.000  0.000     2.489     2.467
 583   1 H      0.051  0.949  0.000  0.000     2.303     2.373
 584   1 H      0.042  0.958  0.000  0.000     2.427     2.436
 585   1 H      0.034  0.966  0.000  0.000     2.537     2.491
 586   7 N     -0.397  1.323  4.074  0.000    30.302     8.176
 587   6 C      0.029  1.060  2.911  0.000    20.103     6.386
 588   6 C      0.270  1.048  2.682  0.000    22.448     7.759
 589   8 O     -0.496  1.746  4.751  0.000    23.703     6.527
 590   6 C     -0.022  1.065  2.956  0.000    20.925     6.506
 591   6 C     -0.119  1.039  3.080  0.000    22.835     6.813
 592   6 C     -0.114  1.039  3.074  0.000    22.724     6.796
 593   1 H      0.164  0.836  0.000  0.000     1.309     1.792
 594   1 H      0.039  0.961  0.000  0.000     2.462     2.454
 595   1 H      0.039  0.961  0.000  0.000     2.465     2.455
 596   1 H      0.055  0.945  0.000  0.000     2.253     2.347
 597   1 H      0.039  0.961  0.000  0.000     2.467     2.456
 598   1 H      0.044  0.956  0.000  0.000     2.401     2.423
 599   1 H      0.050  0.950  0.000  0.000     2.324     2.384
 600   1 H      0.041  0.959  0.000  0.000     2.431     2.438
 601   1 H      0.036  0.964  0.000  0.000     2.497     2.471
 602   7 N     -0.160  1.243  3.917  0.000    24.468     7.347
 603   6 C      0.021  1.061  2.919  0.000    20.231     6.404
 604   6 C      0.204  1.086  2.710  0.000    23.669     7.968
 605   8 O     -0.351  1.740  4.612  0.000    20.732     6.105
 606   6 C     -0.025  1.068  2.957  0.000    20.980     6.515
 607   6 C     -0.074  1.054  3.020  0.000    21.905     6.663
 608   6 C     -0.121  1.042  3.079  0.000    22.875     6.819
 609   6 C     -0.116  1.037  3.079  0.000    22.791     6.808
 610   1 H      0.216  0.784  0.000  0.000     1.028     1.588
 611   1 H      0.098  0.902  0.000  0.000     1.802     2.099
 612   1 H      0.057  0.943  0.000  0.000     2.229     2.335
 613   1 H      0.052  0.948  0.000  0.000     2.296     2.369
 614   1 H      0.056  0.944  0.000  0.000     2.251     2.346
 615   1 H      0.060  0.940  0.000  0.000     2.196     2.317
 616   1 H      0.042  0.958  0.000  0.000     2.425     2.435
 617   1 H      0.056  0.944  0.000  0.000     2.251     2.346
 618   1 H      0.054  0.946  0.000  0.000     2.268     2.355
 619   1 H      0.037  0.963  0.000  0.000     2.494     2.470
 620   1 H      0.044  0.956  0.000  0.000     2.398     2.422
 621   7 N     -0.422  1.319  4.103  0.000    30.986     8.267
 622   6 C      0.035  1.060  2.905  0.000    19.997     6.370
 623   6 C      0.263  1.054  2.683  0.000    22.557     7.778
 624   8 O     -0.516  1.741  4.775  0.000    24.144     6.588
 625   6 C     -0.021  1.061  2.960  0.000    20.916     6.505
 626   6 C     -0.113  1.038  3.075  0.000    22.716     6.796
 627   6 C     -0.125  1.040  3.085  0.000    22.967     6.834
 628   1 H      0.194  0.806  0.000  0.000     1.139     1.671
 629   1 H      0.025  0.975  0.000  0.000     2.665     2.553
 630   1 H      0.036  0.964  0.000  0.000     2.509     2.477
 631   1 H      0.037  0.963  0.000  0.000     2.483     2.464
 632   1 H      0.030  0.970  0.000  0.000     2.592     2.518
 633   1 H      0.059  0.941  0.000  0.000     2.207     2.323
 634   1 H      0.041  0.959  0.000  0.000     2.438     2.442
 635   1 H      0.068  0.932  0.000  0.000     2.105     2.269
 636   1 H      0.026  0.974  0.000  0.000     2.644     2.543
 637   7 N     -0.170  1.247  3.923  0.000    24.684     7.379
 638   6 C      0.019  1.062  2.919  0.000    20.255     6.408
 639   6 C      0.201  1.086  2.713  0.000    23.722     7.977
 640   8 O     -0.371  1.759  4.612  0.000    21.111     6.160
 641   6 C     -0.015  1.063  2.952  0.000    20.806     6.487
 642   6 C     -0.118  1.039  3.079  0.000    22.811     6.810
 643   6 C     -0.127  1.042  3.085  0.000    22.998     6.837
 644   1 H      0.249  0.751  0.000  0.000     0.887     1.475
 645   1 H      0.085  0.915  0.000  0.000     1.927     2.171
 646   1 H      0.057  0.943  0.000  0.000     2.233     2.337
 647   1 H      0.059  0.941  0.000  0.000     2.215     2.328
 648   1 H      0.034  0.966  0.000  0.000     2.524     2.484
 649   1 H      0.048  0.952  0.000  0.000     2.343     2.394
 650   1 H      0.058  0.942  0.000  0.000     2.217     2.329
 651   1 H      0.050  0.950  0.000  0.000     2.314     2.379
 652   1 H      0.067  0.933  0.000  0.000     2.124     2.279
 653   7 N     -0.395  1.320  4.076  0.000    30.246     8.168
 654   6 C      0.035  1.057  2.908  0.000    20.000     6.370
 655   6 C      0.271  1.049  2.679  0.000    22.417     7.754
 656   8 O     -0.494  1.752  4.742  0.000    23.659     6.521
 657   6 C     -0.077  1.060  3.017  0.000    21.960     6.670
 658   6 C     -0.007  1.054  2.953  0.000    20.677     6.468
 659   6 C     -0.116  1.039  3.077  0.000    22.773     6.804
 660   6 C     -0.113  1.042  3.072  0.000    22.720     6.796
 661   1 H      0.158  0.842  0.000  0.000     1.350     1.820
 662   1 H      0.029  0.971  0.000  0.000     2.603     2.523
 663   1 H      0.043  0.957  0.000  0.000     2.409     2.427
 664   1 H      0.058  0.942  0.000  0.000     2.219     2.329
 665   1 H      0.013  0.987  0.000  0.000     2.847     2.639
 666   1 H      0.047  0.953  0.000  0.000     2.361     2.403
 667   1 H      0.030  0.970  0.000  0.000     2.582     2.513
 668   1 H      0.043  0.957  0.000  0.000     2.407     2.426
 669   1 H      0.038  0.962  0.000  0.000     2.474     2.460
 670   1 H      0.050  0.950  0.000  0.000     2.316     2.380
 671   1 H      0.037  0.963  0.000  0.000     2.486     2.466
 672   7 N     -0.212  1.282  3.929  0.000    25.608     7.516
 673   6 C      0.043  1.048  2.908  0.000    19.845     6.342
 674   6 C      0.208  1.083  2.709  0.000    23.587     7.954
 675   8 O     -0.374  1.765  4.609  0.000    21.174     6.169
 676   6 C     -0.101  1.062  3.039  0.000    22.427     6.741
 677   6 C      0.288  1.035  2.677  0.000    22.118     7.701
 678   8 O     -0.481  1.755  4.726  0.000    23.357     6.480
 679   7 N     -0.288  1.262  4.026  0.000    27.435     7.779
 680   1 H      0.242  0.758  0.000  0.000     0.915     1.499
 681   1 H      0.086  0.914  0.000  0.000     1.919     2.166
 682   1 H      0.101  0.899  0.000  0.000     1.772     2.082
 683   1 H      0.080  0.920  0.000  0.000     1.982     2.202
 684   1 H      0.233  0.767  0.000  0.000     0.951     1.528
 685   1 H      0.231  0.769  0.000  0.000     0.961     1.535
 686   7 N     -0.380  1.296  4.084  0.000    29.832     8.112
 687   6 C      0.051  1.056  2.893  0.000    19.729     6.325
 688   6 C      0.214  1.090  2.696  0.000    23.478     7.936
 689   8 O     -0.388  1.758  4.630  0.000    21.435     6.207
 690   6 C     -0.073  1.050  3.023  0.000    21.891     6.660
 691   6 C      0.058  1.067  2.874  0.000    26.029     8.299
 692   7 N     -0.311  1.490  3.822  0.000    28.907     7.972
 693   6 C     -0.034  1.065  2.970  0.000    28.819     8.805
 694   6 C      0.101  1.057  2.842  0.000    25.523     8.266
 695   7 N     -0.105  1.241  3.864  0.000    23.298     7.169
 696   1 H      0.147  0.853  0.000  0.000     1.423     1.868
 697   1 H      0.067  0.933  0.000  0.000     2.116     2.275
 698   1 H      0.067  0.933  0.000  0.000     2.115     2.274
 699   1 H      0.067  0.933  0.000  0.000     2.123     2.278
 700   1 H      0.059  0.941  0.000  0.000     2.208     2.324
 701   1 H      0.036  0.964  0.000  0.000     2.500     2.473
 702   1 H      0.179  0.821  0.000  0.000     1.217     1.728
 703   1 H      0.177  0.823  0.000  0.000     1.230     1.737
 704   1 H      0.054  0.946  0.000  0.000     2.276     2.359
 705   1 H      0.181  0.819  0.000  0.000     1.209     1.723
 706   1 H      0.061  0.939  0.000  0.000     2.182     2.310
 707   1 H      0.170  0.830  0.000  0.000     1.270     1.765
 708   1 H      0.066  0.934  0.000  0.000     2.126     2.280
 709   1 H      0.184  0.816  0.000  0.000     1.193     1.711
 710   1 H      0.079  0.921  0.000  0.000     1.985     2.203
 711   1 H      0.173  0.827  0.000  0.000     1.253     1.754
 712   1 H      0.082  0.918  0.000  0.000     1.959     2.188
 713   1 H      0.173  0.827  0.000  0.000     1.252     1.752
 714   1 H      0.074  0.926  0.000  0.000     2.037     2.232
 715   1 H      0.179  0.821  0.000  0.000     1.219     1.730
 716   1 H      0.081  0.919  0.000  0.000     1.971     2.195
 717   1 H      0.189  0.811  0.000  0.000     1.162     1.688
 718   1 H      0.063  0.937  0.000  0.000     2.166     2.301
 719   1 H      0.177  0.823  0.000  0.000     1.230     1.737
 720   1 H      0.065  0.935  0.000  0.000     2.137     2.286
 721   1 H      0.179  0.821  0.000  0.000     1.219     1.730
 722   1 H      0.075  0.925  0.000  0.000     2.025     2.225
 723   1 H      0.167  0.833  0.000  0.000     1.291     1.780
 724   1 H      0.075  0.925  0.000  0.000     2.026     2.226
 725   1 H      0.181  0.819  0.000  0.000     1.209     1.723
 726   1 H      0.072  0.928  0.000  0.000     2.058     2.243
 727   1 H      0.191  0.809  0.000  0.000     1.150     1.680
 728   1 H      0.055  0.945  0.000  0.000     2.257     2.349

 Mol. C6AA /au·bohr⁶  :    4704011.531054
 Mol. C8AA /au·bohr⁸  :  104722394.139048
 Mol. α(0) /au        :       3261.914035

 
molecular dipole:
                 x           y           z       tot (Debye)
 q only:       10.761       6.572      22.197
   full:       11.043       7.005      23.324      67.967
molecular quadrupole (traceless):
                xx          xy          yy          xz          yz          zz
 q only:      147.736    2576.381      44.257    3209.378    5022.408    -191.993
  q+dip:      127.531    2628.750     121.697    3375.040    5320.994    -249.228
   full:      132.481    2628.040     122.903    3378.088    5314.108    -255.384
speedup  1.00
cpu  time for grad   35.45 s
wall time for grad   35.45 s

SCC energy    :   -1059.8059819
rep           :      13.7116191
ES            :       2.2048550
AES           :      -0.0132340
AXC           :       0.4034942
disp          :      -1.0202444
XB            :       0.0000000
fix           :       0.0000000
Gborn         :       0.0000000
Gsasa         :       0.0000000
Ghb           :       0.0000000
Gshift        :       0.0000000
Gsolv         :      -0.3525248     -221.21
Etot ala COSMO:   -1059.8059819
grad norm     :       0.8067203
total E       :   -1045.9881712
atomizationE  :     200.9412046   126092.51
(atE without considering molecular charge,
 total energy contains solvation terms)
H-L gap (eV)  :          1.2821

------------------------------------------------------------------------
 * finished run on 2019/03/14 at 15:08:58.006     
------------------------------------------------------------------------
 total:
 * wall-time:     0 d,  0 h,  0 min, 37.253 sec
 *  cpu-time:     0 d,  0 h,  0 min, 37.087 sec
 * ratio c/w:     0.996 speedup
 SCF:
 * wall-time:     0 d,  0 h,  0 min, 36.547 sec
 *  cpu-time:     0 d,  0 h,  0 min, 36.544 sec
 * ratio c/w:     1.000 speedup

