      -----------------------------------------------------------      
     |                   =====================                   |     
     |                           x T B                           |     
     |                   =====================                   |     
     |                         S. Grimme                         |     
     |          Mulliken Center for Theoretical Chemistry        |     
     |                    University of Bonn                     |     
     |                Version 6.1 RC1 (SAW190329)                |     
      -----------------------------------------------------------      

   This program is distributed in the hope that it will be useful,
   but WITHOUT ANY WARRANTY; without even the implied warranty of
   MERCHANTABILITY or FITNESS FOR A PARTICULAR PURPOSE.
   
   FOR NON-COMMERCIAL, ACADEMIA USE ONLY.
   
   Cite this work as:
   S. Grimme, C. Bannwarth, P. Shushkov, J. Comput. Theory Chem., 2017,
   13, 1989-2009. DOI: 10.1021/acs.jctc.7b00118
   C. Bannwarth, S. Ehlert and S. Grimme., J. Comput. Theory Chem., 2019,
   just accepted. DOI: 10.1021/acs.jctc.8b01176
   
   for sTDA-xTB:
   S. Grimme and C. Bannwarth, J. Chem. Phys., 2016, 145, 054103.
   DOI: 10.1063/1.4959605
   
   in the mass-spec context:
   V. Asgeirsson, C. Bauer and S. Grimme, Chem. Sci., 2017, 8, 4879.
   DOI: 10.1039/c7sc00601b
   
   for metadynamics refer to:
   S. Grimme, ChemRxiv, Preprint. DOI: 10.26434/chemrxiv.7660532.v1
   
   with help from (in alphabetical order)
   C. Bannwarth, F. Bohle, G. Brandenburg, E. Caldeweyher, M. Checinski,
   S. Dohm, S. Ehlert, S. Ehrlich, F. März, H. Neugebauer, J. Pisarek,
   P. Pracht, P. Shushkov, and S. Spicher.
   
 * started run on 2019/05/31 at 07:36:40.991     

           -------------------------------------------------
          |                Calculation Setup                |
           -------------------------------------------------

          program call               : /home/lum/install/xtb/xtb-190329/bin/xtb xtb_tmp.xyz --chrg 1 --grad --gfn 2 --etemp 500 --acc 0.1 --gbsa h2o --parallel 1
          hostname                   : cu05
          coordinate file            : xtb_tmp.xyz
          omp threads                :                     1
          number of atoms            :                   209
          number of electrons        :                   548
          charge                     :                     1
          spin                       :                   0.0
          first test random number   :      0.43070020089369


########################################################################
# WARNING! Please study the warnings concerning your input carefully
#  - XTBPATH is not set, using XTBHOME instead
########################################################################

           ------------------------------------------------- 
          |                 G F N 2 - x T B                 |
          | Geometry, Frequencies, Noncovalent interactions |
          |            JCTC 2018 parametrisation            |
           ------------------------------------------------- 
 
             k(s)              :                1.8500
             k(p)              :                2.2300
             k(d)              :                2.2300
             k(f)              :                2.0000
             kEN (H0ij)        :               -2.0000
             D4 a1             :                0.5200
             D4 a2             :                5.0000
             D4 s6             :                1.0000
             D4 s8             :                2.7000
             D4 s9             :                5.0000
             alphaj            :                2.0000

  Z AO/shell   Hii/eV     exponent
  1     Wed Apr 25 08:07:45 CEST 2018   EN: 2.200 GM2: 0.406  GM3: 0.0800  RAES: 1.40
     1s    -10.707211    1.230000
  6     Wed Apr 25 08:07:45 CEST 2018   EN: 2.550 GM2: 0.538  GM3: 0.1500  RAES: 3.00
     2s    -13.970922    2.096432
     2p    -10.063292    1.800000
  7     Wed Apr 25 08:07:45 CEST 2018   EN: 3.040 GM2: 0.461  GM3:-0.0640  RAES: 1.90
     2s    -16.686243    2.339881
     2p    -12.523956    2.014332
  8     Wed Apr 25 08:07:45 CEST 2018   EN: 3.440 GM2: 0.452  GM3:-0.0517  RAES: 1.80
     2s    -20.229985    2.439742
     2p    -15.503117    2.137023

 Solvent             : h2o
 Using internal parameter file: .param_gbsa2_h2o
 Gsolv ref. state (COSMO-RS): gsolv [1 M gas/solution]
 temperature (mdtemp)       :    298.150000000000     
 dielectric constant        :    80.2000000000000     
 rho                        :    1.00000000000000     
 mass                       :    18.0000000000000     
 surface tension            :    15.5689454083859     
 probe radius               :   0.975313790000000     
 vdW radii scaling          :    1.00000000000000     
 Gshift (Eh)                :   1.857443126794793E-003
 c1                         :    1.55243817000000     
 soset                      :   0.130326360000000     
 HB correction              :  T
 Number of grid points      :          230

            Z     q(EN)     CN     RAES       Cart. coordinates
     1  N   5.0   -0.72    3.00    1.93    36.39239    48.16828    44.24036
     2  C   4.0    0.07    3.98    3.59    34.81508    47.30266    42.17864
     3  C   4.0    0.27    3.02    3.02    36.11913    47.82215    39.65809
     4  O   6.0   -0.49    1.00    1.80    36.17593    46.23808    37.95836
     5  C   4.0   -0.15    3.98    3.59    32.26538    48.67717    42.16724
     6  C   4.0   -0.17    3.98    3.58    30.44461    47.82335    44.24187
     7  C   4.0   -0.15    3.98    3.58    29.54330    45.09056    43.97312
     8  C   4.0   -0.06    3.98    3.58    27.82628    44.72951    41.68368
     9  N   5.0   -0.73    3.98    2.82    26.94308    42.05942    41.54711
    10  H   1.0    0.25    1.00    1.43    35.59816    49.22342    45.63102
    11  H   1.0    0.10    0.99    1.43    34.60458    45.24496    42.32843
    12  H   1.0    0.10    0.99    1.43    32.66206    50.68467    42.40345
    13  H   1.0    0.10    0.99    1.43    31.41221    48.40259    40.31563
    14  H   1.0    0.10    0.99    1.43    31.35780    48.04933    46.07304
    15  H   1.0    0.10    0.99    1.43    28.81289    49.08031    44.22284
    16  H   1.0    0.10    0.99    1.43    31.18091    43.84919    43.84187
    17  H   1.0    0.11    0.99    1.43    28.52763    44.60325    45.69689
    18  H   1.0    0.11    0.99    1.43    26.18835    45.97095    41.84030
    19  H   1.0    0.10    0.99    1.43    28.86364    45.14870    39.95607
    20  H   1.0    0.24    1.00    1.43    25.75290    41.78549    40.03030
    21  H   1.0    0.24    1.00    1.43    28.47247    40.86500    41.36348
    22  H   1.0    0.24    1.00    1.43    26.00479    41.57440    43.18434
    23  N   5.0   -0.49    3.01    1.93    36.92564    50.18705    39.36960
    24  C   4.0    0.07    4.00    3.61    38.06873    51.02457    37.03685
    25  C   4.0    0.28    3.01    3.02    40.56407    49.66983    36.51854
    26  O   6.0   -0.48    1.00    1.80    41.13989    49.08328    34.34059
    27  C   4.0   -0.15    3.98    3.59    38.40398    53.90060    37.03423
    28  C   4.0   -0.10    3.97    3.58    36.09922    55.34986    36.01194
    29  C   4.0   -0.23    3.98    3.59    35.93285    55.14414    33.13546
    30  C   4.0   -0.22    3.98    3.59    33.64247    54.49979    37.26473
    31  H   1.0    0.23    1.00    1.43    36.88416    51.39643    40.85892
    32  H   1.0    0.12    0.99    1.43    36.83982    50.44428    35.47046
    33  H   1.0    0.10    0.99    1.43    38.80205    54.48054    38.97325
    34  H   1.0    0.11    0.99    1.43    40.05603    54.37328    35.89149
    35  H   1.0    0.11    0.99    1.43    36.40594    57.34321    36.47822
    36  H   1.0    0.10    0.99    1.43    34.29795    56.17443    32.44221
    37  H   1.0    0.10    0.99    1.43    37.60996    55.94820    32.26031
    38  H   1.0    0.10    0.99    1.43    35.80976    53.18462    32.53187
    39  H   1.0    0.10    0.99    1.43    32.10489    55.71793    36.66153
    40  H   1.0    0.11    0.99    1.43    33.21496    52.55768    36.76572
    41  H   1.0    0.10    0.99    1.43    33.82032    54.61927    39.30533
    42  N   5.0   -0.48    3.01    1.93    42.02165    49.19809    38.50966
    43  C   4.0    0.07    4.00    3.62    44.33559    47.78623    38.24267
    44  C   4.0    0.28    3.01    3.02    43.80138    45.06141    37.45137
    45  O   6.0   -0.48    1.00    1.80    45.36577    43.90881    36.16660
    46  C   4.0   -0.15    3.99    3.60    45.91223    47.80772    40.66020
    47  C   4.0   -0.10    3.98    3.58    47.19406    50.34526    41.22649
    48  C   4.0   -0.23    3.99    3.60    48.47442    50.18286    43.80538
    49  C   4.0   -0.22    3.98    3.59    49.16261    51.06098    39.24302
    50  H   1.0    0.24    1.00    1.43    41.51861    49.77018    40.27130
    51  H   1.0    0.12    0.99    1.43    45.43555    48.58885    36.67722
    52  H   1.0    0.11    0.99    1.43    44.66117    47.30048    42.22283
    53  H   1.0    0.11    0.99    1.43    47.35789    46.34185    40.48628
    54  H   1.0    0.11    0.99    1.43    45.73487    51.80861    41.29777
    55  H   1.0    0.11    0.99    1.43    49.39019    51.96481    44.24607
    56  H   1.0    0.10    0.99    1.43    47.08842    49.78147    45.26618
    57  H   1.0    0.11    0.99    1.43    49.89008    48.69185    43.78707
    58  H   1.0    0.10    0.99    1.43    50.07444    52.82062    39.78179
    59  H   1.0    0.11    0.99    1.43    50.59575    49.59258    39.10340
    60  H   1.0    0.10    0.99    1.43    48.32282    51.32735    37.38734
    61  N   5.0   -0.46    3.01    1.93    41.60113    44.07832    38.17947
    62  C   4.0    0.07    4.00    3.61    40.82282    41.57453    37.38432
    63  C   4.0    0.30    3.01    3.02    40.10809    41.62600    34.56916
    64  O   6.0   -0.42    1.00    1.80    40.98847    40.09927    33.05403
    65  C   4.0   -0.15    3.98    3.59    38.59645    40.63498    38.95863
    66  C   4.0   -0.15    3.98    3.59    37.95258    37.89505    38.30418
    67  C   4.0   -0.15    3.98    3.59    39.81158    36.06169    39.54210
    68  C   4.0   -0.04    3.98    3.58    39.54067    33.35802    38.60858
    69  N   5.0   -0.72    3.98    2.81    40.50425    33.02693    35.99882
    70  H   1.0    0.25    1.00    1.43    40.61572    44.90445    39.60956
    71  H   1.0    0.12    0.99    1.43    42.44079    40.28606    37.54477
    72  H   1.0    0.10    0.99    1.43    39.08789    40.77538    40.95864
    73  H   1.0    0.13    0.99    1.43    36.99319    41.87369    38.58908
    74  H   1.0    0.11    0.99    1.43    36.05783    37.45771    38.97653
    75  H   1.0    0.15    0.99    1.43    37.97241    37.66689    36.25371
    76  H   1.0    0.12    0.99    1.43    41.75353    36.67059    39.21262
    77  H   1.0    0.10    0.99    1.43    39.48236    36.06238    41.57962
    78  H   1.0    0.12    0.99    1.43    40.63713    32.12037    39.83889
    79  H   1.0    0.12    0.99    1.43    37.55765    32.80261    38.67413
    80  H   1.0    0.26    1.00    1.43    40.35379    31.16926    35.48254
    81  H   1.0    0.31    0.99    1.43    39.50419    34.06793    34.63468
    82  H   1.0    0.31    0.99    1.43    42.40900    33.55787    35.84123
    83  N   5.0   -0.47    3.01    1.93    38.48613    43.43767    33.92468
    84  C   4.0    0.08    4.00    3.62    37.76051    43.74914    31.29776
    85  C   4.0    0.30    3.01    3.02    40.17265    43.84745    29.70304
    86  O   6.0   -0.40    1.00    1.80    40.44054    42.66171    27.73325
    87  C   4.0   -0.15    3.98    3.59    36.18497    46.14205    30.94004
    88  C   4.0   -0.16    3.98    3.59    33.67209    46.00032    32.36722
    89  C   4.0   -0.16    3.98    3.58    31.91075    48.17472    31.63132
    90  C   4.0   -0.06    3.98    3.58    29.50214    48.11017    33.21981
    91  N   5.0   -0.73    3.98    2.82    27.62885    49.98373    32.27129
    92  H   1.0    0.29    1.00    1.43    37.75230    44.62299    35.25182
    93  H   1.0    0.16    0.99    1.43    36.72076    42.06639    30.66063
    94  H   1.0    0.13    0.99    1.43    37.31095    47.75680    31.56256
    95  H   1.0    0.11    0.99    1.43    35.84218    46.34155    28.91550
    96  H   1.0    0.12    0.99    1.43    32.79111    44.19087    31.92223
    97  H   1.0    0.14    0.99    1.43    34.04462    46.04825    34.39087
    98  H   1.0    0.10    0.99    1.43    32.89898    49.96483    31.89693
    99  H   1.0    0.11    0.99    1.43    31.46151    47.98216    29.62939
   100  H   1.0    0.11    0.99    1.43    28.67589    46.22610    33.11433
   101  H   1.0    0.10    0.99    1.43    29.95323    48.55727    35.18065
   102  H   1.0    0.24    1.00    1.43    26.02560    49.99949    33.37906
   103  H   1.0    0.23    1.00    1.43    28.40684    51.76971    32.26688
   104  H   1.0    0.24    1.00    1.43    27.12256    49.54875    30.44031
   105  N   5.0   -0.47    3.01    1.93    41.95088    45.40236    30.62810
   106  C   4.0    0.07    3.99    3.61    44.36761    45.72054    29.38585
   107  C   4.0    0.30    3.01    3.02    45.70977    43.16271    29.23193
   108  O   6.0   -0.47    1.00    1.80    46.21060    42.20905    27.16798
   109  C   4.0   -0.21    3.98    3.59    45.95076    47.67136    30.78215
   110  H   1.0    0.30    1.00    1.43    41.60648    46.52897    32.14724
   111  H   1.0    0.13    0.99    1.43    44.04252    46.30372    27.41660
   112  H   1.0    0.09    0.99    1.43    47.63192    48.10987    29.69815
   113  H   1.0    0.12    0.99    1.43    44.85317    49.38627    31.04102
   114  H   1.0    0.13    0.99    1.43    46.52509    46.93895    32.61273
   115  N   5.0   -0.48    3.01    1.93    46.31717    42.10582    31.41808
   116  C   4.0    0.08    3.99    3.60    47.57106    39.68475    31.70394
   117  C   4.0    0.32    3.01    3.02    47.09214    37.93607    29.46093
   118  O   6.0   -0.41    1.00    1.80    48.80060    37.21966    28.06706
   119  C   4.0   -0.09    3.98    3.59    46.59843    38.41181    34.10385
   120  C   4.0    0.32    2.99    3.02    47.21452    35.53460    34.17772
   121  O   6.0   -0.37    1.00    1.80    49.29505    34.85084    33.34424
   122  O   6.0   -0.44    1.00    1.80    45.55031    34.14009    35.12245
   123  H   1.0    0.30    1.00    1.43    45.81824    42.93325    33.08611
   124  H   1.0    0.13    0.99    1.43    49.63172    39.95795    31.80798
   125  H   1.0    0.12    0.99    1.43    47.45041    39.30094    35.75805
   126  H   1.0    0.15    0.99    1.43    44.55435    38.63285    34.19136
   127  N   5.0   -0.48    3.01    1.93    44.69374    37.16786    29.21460
   128  C   4.0    0.08    3.99    3.61    44.00438    35.12728    27.53901
   129  C   4.0    0.29    3.01    3.02    44.42463    35.71103    24.73628
   130  O   6.0   -0.40    1.00    1.80    44.44076    33.98831    23.18761
   131  C   4.0   -0.13    3.98    3.59    41.29621    34.25273    28.04496
   132  C   4.0   -0.09    3.97    3.58    39.32619    36.34610    27.87273
   133  C   4.0    0.33    2.99    3.02    37.47520    36.39360    30.16575
   134  O   6.0   -0.45    1.00    1.80    37.90925    34.95221    31.98794
   135  O   6.0   -0.39    1.00    1.80    35.67668    37.89126    30.02964
   136  H   1.0    0.28    1.00    1.43    43.33276    37.87277    30.35598
   137  H   1.0    0.15    0.99    1.43    45.28842    33.52879    27.91450
   138  H   1.0    0.13    0.99    1.43    40.87806    32.73295    26.71557
   139  H   1.0    0.15    0.99    1.43    41.22575    33.46987    29.95891
   140  H   1.0    0.16    0.99    1.43    40.19816    38.21708    27.84980
   141  H   1.0    0.13    0.99    1.43    38.20248    36.20397    26.14981
   142  N   5.0   -0.47    3.00    1.93    44.72175    38.14340    24.11969
   143  C   4.0    0.02    3.99    3.61    45.63526    38.91098    21.66613
   144  C   4.0    0.28    3.01    3.02    48.49941    39.35688    21.68540
   145  O   6.0   -0.43    1.00    1.80    49.94681    38.07761    20.40304
   146  H   1.0    0.32    1.00    1.43    44.84052    39.45010    25.51541
   147  H   1.0    0.15    0.99    1.43    45.22434    37.37494    20.34902
   148  H   1.0    0.11    0.99    1.43    44.67729    40.64972    21.09920
   149  N   5.0   -0.49    3.01    1.93    49.26077    41.27499    23.12557
   150  C   4.0    0.07    3.99    3.61    51.89017    42.01121    23.32236
   151  C   4.0    0.29    3.02    3.02    53.67092    39.76394    23.16868
   152  O   6.0   -0.41    1.00    1.80    55.41074    39.74120    21.60950
   153  C   4.0   -0.13    3.99    3.61    52.47897    43.38819    25.79804
   154  C   4.0   -0.10    3.97    3.58    51.57074    46.13662    25.95425
   155  C   4.0   -0.23    3.99    3.60    52.50907    47.22413    28.46167
   156  C   4.0   -0.22    3.98    3.59    52.55679    47.74466    23.77022
   157  H   1.0    0.29    1.00    1.43    48.04072    42.06047    24.37757
   158  H   1.0    0.11    0.99    1.43    52.35534    43.22812    21.71026
   159  H   1.0    0.13    0.99    1.43    51.65341    42.30010    27.34737
   160  H   1.0    0.11    0.99    1.43    54.53175    43.38404    26.02735
   161  H   1.0    0.12    0.99    1.43    49.50230    46.15454    25.92549
   162  H   1.0    0.10    0.99    1.43    51.86175    49.15659    28.71106
   163  H   1.0    0.11    0.99    1.43    51.84622    46.08835    30.04153
   164  H   1.0    0.11    0.99    1.43    54.56394    47.22594    28.48144
   165  H   1.0    0.11    0.99    1.43    52.17155    49.72804    24.13576
   166  H   1.0    0.11    0.99    1.43    54.58722    47.49668    23.56773
   167  H   1.0    0.10    0.99    1.43    51.64943    47.24566    21.99767
   168  N   5.0   -0.48    3.01    1.93    53.45406    37.97707    24.91865
   169  C   4.0    0.07    4.00    3.62    55.40397    36.05223    25.10903
   170  C   4.0    0.31    3.01    3.02    56.14384    35.19015    22.44935
   171  O   6.0   -0.35    1.00    1.80    58.34207    35.06825    21.72213
   172  C   4.0   -0.19    3.98    3.59    54.47974    33.82326    26.67817
   173  H   1.0    0.29    1.00    1.43    51.96048    37.88017    26.11807
   174  H   1.0    0.13    0.99    1.43    57.09407    36.88266    25.98895
   175  H   1.0    0.12    0.99    1.43    56.02073    32.50178    26.97722
   176  H   1.0    0.14    0.99    1.43    53.78381    34.48777    28.49515
   177  H   1.0    0.14    0.99    1.43    52.93334    32.85623    25.73642
   178  N   5.0   -0.49    3.01    1.93    54.17381    34.38254    21.07826
   179  C   4.0    0.10    3.99    3.61    54.43648    33.30003    18.58548
   180  C   4.0    0.32    3.01    3.02    56.35379    34.72074    16.96024
   181  O   6.0   -0.36    1.00    1.80    58.05781    33.58786    15.87698
   182  C   4.0   -0.01    3.98    3.59    51.85103    33.27362    17.27584
   183  O   6.0   -0.45    1.99    1.82    52.15307    32.29373    14.82508
   184  H   1.0    0.28    1.00    1.43    52.41065    34.90489    21.60292
   185  H   1.0    0.15    0.99    1.43    55.14301    31.35334    18.73736
   186  H   1.0    0.12    0.99    1.43    50.57148    32.09339    18.40350
   187  H   1.0    0.14    0.99    1.43    51.09457    35.20502    17.23803
   188  H   1.0    0.26    0.99    1.43    50.50459    32.06111    14.07599
   189  N   5.0   -0.47    3.00    1.93    55.96653    37.20438    16.73279
   190  C   4.0    0.08    3.99    3.60    57.42734    38.72063    14.99319
   191  C   4.0    0.09    3.00    3.02    59.44669    40.37687    16.23047
   192  O   6.0   -0.39    1.00    1.80    60.43496    42.11100    15.07114
   193  C   4.0   -0.12    3.98    3.59    55.76239    40.22404    13.13760
   194  C   4.0   -0.09    3.97    3.58    54.66576    42.74176    14.06414
   195  C   4.0   -0.22    3.98    3.59    53.27021    44.01295    11.87578
   196  C   4.0   -0.21    3.98    3.59    52.89923    42.41095    16.31719
   197  H   1.0    0.28    1.00    1.43    54.63054    38.05613    17.80103
   198  H   1.0    0.16    0.99    1.43    58.49425    37.34821    13.84730
   199  H   1.0    0.12    0.99    1.43    56.94341    40.62148    11.49451
   200  H   1.0    0.12    0.99    1.43    54.23308    38.97496    12.53968
   201  H   1.0    0.14    0.99    1.43    56.23955    43.95940    14.62494
   202  H   1.0    0.11    0.99    1.43    52.53178    45.83518    12.46792
   203  H   1.0    0.12    0.99    1.43    54.54223    44.31164    10.29109
   204  H   1.0    0.11    0.99    1.43    51.70408    42.84177    11.24673
   205  H   1.0    0.10    0.99    1.43    51.96811    44.19272    16.74600
   206  H   1.0    0.12    0.99    1.43    51.45118    41.00663    15.91727
   207  H   1.0    0.14    0.99    1.43    53.95653    41.82142    17.97517
   208  H   1.0    0.29    1.00    1.43    37.05907    46.82746    45.04677
   209  H   1.0    0.17    1.00    1.43    59.97616    40.04738    18.01433

           ------------------------------------------------- 
          |        Self-Consistent Charge Iterations        |
           ------------------------------------------------- 

          ...................................................
          :                      SETUP                      :
          :.................................................:
          :  # basis functions                 497          :
          :  # atomic orbitals                 497          :
          :  # shells                          305          :
          :  # electrons                       548          :
          :  max. iterations                   250          :
          :  Hamiltonian                  GFN2-xTB          :
          :  restarted?                      false          :
          :  GBSA solvation                   true          :
          :  PC potential                    false          :
          :  electronic temp.          500.0000000     K    :
          :  accuracy                    0.1000000          :
          :  -> integral cutoff          0.3500000E+02      :
          :  -> integral neglect         0.1000000E-08      :
          :  -> SCF convergence          0.1000000E-06 Eh   :
          :  -> wf. convergence          0.1000000E-04 e    :
          :  Broyden damping             0.4000000          :
          ...................................................

 iter      E             dE          RMSdq      gap      omega  full diag
   1   -312.9894551 -0.312989E+03  0.409E+00    1.66       0.0  T
   2   -314.0286449 -0.103919E+01  0.212E+00    1.98       1.0  T
   3   -314.0639231 -0.352781E-01  0.115E+00    2.65       1.0  T
   4   -314.0696936 -0.577056E-02  0.254E-01    2.06       1.0  T
   5   -314.0741758 -0.448211E-02  0.121E-01    2.33       1.0  T
   6   -314.0747067 -0.530899E-03  0.604E-02    2.31       1.0  T
   7   -314.0747626 -0.559347E-04  0.170E-02    2.38       1.0  T
   8   -314.0747772 -0.145986E-04  0.857E-03    2.38       1.0  T
   9   -314.0747792 -0.204446E-05  0.303E-03    2.38       2.3  T
  10   -314.0747795 -0.263829E-06  0.113E-03    2.38       6.1  T
  11   -314.0747795 -0.501718E-07  0.441E-04    2.38      15.7  T
  12   -314.0747796 -0.626051E-08  0.183E-04    2.38      37.8  T
  13   -314.0747796 -0.854243E-09  0.845E-05    2.38      81.8  T
  14   -314.0747796 -0.228169E-09  0.277E-05    2.38     249.8  T

   *** convergence criteria satisfied after 14 iterations ***

         #    Occupation            Energy/Eh            Energy/eV
      -------------------------------------------------------------
         1        2.0000           -0.7316651             -19.9096
       ...           ...                  ...                  ...
       268        2.0000           -0.3953957             -10.7593
       269        2.0000           -0.3950343             -10.7494
       270        2.0000           -0.3942246             -10.7274
       271        2.0000           -0.3850056             -10.4765
       272        2.0000           -0.3754978             -10.2178
       273        2.0000           -0.3737471             -10.1702
       274        2.0000           -0.3664962              -9.9729 (HOMO)
       275                         -0.2789260              -7.5900 (LUMO)
       276                         -0.2512818              -6.8377
       277                         -0.2431594              -6.6167
       278                         -0.2413370              -6.5671
       279                         -0.2375712              -6.4646
       ...                                ...                  ...
       497                          0.6390568              17.3896
      -------------------------------------------------------------
                  HL-Gap            0.0875702 Eh            2.3829 eV
             Fermi-level           -0.3227111 Eh           -8.7814 eV

 SCC (total)                   0 d,  0 h,  0 min,  2.872 sec
 SCC setup                      ...        0 min,  0.042 sec (  1.462%)
 Dispersion                     ...        0 min,  0.051 sec (  1.767%)
 integral evaluation            ...        0 min,  0.223 sec (  7.775%)
 zeroth order Hamiltonian       ...        0 min,  0.006 sec (  0.194%)
 iterations                     ...        0 min,  1.692 sec ( 58.905%)
 molecular gradient             ...        0 min,  0.822 sec ( 28.620%)
 printout                       ...        0 min,  0.037 sec (  1.275%)

         :::::::::::::::::::::::::::::::::::::::::::::::::::::
         ::                     SUMMARY                     ::
         :::::::::::::::::::::::::::::::::::::::::::::::::::::
         :: total energy             -310.441516623422 Eh   ::
         :: total w/o Gsasa/hb       -310.398880255360 Eh   ::
         :: gradient norm               0.225031224410 Eh/α ::
         :: HOMO-LUMO gap               2.382906829167 eV   ::
         ::.................................................::
         :: SCC energy               -314.083169492985 Eh   ::
         :: -> isotropic ES             1.311120061736 Eh   ::
         :: -> anisotropic ES          -0.103546799721 Eh   ::
         :: -> anisotropic XC           0.095489210584 Eh   ::
         :: -> dispersion              -0.262737561893 Eh   ::
         :: -> Gsolv                   -0.509388218304 Eh   ::
         ::    -> Gborn                -0.466751850243 Eh   ::
         ::    -> Gsasa                -0.010247379934 Eh   ::
         ::    -> Ghb                  -0.034246431254 Eh   ::
         ::    -> Gshift                0.001857443127 Eh   ::
         :: repulsion energy            3.622240488804 Eh   ::
         :: add. restraining            0.000000000000 Eh   ::
         :::::::::::::::::::::::::::::::::::::::::::::::::::::

           -------------------------------------------------
          |                Property Printout                |
           -------------------------------------------------

    * Orbital Energies and Occupations

         #    Occupation            Energy/Eh            Energy/eV
      -------------------------------------------------------------
         1        2.0000           -0.7316651             -19.9096
       ...           ...                  ...                  ...
       262        2.0000           -0.4049339             -11.0188
       263        2.0000           -0.4036895             -10.9850
       264        2.0000           -0.4015252             -10.9261
       265        2.0000           -0.4011599             -10.9161
       266        2.0000           -0.4006021             -10.9009
       267        2.0000           -0.3961321             -10.7793
       268        2.0000           -0.3953957             -10.7593
       269        2.0000           -0.3950343             -10.7494
       270        2.0000           -0.3942246             -10.7274
       271        2.0000           -0.3850056             -10.4765
       272        2.0000           -0.3754978             -10.2178
       273        2.0000           -0.3737471             -10.1702
       274        2.0000           -0.3664962              -9.9729 (HOMO)
       275                         -0.2789260              -7.5900 (LUMO)
       276                         -0.2512818              -6.8377
       277                         -0.2431594              -6.6167
       278                         -0.2413370              -6.5671
       279                         -0.2375712              -6.4646
       280                         -0.2359401              -6.4203
       281                         -0.2314899              -6.2992
       282                         -0.2303652              -6.2686
       283                         -0.2293088              -6.2398
       284                         -0.2232595              -6.0752
       285                         -0.2214580              -6.0262
       ...                                ...                  ...
       497                          0.6390568              17.3896
      -------------------------------------------------------------
                  HL-Gap            0.0875702 Eh            2.3829 eV
             Fermi-level           -0.3227111 Eh           -8.7814 eV

   #   Z        covCN         q      C6AA      α(0)
   1   7 N      2.636    -0.399    30.346     8.181
   2   6 C      3.788     0.018    20.284     6.415
   3   6 C      2.762     0.253    22.749     7.811
   4   8 O      0.858    -0.494    23.652     6.520
   5   6 C      3.808    -0.088    22.165     6.702
   6   6 C      3.802    -0.073    21.897     6.662
   7   6 C      3.802    -0.094    22.299     6.723
   8   6 C      3.731    -0.056    21.682     6.647
   9   7 N      3.483    -0.149    24.220     7.309
  10   1 H      0.860     0.166     1.299     1.785
  11   1 H      0.924     0.055     2.259     2.351
  12   1 H      0.925     0.064     2.152     2.294
  13   1 H      0.925     0.071     2.074     2.252
  14   1 H      0.925     0.048     2.341     2.392
  15   1 H      0.925     0.068     2.105     2.269
  16   1 H      0.925     0.071     2.080     2.255
  17   1 H      0.925     0.072     2.067     2.248
  18   1 H      0.924     0.128     1.552     1.948
  19   1 H      0.925     0.124     1.579     1.965
  20   1 H      0.859     0.303     0.703     1.314
  21   1 H      0.859     0.293     0.734     1.342
  22   1 H      0.859     0.291     0.740     1.347
  23   7 N      2.691    -0.161    24.491     7.350
  24   6 C      3.799     0.006    20.481     6.444
  25   6 C      2.760     0.268    22.476     7.764
  26   8 O      0.859    -0.497    23.726     6.531
  27   6 C      3.806    -0.077    21.973     6.673
  28   6 C      3.848    -0.017    20.844     6.494
  29   6 C      3.755    -0.121    22.876     6.820
  30   6 C      3.755    -0.135    23.159     6.862
  31   1 H      0.860     0.223     0.997     1.564
  32   1 H      0.924     0.105     1.737     2.061
  33   1 H      0.924     0.061     2.193     2.316
  34   1 H      0.924     0.049     2.339     2.391
  35   1 H      0.924     0.041     2.439     2.442
  36   1 H      0.925     0.055     2.261     2.351
  37   1 H      0.925     0.023     2.687     2.563
  38   1 H      0.925     0.046     2.366     2.405
  39   1 H      0.925     0.061     2.189     2.314
  40   1 H      0.925     0.065     2.146     2.291
  41   1 H      0.925     0.049     2.327     2.386
  42   7 N      2.689    -0.174    24.762     7.390
  43   6 C      3.801     0.016    20.302     6.415
  44   6 C      2.759     0.272    22.405     7.751
  45   8 O      0.858    -0.511    24.036     6.573
  46   6 C      3.810    -0.078    21.979     6.673
  47   6 C      3.849    -0.015    20.809     6.488
  48   6 C      3.759    -0.120    22.855     6.816
  49   6 C      3.756    -0.117    22.794     6.807
  50   1 H      0.860     0.225     0.988     1.557
  51   1 H      0.923     0.082     1.961     2.190
  52   1 H      0.924     0.066     2.127     2.281
  53   1 H      0.924     0.053     2.287     2.365
  54   1 H      0.924     0.053     2.282     2.363
  55   1 H      0.925     0.048     2.350     2.397
  56   1 H      0.925     0.050     2.316     2.380
  57   1 H      0.925     0.037     2.493     2.469
  58   1 H      0.925     0.048     2.347     2.396
  59   1 H      0.925     0.034     2.534     2.489
  60   1 H      0.925     0.037     2.492     2.469
  61   7 N      2.689    -0.175    24.783     7.394
  62   6 C      3.799     0.019    20.259     6.409
  63   6 C      2.761     0.283    22.216     7.719
  64   8 O      0.858    -0.536    24.590     6.649
  65   6 C      3.807    -0.092    22.258     6.716
  66   6 C      3.803    -0.077    21.969     6.673
  67   6 C      3.803    -0.086    22.138     6.699
  68   6 C      3.731    -0.033    21.259     6.581
  69   7 N      3.480    -0.170    24.671     7.377
  70   1 H      0.860     0.227     0.980     1.551
  71   1 H      0.924     0.057     2.239     2.340
  72   1 H      0.924     0.081     1.969     2.194
  73   1 H      0.925     0.097     1.813     2.106
  74   1 H      0.925     0.085     1.926     2.170
  75   1 H      0.924     0.039     2.459     2.452
  76   1 H      0.924     0.047     2.355     2.400
  77   1 H      0.924     0.093     1.854     2.129
  78   1 H      0.924     0.100     1.787     2.091
  79   1 H      0.924     0.113     1.670     2.021
  80   1 H      0.859     0.265     0.827     1.424
  81   1 H      0.857     0.283     0.766     1.371
  82   1 H      0.857     0.274     0.797     1.398
  83   7 N      2.692    -0.188    25.070     7.436
  84   6 C      3.803     0.024    20.175     6.395
  85   6 C      2.758     0.286    22.146     7.706
  86   8 O      0.858    -0.528    24.420     6.626
  87   6 C      3.806    -0.079    21.999     6.677
  88   6 C      3.804    -0.085    22.123     6.696
  89   6 C      3.802    -0.093    22.265     6.718
  90   6 C      3.732    -0.054    21.646     6.641
  91   7 N      3.483    -0.146    24.146     7.298
  92   1 H      0.860     0.257     0.857     1.451
  93   1 H      0.923     0.072     2.065     2.247
  94   1 H      0.924     0.063     2.160     2.298
  95   1 H      0.924     0.051     2.307     2.375
  96   1 H      0.924     0.060     2.204     2.321
  97   1 H      0.925     0.087     1.912     2.162
  98   1 H      0.924     0.076     2.021     2.223
  99   1 H      0.924     0.070     2.081     2.256
 100   1 H      0.925     0.129     1.544     1.943
 101   1 H      0.924     0.127     1.556     1.951
 102   1 H      0.859     0.314     0.674     1.286
 103   1 H      0.859     0.295     0.728     1.336
 104   1 H      0.859     0.292     0.738     1.346
 105   7 N      2.692    -0.209    25.554     7.508
 106   6 C      3.795     0.034    20.005     6.369
 107   6 C      2.753     0.281    22.243     7.723
 108   8 O      0.859    -0.518    24.194     6.595
 109   6 C      3.757    -0.139    23.225     6.871
 110   1 H      0.860     0.243     0.912     1.496
 111   1 H      0.923     0.062     2.180     2.309
 112   1 H      0.925     0.070     2.086     2.259
 113   1 H      0.925     0.094     1.836     2.119
 114   1 H      0.925     0.060     2.198     2.318
 115   7 N      2.690    -0.194    25.208     7.457
 116   6 C      3.794     0.048    19.778     6.333
 117   6 C      2.758     0.298    21.938     7.670
 118   8 O      0.858    -0.516    24.143     6.588
 119   6 C      3.806    -0.108    22.566     6.762
 120   6 C      2.684     0.367    20.776     7.459
 121   8 O      0.856    -0.633    26.934     6.958
 122   8 O      0.856    -0.614    26.457     6.896
 123   1 H      0.860     0.249     0.888     1.476
 124   1 H      0.923     0.040     2.454     2.450
 125   1 H      0.924     0.048     2.343     2.394
 126   1 H      0.925     0.063     2.161     2.299
 127   7 N      2.689    -0.193    25.179     7.452
 128   6 C      3.796     0.040    19.907     6.353
 129   6 C      2.754     0.278    22.297     7.732
 130   8 O      0.858    -0.506    23.919     6.557
 131   6 C      3.805    -0.061    21.667     6.627
 132   6 C      3.797    -0.096    22.337     6.729
 133   6 C      2.683     0.374    20.657     7.438
 134   8 O      0.856    -0.615    26.501     6.902
 135   8 O      0.856    -0.609    26.345     6.882
 136   1 H      0.860     0.217     1.024     1.585
 137   1 H      0.923     0.043     2.416     2.431
 138   1 H      0.924     0.044     2.396     2.421
 139   1 H      0.924     0.060     2.204     2.322
 140   1 H      0.924     0.036     2.507     2.476
 141   1 H      0.924     0.018     2.760     2.598
 142   7 N      2.686    -0.180    24.906     7.412
 143   6 C      3.746    -0.031    21.190     6.566
 144   6 C      2.752     0.274    22.367     7.744
 145   8 O      0.858    -0.501    23.807     6.542
 146   1 H      0.860     0.216     1.026     1.587
 147   1 H      0.924     0.095     1.832     2.116
 148   1 H      0.924     0.090     1.878     2.143
 149   7 N      2.689    -0.187    25.064     7.435
 150   6 C      3.796     0.025    20.166     6.394
 151   6 C      2.768     0.284    22.194     7.716
 152   8 O      0.859    -0.505    23.892     6.553
 153   6 C      3.815    -0.069    21.810     6.647
 154   6 C      3.849    -0.011    20.734     6.477
 155   6 C      3.759    -0.119    22.833     6.812
 156   6 C      3.756    -0.122    22.895     6.823
 157   1 H      0.860     0.240     0.923     1.505
 158   1 H      0.924     0.080     1.977     2.199
 159   1 H      0.924     0.038     2.479     2.462
 160   1 H      0.924     0.051     2.306     2.375
 161   1 H      0.924     0.034     2.529     2.487
 162   1 H      0.925     0.061     2.192     2.315
 163   1 H      0.925     0.035     2.520     2.482
 164   1 H      0.925     0.049     2.332     2.388
 165   1 H      0.925     0.064     2.153     2.295
 166   1 H      0.925     0.044     2.396     2.421
 167   1 H      0.925     0.038     2.472     2.459
 168   7 N      2.691    -0.185    25.018     7.429
 169   6 C      3.804     0.029    20.082     6.380
 170   6 C      2.756     0.296    21.987     7.678
 171   8 O      0.858    -0.493    23.624     6.517
 172   6 C      3.756    -0.126    22.965     6.833
 173   1 H      0.860     0.216     1.029     1.589
 174   1 H      0.923     0.068     2.110     2.272
 175   1 H      0.925     0.072     2.059     2.244
 176   1 H      0.925     0.070     2.086     2.259
 177   1 H      0.925     0.053     2.283     2.363
 178   7 N      2.692    -0.188    25.085     7.439
 179   6 C      3.794     0.023    20.196     6.399
 180   6 C      2.757     0.292    22.045     7.689
 181   8 O      0.858    -0.492    23.614     6.515
 182   6 C      3.679     0.075    19.528     6.330
 183   8 O      1.656    -0.483    22.539     6.409
 184   1 H      0.860     0.200     1.105     1.647
 185   1 H      0.923     0.073     2.055     2.242
 186   1 H      0.924     0.039     2.460     2.453
 187   1 H      0.924     0.049     2.328     2.386
 188   1 H      0.805     0.361     0.563     1.179
 189   7 N      2.687    -0.166    24.582     7.364
 190   6 C      3.792     0.025    20.157     6.394
 191   6 C      2.763     0.210    23.558     7.949
 192   8 O      0.856    -0.363    20.946     6.136
 193   6 C      3.806    -0.075    21.927     6.666
 194   6 C      3.849    -0.010    20.730     6.476
 195   6 C      3.757    -0.120    22.847     6.815
 196   6 C      3.755    -0.111    22.677     6.790
 197   1 H      0.860     0.208     1.064     1.616
 198   1 H      0.923     0.110     1.700     2.039
 199   1 H      0.924     0.071     2.074     2.252
 200   1 H      0.924     0.061     2.192     2.315
 201   1 H      0.924     0.038     2.482     2.464
 202   1 H      0.925     0.050     2.320     2.382
 203   1 H      0.925     0.046     2.372     2.409
 204   1 H      0.925     0.047     2.363     2.404
 205   1 H      0.925     0.042     2.422     2.434
 206   1 H      0.925     0.034     2.532     2.488
 207   1 H      0.925     0.033     2.544     2.494
 208   1 H      0.862     0.172     1.258     1.757
 209   1 H      0.930     0.061     2.184     2.311

 Mol. C6AA /au·bohr⁶  :     372617.125973
 Mol. C8AA /au·bohr⁸  :    8168346.747750
 Mol. α(0) /au        :        905.650283


Wiberg/Mayer (AO) data.
largest (>0.10) Wiberg bond orders for each atom
          total WBO             WBO to atom ...
     1  N   2.992        C    2 1.012    H  208 0.959    H   10 0.950
     2  C   3.980        N    1 1.012    C    5 0.974    H   11 0.956    C    3 0.940
     3  C   3.939        O    4 1.593    N   23 1.312    C    2 0.940
     4  O   1.967        C    3 1.593    N   23 0.190
     5  C   3.988        C    6 1.006    C    2 0.974    H   12 0.969    H   13 0.967
     6  C   3.992        C    5 1.006    C    7 1.005    H   14 0.973    H   15 0.971
     7  C   3.988        C    8 1.011    C    6 1.005    H   17 0.971    H   16 0.966
     8  C   3.905        C    7 1.011    H   18 0.962    H   19 0.960    N    9 0.951
     9  N   3.662        C    8 0.951    H   22 0.899    H   21 0.899    H   20 0.894
    10  H   0.972        N    1 0.950
    11  H   0.997        C    2 0.956
    12  H   0.996        C    5 0.969
    13  H   0.995        C    5 0.967
    14  H   0.997        C    6 0.973
    15  H   0.995        C    6 0.971
    16  H   0.995        C    7 0.966
    17  H   0.995        C    7 0.971
    18  H   0.984        C    8 0.962
    19  H   0.985        C    8 0.960
    20  H   0.908        N    9 0.894
    21  H   0.914        N    9 0.899
    22  H   0.915        N    9 0.899
    23  N   3.484        C    3 1.312    C   24 0.988    H   31 0.910    O    4 0.190
    24  C   3.965        N   23 0.988    C   27 0.975    C   25 0.938    H   32 0.934
    25  C   3.937        O   26 1.602    N   42 1.301    C   24 0.938
    26  O   1.969        C   25 1.602    N   42 0.186
    27  C   3.984        C   28 0.989    C   24 0.975    H   34 0.972    H   33 0.968
    28  C   3.991        C   29 1.010    C   30 1.009    C   27 0.989    H   35 0.966
    29  C   3.994        C   28 1.010    H   37 0.987    H   36 0.984    H   38 0.978
    30  C   3.992        C   28 1.009    H   39 0.984    H   41 0.984    H   40 0.981
    31  H   0.950        N   23 0.910
    32  H   0.989        C   24 0.934
    33  H   0.996        C   27 0.968
    34  H   0.997        C   27 0.972
    35  H   0.997        C   28 0.966
    36  H   0.997        C   29 0.984
    37  H   0.999        C   29 0.987
    38  H   0.998        C   29 0.978
    39  H   0.996        C   30 0.984
    40  H   0.996        C   30 0.981
    41  H   0.998        C   30 0.984
    42  N   3.471        C   25 1.301    C   43 0.989    H   50 0.913    O   26 0.186
    43  C   3.968        N   42 0.989    C   46 0.977    C   44 0.938    H   51 0.937
    44  C   3.939        O   45 1.587    N   61 1.314    C   43 0.938
    45  O   1.965        C   44 1.587    N   61 0.184
    46  C   3.984        C   47 0.992    C   43 0.977    H   53 0.971    H   52 0.969
    47  C   3.994        C   49 1.011    C   48 1.007    C   46 0.992    H   54 0.966
    48  C   3.993        C   47 1.007    H   57 0.987    H   56 0.985    H   55 0.985
    49  C   3.995        C   47 1.011    H   59 0.987    H   58 0.984    H   60 0.981
    50  H   0.949        N   42 0.913
    51  H   0.993        C   43 0.937
    52  H   0.996        C   46 0.969
    53  H   0.997        C   46 0.971
    54  H   0.997        C   47 0.966
    55  H   0.997        C   48 0.985
    56  H   0.997        C   48 0.985
    57  H   0.999        C   48 0.987
    58  H   0.997        C   49 0.984
    59  H   0.999        C   49 0.987
    60  H   0.999        C   49 0.981
    61  N   3.468        C   44 1.314    C   62 0.975    H   70 0.909    O   45 0.184
    62  C   3.959        C   65 0.981    N   61 0.975    H   71 0.948    C   63 0.928
    63  C   3.939        O   64 1.595    N   83 1.334    C   62 0.928
    64  O   1.952        C   63 1.595    N   83 0.199
    65  C   3.979        C   66 1.006    C   62 0.981    H   72 0.968    H   73 0.963
    66  C   3.991        C   67 1.007    C   65 1.006    H   74 0.972    H   75 0.971
    67  C   3.987        C   68 1.011    C   66 1.007    H   76 0.969    H   77 0.966
    68  C   3.914        C   67 1.011    H   78 0.969    H   79 0.965    N   69 0.951
    69  N   3.643        C   68 0.951    H   80 0.914    H   82 0.849    H   81 0.837
    70  H   0.949        N   61 0.909
    71  H   0.996        C   62 0.948
    72  H   0.993        C   65 0.968
    73  H   0.990        C   65 0.963
    74  H   0.992        C   66 0.972
    75  H   0.998        C   66 0.971
    76  H   0.998        C   67 0.969
    77  H   0.991        C   67 0.966
    78  H   0.989        C   68 0.969
    79  H   0.987        C   68 0.965
    80  H   0.930        N   69 0.914
    81  H   0.920        N   69 0.837
    82  H   0.925        N   69 0.849
    83  N   3.472        C   63 1.334    C   84 0.976    H   92 0.864    O   64 0.199
    84  C   3.959        C   87 0.977    N   83 0.976    H   93 0.945    C   85 0.934
    85  C   3.933        O   86 1.627    N  105 1.291    C   84 0.934
    86  O   1.939        C   85 1.627    N  105 0.189
    87  C   3.978        C   88 0.999    C   84 0.977    H   95 0.972    H   94 0.968
    88  C   3.983        C   89 1.002    C   87 0.999    H   96 0.974    H   97 0.960
    89  C   3.987        C   90 1.011    C   88 1.002    H   99 0.971    H   98 0.967
    90  C   3.912        C   89 1.011    H  100 0.962    H  101 0.961    N   91 0.958
    91  N   3.663        C   90 0.958    H  104 0.899    H  103 0.897    H  102 0.889
    92  H   0.934        N   83 0.864
    93  H   0.994        C   84 0.945
    94  H   0.996        C   87 0.968
    95  H   0.997        C   87 0.972
    96  H   0.996        C   88 0.974
    97  H   0.992        C   88 0.960
    98  H   0.994        C   89 0.967
    99  H   0.995        C   89 0.971
   100  H   0.983        C   90 0.962
   101  H   0.984        C   90 0.961
   102  H   0.901        N   91 0.889
   103  H   0.913        N   91 0.897
   104  H   0.915        N   91 0.899
   105  N   3.439        C   85 1.291    C  106 0.981    H  110 0.867    O   86 0.189
   106  C   3.971        C  109 0.998    N  105 0.981    H  111 0.955    C  107 0.933
   107  C   3.932        O  108 1.545    N  115 1.355    C  106 0.933
   108  O   1.961        C  107 1.545    N  115 0.187
   109  C   3.981        C  106 0.998    H  114 0.977    H  112 0.976    H  113 0.974
   110  H   0.941        N  105 0.867
   111  H   0.996        C  106 0.955
   112  H   0.994        C  109 0.976
   113  H   0.991        C  109 0.974
   114  H   0.996        C  109 0.977
   115  N   3.485        C  107 1.355    C  116 0.975    H  123 0.850    O  108 0.187
   116  C   3.970        C  119 0.980    N  115 0.975    H  124 0.955    C  117 0.942
   117  C   3.939        O  118 1.608    N  127 1.297    C  116 0.942
   118  O   1.937        C  117 1.608    N  127 0.183
   119  C   3.981        C  116 0.980    H  125 0.963    H  126 0.956    C  120 0.913
   120  C   3.934        O  121 1.533    O  122 1.457    C  119 0.913
   121  O   1.828        C  120 1.533    O  122 0.213
   122  O   1.824        C  120 1.457    O  121 0.213
   123  H   0.938        N  115 0.850
   124  H   0.998        C  116 0.955
   125  H   0.998        C  119 0.963
   126  H   0.996        C  119 0.956
   127  N   3.462        C  117 1.297    C  128 0.983    H  136 0.907    O  118 0.183
   128  C   3.965        N  127 0.983    C  131 0.975    H  137 0.945    C  129 0.939
   129  C   3.950        O  130 1.621    N  142 1.307    C  128 0.939
   130  O   1.931        C  129 1.621    N  142 0.192
   131  C   3.985        C  132 1.011    H  138 0.976    C  128 0.975    H  139 0.962
   132  C   3.980        C  131 1.011    H  141 0.973    H  140 0.953    C  133 0.914
   133  C   3.938        O  135 1.529    O  134 1.456    C  132 0.914
   134  O   1.833        C  133 1.456    O  135 0.205
   135  O   1.823        C  133 1.529    O  134 0.205
   136  H   0.953        N  127 0.907
   137  H   0.998        C  128 0.945
   138  H   0.997        C  131 0.976
   139  H   0.996        C  131 0.962
   140  H   0.999        C  132 0.953
   141  H   1.000        C  132 0.973
   142  N   3.465        C  129 1.307    C  143 0.991    H  146 0.885    O  130 0.192
   143  C   3.960        N  142 0.991    H  147 0.965    H  148 0.956    C  144 0.939
   144  C   3.949        O  145 1.606    N  149 1.333    C  143 0.939
   145  O   1.954        C  144 1.606    N  149 0.199
   146  H   0.953        N  142 0.885
   147  H   0.990        C  143 0.965
   148  H   0.991        C  143 0.956
   149  N   3.474        C  144 1.333    C  150 0.976    H  157 0.870    O  145 0.199
   150  C   3.964        C  153 0.976    N  149 0.976    C  151 0.945    H  158 0.942
   151  C   3.943        O  152 1.591    N  168 1.315    C  150 0.945
   152  O   1.949        C  151 1.591    N  168 0.187
   153  C   3.985        C  154 0.990    C  150 0.976    H  159 0.972    H  160 0.970
   154  C   3.992        C  156 1.010    C  155 1.006    C  153 0.990    H  161 0.966
   155  C   3.993        C  154 1.006    H  163 0.986    H  164 0.985    H  162 0.982
   156  C   3.994        C  154 1.010    H  166 0.986    H  167 0.983    H  165 0.982
   157  H   0.942        N  149 0.870
   158  H   0.993        C  150 0.942
   159  H   0.998        C  153 0.972
   160  H   0.997        C  153 0.970
   161  H   0.999        C  154 0.966
   162  H   0.996        C  155 0.982
   163  H   0.999        C  155 0.986
   164  H   0.998        C  155 0.985
   165  H   0.996        C  156 0.982
   166  H   0.998        C  156 0.986
   167  H   0.999        C  156 0.983
   168  N   3.470        C  151 1.315    C  169 0.974    H  173 0.901    O  152 0.187
   169  C   3.967        C  172 0.998    N  168 0.974    H  174 0.954    C  170 0.935
   170  C   3.946        O  171 1.638    N  178 1.276    C  169 0.935
   171  O   1.955        C  170 1.638    N  178 0.185
   172  C   3.987        C  169 0.998    H  177 0.984    H  175 0.981    H  176 0.979
   173  H   0.953        N  168 0.901
   174  H   0.995        C  169 0.954
   175  H   0.994        C  172 0.981
   176  H   0.995        C  172 0.979
   177  H   0.997        C  172 0.984
   178  N   3.441        C  170 1.276    C  179 0.981    H  184 0.915    O  171 0.185
   179  C   3.964        N  178 0.981    C  182 0.977    H  185 0.953    C  180 0.936
   180  C   3.951        O  181 1.634    N  189 1.305    C  179 0.936
   181  O   1.950        C  180 1.634    N  189 0.195
   182  C   3.959        O  183 1.008    C  179 0.977    H  186 0.968    H  187 0.962
   183  O   1.920        C  182 1.008    H  188 0.857
   184  H   0.960        N  178 0.915
   185  H   0.994        C  179 0.953
   186  H   0.998        C  182 0.968
   187  H   0.998        C  182 0.962
   188  H   0.869        O  183 0.857
   189  N   3.476        C  180 1.305    C  190 0.985    H  197 0.909    O  181 0.195
   190  C   3.961        C  191 0.991    N  189 0.985    C  193 0.964    H  198 0.907
   191  C   3.907        O  192 1.884    C  190 0.991    H  209 0.956
   192  O   2.039        C  191 1.884
   193  C   3.983        C  194 0.997    H  200 0.972    H  199 0.971    C  190 0.964
   194  C   3.994        C  196 1.009    C  195 1.006    C  193 0.997    H  201 0.967
   195  C   3.994        C  194 1.006    H  204 0.986    H  203 0.986    H  202 0.985
   196  C   3.996        C  194 1.009    H  206 0.985    H  205 0.984    H  207 0.972
   197  H   0.957        N  189 0.909
   198  H   0.988        C  190 0.907
   199  H   0.994        C  193 0.971
   200  H   0.996        C  193 0.972
   201  H   0.999        C  194 0.967
   202  H   0.997        C  195 0.985
   203  H   0.998        C  195 0.986
   204  H   0.998        C  195 0.986
   205  H   0.998        C  196 0.984
   206  H   0.999        C  196 0.985
   207  H   0.999        C  196 0.972
   208  H   0.970        N    1 0.959
   209  H   0.996        C  191 0.956
 
molecular dipole:
                 x           y           z       tot (Debye)
 q only:       -0.991      65.572      60.231
   full:       -1.301      65.605      61.635     228.827
molecular quadrupole (traceless):
                xx          xy          yy          xz          yz          zz
 q only:    -4980.207    1354.065    3172.682    1639.334    4879.863    1807.525
  q+dip:    -5064.212    1347.296    3161.595    1756.393    4969.566    1902.617
   full:    -5064.334    1347.189    3161.680    1757.873    4968.344    1902.654


           -------------------------------------------------
          | TOTAL ENERGY             -310.441516623422 Eh   |
          | GRADIENT NORM               0.225031224410 Eh/α |
          | HOMO-LUMO GAP               2.382906829167 eV   |
           -------------------------------------------------

------------------------------------------------------------------------
 * finished run on 2019/05/31 at 07:36:44.354     
------------------------------------------------------------------------
 total:
 * wall-time:     0 d,  0 h,  0 min,  3.362 sec
 *  cpu-time:     0 d,  0 h,  0 min,  1.466 sec
 * ratio c/w:     0.436 speedup
 SCF:
 * wall-time:     0 d,  0 h,  0 min,  2.872 sec
 *  cpu-time:     0 d,  0 h,  0 min,  1.321 sec
 * ratio c/w:     0.460 speedup

