      -----------------------------------------------------------      
     |                   =====================                   |     
     |                           x T B                           |     
     |                   =====================                   |     
     |                         S. Grimme                         |     
     |          Mulliken Center for Theoretical Chemistry        |     
     |                    University of Bonn                     |     
     |                 Version 6.0.1 (SAW181210)                 |     
      -----------------------------------------------------------      

   This program is distributed in the hope that it will be useful,
   but WITHOUT ANY WARRANTY; without even the implied warranty of
   MERCHANTABILITY or FITNESS FOR A PARTICULAR PURPOSE.
   
   FOR NON-COMMERCIAL, ACADEMIA USE ONLY.
   
   Cite this work as:
   S. Grimme, C. Bannwarth, P. Shushkov, J. Comput. Theory Chem., 2017,
   13, 1989-2009.
   C. Bannwarth, S. Ehlert and S. Grimme., ChemRxiv, 2018, preprint.
   http://doi.org/10.26434/chemrxiv.7246238.v1
   
   for sTDA-xTB:
   S. Grimme and C. Bannwarth, J. Chem. Phys., 2016, 145, 054103.
   
   in the mass-spec context:
   V. Asgeirsson, C. Bauer and S. Grimme, Chem. Sci., 2017, 8, 4879.
   
   if GBSA is used:
   P. Shushkov, F. März and S. Grimme, unpublished.
   
   for ANC optimizer:
   S. Grimme, unpublished.
   Rational Function algorithm used in ANCopt:
   F. Eckert, P. Pulay, H.-J. Werner, J. Comput. Chem., 1997, 18, 1473.
   
   with help from (in alphabetical order)
   C. Bannwarth, F. Bohle, G. Brandenburg, E. Caldeweyher, M. Checinski,
   S. Dohm, S. Ehlert, S. Ehrlich, F. März, H. Neugebauer, J. Pisarek,
   P. Pracht, P. Shushkov, and S. Spicher.
   
 * started run on 2019/02/13 at 00:18:07.445     
========================================================================
 # omp threads = 16
========================================================================
number of atoms            : 342
number of electrons        : 926
charge                     : 0
spin                       : .0
first test random number   : .4741

########################################################################
# WARNING! Please study the warnings concerning your input carefully
#  - Process number higher than OMP_NUM_THREADS, I hope you know what you are doing.
########################################################################

           ------------------------------------------------- 
          |                 G F N 2 - x T B                 |
          | Geometry, Frequencies, Noncovalent interactions |
          |            JCTC 2018 parametrisation            |
           ------------------------------------------------- 
 
      method parameters     
 k(s)        :  1.8500
 k(p)        :  2.2300
 k(d)        :  2.2300
 k(f)        :  2.0000
 kEN (H0ij)  : -2.0000
 D4 a1       :  0.5200
 D4 a2       :  5.0000
 D4 s6       :  1.0000
 D4 s8       :  2.7000
 D4 s9       :  5.0000
 alphaj      :  2.0000

 Solvent             : h2o
 Using internal parameter file: .param_gbsa2_h2o
 Gsolv ref. state (COSMO-RS): gsolv [1 M gas/solution]
 temperature (mdtemp)       :    298.150000000000     
 dielectric constant        :    80.2000000000000     
 rho                        :    1.00000000000000     
 mass                       :    18.0000000000000     
 surface tension            :    15.5689454083859     
 probe radius               :   0.975313790000000     
 vdW radii scaling          :    1.00000000000000     
 Gshift (Eh)                :   1.857443126794793E-003
 c1                         :    1.55243817000000     
 soset                      :   0.130326360000000     
 HB correction              :  T

            Z     q(EN)     CN     RAES       Cart. coordinates
     1  N   5.0   -0.19    3.23    1.96   325.98124   127.42264   172.99828
     2  C   4.0    0.03    4.32    4.23   327.98759   128.72346   171.67837
     3  C   4.0    0.15    3.44    3.09   329.91407   126.76861   170.72832
     4  O   6.0   -0.29    1.24    1.80   330.23600   124.75004   171.80284
     5  C   4.0   -0.04    4.34    4.26   329.40886   130.51883   173.47401
     6  C   4.0   -0.02    3.53    3.13   328.27564   133.12156   173.59634
     7  C   4.0   -0.05    3.46    3.10   326.20656   133.66554   175.12344
     8  C   4.0   -0.04    3.47    3.10   329.32109   135.06558   172.17944
     9  C   4.0   -0.04    3.43    3.09   325.20212   136.07601   175.22697
    10  C   4.0   -0.05    3.43    3.09   328.35863   137.48944   172.28432
    11  C   4.0    0.07    3.45    3.09   326.27065   138.00981   173.79274
    12  O   6.0   -0.24    2.11    1.84   325.25548   140.36555   173.91187
    13  H   1.0    0.08    1.03    1.43   326.08744   127.42693   174.91249
    14  H   1.0    0.04    1.05    1.44   327.21739   129.77143   170.06546
    15  H   1.0    0.04    1.03    1.43   329.41692   129.66240   175.34991
    16  H   1.0    0.05    1.04    1.43   331.35859   130.67374   172.81103
    17  H   1.0    0.05    1.03    1.43   325.36524   132.17740   176.23955
    18  H   1.0    0.05    1.03    1.43   330.91772   134.69303   170.96714
    19  H   1.0    0.06    1.03    1.43   323.57853   136.50378   176.39054
    20  H   1.0    0.05    1.03    1.43   329.22161   138.97768   171.17884
    21  H   1.0    0.12    1.04    1.43   326.07455   141.44047   172.67708
    22  N   5.0   -0.14    3.48    2.07   331.22184   127.49513   168.69220
    23  C   4.0    0.03    4.42    4.41   333.52358   126.19167   167.96236
    24  C   4.0    0.15    3.42    3.08   335.60751   127.11403   169.76398
    25  O   6.0   -0.31    1.24    1.80   335.71229   129.33470   170.42647
    26  C   4.0   -0.05    4.26    4.12   334.11868   126.77208   165.19778
    27  C   4.0   -0.05    4.18    3.96   336.39536   125.30316   164.20082
    28  C   4.0   -0.05    4.17    3.94   336.80803   125.86919   161.39460
    29  C   4.0   -0.04    4.12    3.83   339.03504   124.35865   160.35078
    30  N   5.0   -0.12    4.00    2.87   339.37883   124.89034   157.59637
    31  H   1.0    0.08    1.06    1.44   330.98310   129.25639   167.97407
    32  H   1.0    0.05    1.06    1.44   333.19975   124.16963   168.25262
    33  H   1.0    0.04    1.03    1.43   332.43704   126.31534   164.09480
    34  H   1.0    0.05    1.03    1.43   334.42841   128.80555   165.03054
    35  H   1.0    0.05    1.03    1.43   338.07700   125.81709   165.27829
    36  H   1.0    0.04    1.03    1.43   336.05623   123.28659   164.45654
    37  H   1.0    0.04    1.03    1.43   335.07667   125.39389   160.38059
    38  H   1.0    0.04    1.03    1.43   337.14183   127.89212   161.18040
    39  H   1.0    0.04    1.02    1.43   340.75010   124.86059   161.38316
    40  H   1.0    0.04    1.02    1.43   338.67750   122.34612   160.60379
    41  H   1.0    0.06    1.02    1.43   340.89586   123.87772   156.89961
    42  H   1.0    0.05    1.02    1.43   337.73858   124.42425   156.64554
    43  H   1.0    0.05    1.02    1.43   339.72439   126.79511   157.34385
    44  N   5.0   -0.14    3.48    2.07   337.18897   125.33452   170.60613
    45  C   4.0    0.03    4.49    4.53   339.09627   125.79069   172.51069
    46  C   4.0    0.15    3.41    3.08   341.71048   125.65142   171.27430
    47  O   6.0   -0.29    1.23    1.80   342.14924   124.24311   169.49890
    48  C   4.0   -0.02    4.26    4.11   338.84278   123.82442   174.65044
    49  C   4.0   -0.07    4.12    3.84   340.83775   124.24983   176.68913
    50  C   4.0   -0.07    4.12    3.84   336.20209   123.96231   175.81130
    51  H   1.0    0.08    1.07    1.44   337.10051   123.55538   169.92763
    52  H   1.0    0.06    1.06    1.44   338.78699   127.69585   173.25340
    53  H   1.0    0.05    1.05    1.44   339.12975   121.94914   173.82169
    54  H   1.0    0.04    1.00    1.43   340.52954   122.95076   178.25008
    55  H   1.0    0.05    1.00    1.43   342.73761   123.92639   175.97336
    56  H   1.0    0.04    1.00    1.43   340.72615   126.16801   177.41986
    57  H   1.0    0.05    1.00    1.43   335.99330   122.51185   177.24974
    58  H   1.0    0.05    1.00    1.43   335.92803   125.79242   176.70229
    59  H   1.0    0.06    1.00    1.43   334.72658   123.69593   174.40560
    60  N   5.0   -0.13    3.51    2.08   343.42054   127.22297   172.27645
    61  C   4.0    0.04    4.38    4.34   346.01288   127.38828   171.43152
    62  C   4.0    0.15    3.45    3.09   347.57339   128.55212   173.56060
    63  O   6.0   -0.32    1.31    1.80   346.56004   129.49102   175.42148
    64  C   4.0    0.04    4.16    3.92   346.15468   129.07340   169.05354
    65  O   6.0   -0.25    2.06    1.83   345.51106   131.59261   169.58208
    66  H   1.0    0.11    1.09    1.44   342.95774   128.43232   173.68726
    67  H   1.0    0.06    1.05    1.44   346.72476   125.49552   170.98658
    68  H   1.0    0.05    1.01    1.43   348.07429   129.09257   168.29617
    69  H   1.0    0.06    1.01    1.43   344.86697   128.26902   167.63877
    70  H   1.0    0.15    1.06    1.44   344.02983   131.60270   170.67543
    71  N   5.0   -0.13    3.51    2.08   350.06352   128.61023   173.16583
    72  C   4.0    0.04    4.45    4.46   351.79849   129.37265   175.12585
    73  C   4.0    0.15    3.43    3.09   354.37925   129.90360   173.94570
    74  O   6.0   -0.28    1.23    1.80   355.05466   128.93305   171.96323
    75  C   4.0   -0.03    4.29    4.17   352.05282   127.28415   177.12590
    76  C   4.0    0.25    3.17    3.03   353.03039   124.83825   175.91842
    77  O   6.0   -0.28    1.17    1.80   355.28495   124.23409   176.38319
    78  O   6.0   -0.30    1.26    1.80   351.57831   123.55090   174.59784
    79  H   1.0    0.10    1.08    1.44   350.84469   127.60571   171.74094
    80  H   1.0    0.06    1.06    1.44   351.06247   131.09030   176.01681
    81  H   1.0    0.04    1.03    1.43   353.34458   127.88170   178.60372
    82  H   1.0    0.05    1.03    1.43   350.19201   126.92365   177.94085
    83  N   5.0   -0.14    3.50    2.08   355.76423   131.51414   175.31604
    84  C   4.0    0.04    4.34    4.27   358.21665   132.46809   174.57498
    85  C   4.0    0.08    3.21    3.04   360.06478   132.10601   176.76149
    86  O   6.0   -0.32    1.20    1.80   359.50445   132.72225   178.91929
    87  C   4.0    0.06    4.22    4.04   358.00698   135.33171   173.91637
    88  O   6.0   -0.25    2.12    1.84   356.96668   136.74095   175.90348
    89  C   4.0   -0.06    4.07    3.74   356.49910   135.65708   171.47138
    90  H   1.0    0.11    1.10    1.44   355.01149   132.25942   176.91682
    91  H   1.0    0.05    1.06    1.44   358.81476   131.41569   172.90328
    92  H   1.0    0.05    1.04    1.43   359.92605   136.07235   173.66671
    93  H   1.0    0.14    1.05    1.44   355.39142   135.96737   176.47148
    94  H   1.0    0.05    1.00    1.43   356.38206   137.65064   171.00060
    95  H   1.0    0.05    1.00    1.43   357.42498   134.66614   169.93093
    96  H   1.0    0.06    1.00    1.43   354.60538   134.88919   171.69538
    97  N   5.0   -0.20    3.21    1.96   364.70465   133.19268   181.91105
    98  C   4.0    0.03    4.14    3.88   365.03744   135.44082   183.44672
    99  C   4.0    0.08    3.21    3.04   367.28274   134.98052   185.21642
   100  O   6.0   -0.28    1.13    1.80   367.06617   133.85073   187.22768
   101  C   4.0   -0.06    4.11    3.82   362.64643   136.00287   184.95453
   102  H   1.0    0.09    1.02    1.43   364.25689   131.56965   182.84636
   103  H   1.0    0.04    1.05    1.44   365.46363   136.98696   182.14011
   104  H   1.0    0.04    1.00    1.43   362.85206   137.77815   185.96253
   105  H   1.0    0.05    1.00    1.43   361.04362   136.10660   183.67758
   106  H   1.0    0.06    1.00    1.43   362.33500   134.50064   186.32112
   107  N   5.0   -0.20    3.25    1.97   359.23877   129.18366   186.18381
   108  C   4.0    0.03    4.42    4.41   358.19426   130.33320   183.94970
   109  C   4.0    0.15    3.42    3.08   356.35672   132.44704   184.63752
   110  O   6.0   -0.31    1.28    1.80   355.20430   132.50686   186.64121
   111  C   4.0   -0.02    4.28    4.15   356.79805   128.37212   182.28976
   112  C   4.0   -0.07    4.11    3.83   358.61040   126.33633   181.35254
   113  C   4.0   -0.07    4.13    3.86   354.57587   127.18508   183.69147
   114  H   1.0    0.12    1.05    1.44   358.00524   128.74328   187.58393
   115  H   1.0    0.05    1.07    1.44   359.75642   131.11409   182.84598
   116  H   1.0    0.05    1.06    1.44   356.10451   129.42258   180.64735
   117  H   1.0    0.07    1.01    1.43   357.70315   125.24715   179.86773
   118  H   1.0    0.05    1.00    1.43   360.30203   127.19460   180.57004
   119  H   1.0    0.05    1.00    1.43   359.16251   125.07762   182.88041
   120  H   1.0    0.04    1.00    1.43   353.65946   125.77796   182.50878
   121  H   1.0    0.06    1.00    1.43   355.21893   126.27149   185.41670
   122  H   1.0    0.05    1.01    1.43   353.17025   128.60188   184.18177
   123  N   5.0   -0.14    3.52    2.09   356.11042   134.18818   182.82380
   124  C   4.0    0.03    4.39    4.36   354.21686   136.17143   182.76230
   125  C   4.0    0.15    3.43    3.09   352.22540   135.24552   180.88047
   126  O   6.0   -0.32    1.30    1.80   352.79493   134.59710   178.71430
   127  C   4.0   -0.04    4.24    4.08   355.52802   138.65431   182.04069
   128  C   4.0   -0.05    4.16    3.92   353.86438   141.00181   182.28468
   129  C   4.0   -0.03    4.18    3.95   351.90901   141.33783   180.18972
   130  C   4.0   -0.03    4.12    3.84   353.08531   141.86728   177.61707
   131  N   5.0   -0.11    4.04    2.96   351.08335   142.05347   175.66882
   132  H   1.0    0.11    1.11    1.45   357.11669   133.96421   181.21000
   133  H   1.0    0.06    1.06    1.44   353.36832   136.30825   184.64202
   134  H   1.0    0.04    1.03    1.43   357.11914   138.85647   183.33796
   135  H   1.0    0.06    1.03    1.43   356.29255   138.47698   180.13651
   136  H   1.0    0.06    1.03    1.43   352.85979   140.93564   184.08397
   137  H   1.0    0.04    1.03    1.43   355.09041   142.65740   182.30990
   138  H   1.0    0.07    1.04    1.44   350.72349   139.66150   180.06386
   139  H   1.0    0.05    1.03    1.43   350.68952   142.91160   180.72161
   140  H   1.0    0.05    1.02    1.43   354.11688   143.64981   177.65895
   141  H   1.0    0.05    1.02    1.43   354.38259   140.35169   177.09541
   142  H   1.0    0.07    1.02    1.43   351.86714   142.06199   173.90288
   143  H   1.0    0.09    1.03    1.43   349.82470   140.57389   175.79902
   144  H   1.0    0.10    1.12    1.45   350.01777   143.78972   175.82006
   145  N   5.0   -0.13    3.47    2.06   349.89724   135.00718   181.80232
   146  C   4.0    0.04    4.45    4.47   347.84949   133.88454   180.37198
   147  C   4.0    0.16    3.41    3.08   346.77497   135.77718   178.45214
   148  O   6.0   -0.31    1.30    1.80   347.03529   138.05931   178.73921
   149  C   4.0   -0.04    4.34    4.27   345.71800   133.08781   182.15749
   150  C   4.0   -0.04    4.05    3.72   346.54592   131.13611   184.10929
   151  S   6.0   -0.05    2.55    3.10   347.85764   128.24520   182.73542
   152  C   4.0   -0.06    3.89    3.44   345.08079   127.07417   181.10365
   153  H   1.0    0.10    1.08    1.44   349.52086   135.64907   183.56744
   154  H   1.0    0.06    1.07    1.44   348.57964   132.22530   179.36880
   155  H   1.0    0.05    1.03    1.43   345.05304   134.76768   183.15711
   156  H   1.0    0.05    1.03    1.43   344.16814   132.33530   181.02474
   157  H   1.0    0.06    1.07    1.44   348.03924   131.87538   185.31792
   158  H   1.0    0.04    1.07    1.44   344.94661   130.56533   185.27338
   159  H   1.0    0.05    1.05    1.44   345.39036   125.07204   180.78051
   160  H   1.0    0.05    1.04    1.43   343.43012   127.35030   182.28825
   161  H   1.0    0.06    1.04    1.43   344.88576   128.03786   179.30173
   162  N   5.0   -0.13    3.46    2.05   345.45170   134.75745   176.56501
   163  C   4.0    0.05    4.39    4.36   343.98495   136.25802   174.80937
   164  C   4.0    0.14    3.43    3.09   341.69246   134.70731   173.95903
   165  O   6.0   -0.31    1.29    1.80   341.88820   132.44157   173.49816
   166  C   4.0    0.04    4.15    3.90   345.48737   136.98875   172.42839
   167  O   6.0   -0.24    2.06    1.83   347.38938   138.74846   173.05466
   168  H   1.0    0.11    1.10    1.44   345.51070   132.86541   176.22386
   169  H   1.0    0.07    1.06    1.44   343.38464   137.98472   175.77845
   170  H   1.0    0.06    1.02    1.43   346.31641   135.28081   171.59752
   171  H   1.0    0.05    1.01    1.43   344.15388   137.82116   171.07520
   172  H   1.0    0.12    1.03    1.43   348.14170   139.31944   171.49401
   173  N   5.0   -0.13    3.51    2.08   339.57021   136.01652   173.65803
   174  C   4.0    0.04    4.33    4.26   337.20038   134.84501   172.95512
   175  C   4.0    0.08    3.21    3.04   336.15714   136.19064   170.61788
   176  O   6.0   -0.32    1.19    1.80   336.13207   138.50601   170.49136
   177  C   4.0   -0.03    4.33    4.25   335.31137   135.08532   175.16038
   178  C   4.0   -0.01    3.58    3.16   336.41546   133.95955   177.51837
   179  C   4.0   -0.03    3.47    3.10   337.73511   135.45337   179.22453
   180  C   4.0   -0.04    3.47    3.10   336.20611   131.38485   177.99449
   181  C   4.0   -0.04    3.43    3.09   338.78723   134.40885   181.37563
   182  C   4.0   -0.04    3.43    3.09   337.26653   130.31652   180.12657
   183  C   4.0    0.07    3.45    3.09   338.56146   131.83568   181.84038
   184  O   6.0   -0.26    2.12    1.84   339.57709   130.73702   183.93553
   185  H   1.0    0.11    1.10    1.44   339.49834   137.86606   174.16803
   186  H   1.0    0.07    1.06    1.44   337.58333   132.85842   172.53926
   187  H   1.0    0.05    1.03    1.43   334.91058   137.08694   175.44330
   188  H   1.0    0.04    1.03    1.43   333.55988   134.13184   174.65139
   189  H   1.0    0.06    1.03    1.43   337.95332   137.45349   178.88080
   190  H   1.0    0.05    1.03    1.43   335.17982   130.21764   176.67252
   191  H   1.0    0.05    1.03    1.43   339.77667   135.60962   182.69845
   192  H   1.0    0.06    1.03    1.43   337.09019   128.32500   180.52545
   193  H   1.0    0.11    1.04    1.43   340.22162   132.02820   185.05097
   194  N   5.0   -0.19    3.25    1.97   335.86709   144.45628   165.44831
   195  C   4.0    0.03    4.38    4.35   337.70429   143.19426   167.02804
   196  C   4.0    0.15    3.45    3.09   338.08965   144.75938   169.42472
   197  O   6.0   -0.29    1.28    1.80   338.82923   146.95735   169.29050
   198  C   4.0    0.06    4.26    4.11   340.27372   143.08769   165.61961
   199  O   6.0   -0.24    2.14    1.85   340.96864   145.51733   164.79691
   200  C   4.0   -0.07    4.08    3.76   340.13271   141.31207   163.35994
   201  H   1.0    0.10    1.03    1.43   336.53133   146.03966   164.60718
   202  H   1.0    0.06    1.06    1.44   337.02503   141.30040   167.47710
   203  H   1.0    0.05    1.03    1.43   341.69230   142.36434   166.97339
   204  H   1.0    0.15    1.07    1.44   340.71913   146.67601   166.21190
   205  H   1.0    0.05    1.00    1.43   341.93685   141.31502   162.38417
   206  H   1.0    0.04    1.00    1.43   339.69369   139.41810   164.01802
   207  H   1.0    0.05    1.00    1.43   338.67962   141.93919   162.04646
   208  N   5.0   -0.14    3.48    2.06   337.59311   143.58061   171.59057
   209  C   4.0    0.04    4.51    4.55   338.03196   144.77224   174.01065
   210  C   4.0    0.15    3.42    3.08   339.98382   143.27413   175.51789
   211  O   6.0   -0.31    1.29    1.80   339.88691   140.96306   175.76069
   212  C   4.0   -0.02    4.32    4.23   335.55802   145.09924   175.53823
   213  C   4.0   -0.04    4.20    3.99   334.20023   142.56592   175.89422
   214  C   4.0   -0.07    4.11    3.82   333.88186   147.04270   174.21740
   215  C   4.0   -0.07    4.01    3.64   332.04163   142.68631   177.79985
   216  H   1.0    0.11    1.10    1.44   337.06526   141.73479   171.57612
   217  H   1.0    0.06    1.07    1.44   338.83195   146.63941   173.60671
   218  H   1.0    0.05    1.05    1.44   336.11768   145.81675   177.39893
   219  H   1.0    0.05    1.03    1.43   333.48157   141.90736   174.07412
   220  H   1.0    0.06    1.04    1.43   335.58472   141.19177   176.56015
   221  H   1.0    0.04    1.00    1.43   332.25186   147.46496   175.38793
   222  H   1.0    0.05    1.00    1.43   334.94912   148.76743   173.88804
   223  H   1.0    0.05    1.00    1.43   333.25131   146.28910   172.41020
   224  H   1.0    0.04    1.00    1.43   331.23559   140.81213   178.04576
   225  H   1.0    0.05    1.00    1.43   332.73845   143.35238   179.61422
   226  H   1.0    0.04    1.00    1.43   330.54890   143.93767   177.15794
   227  N   5.0   -0.13    3.52    2.09   341.77617   144.67610   176.57693
   228  C   4.0    0.04    4.43    4.43   343.70748   143.63725   178.20590
   229  C   4.0    0.16    3.43    3.09   342.54293   142.78648   180.71758
   230  O   6.0   -0.29    1.23    1.80   340.64266   143.76251   181.59634
   231  C   4.0   -0.03    4.29    4.18   345.64109   145.69927   178.82457
   232  C   4.0    0.25    3.15    3.03   346.49777   147.01356   176.33647
   233  O   6.0   -0.31    1.32    1.80   348.56367   146.33784   175.40594
   234  O   6.0   -0.28    1.21    1.80   345.02948   148.60187   175.43625
   235  H   1.0    0.10    1.10    1.44   341.95991   146.54509   176.17801
   236  H   1.0    0.06    1.05    1.44   344.62210   142.02808   177.27217
   237  H   1.0    0.06    1.03    1.43   344.73963   147.12532   180.01502
   238  H   1.0    0.05    1.02    1.43   347.24020   144.88150   179.82597
   239  N   5.0   -0.13    3.40    2.02   343.84935   140.94951   181.86661
   240  C   4.0    0.01    4.25    4.10   343.43031   140.24736   184.45999
   241  C   4.0    0.16    3.32    3.06   345.78734   140.79656   186.05476
   242  O   6.0   -0.29    1.23    1.80   347.58499   141.96978   185.23728
   243  H   1.0    0.11    1.10    1.44   345.40619   140.22625   181.00597
   244  H   1.0    0.06    1.03    1.43   341.83941   141.37027   185.15821
   245  H   1.0    0.04    1.02    1.43   342.95722   138.23696   184.59033
   246  N   5.0   -0.14    3.36    2.01   345.61482   139.93220   188.44264
   247  C   4.0    0.01    4.25    4.09   347.75060   139.95261   190.13870
   248  C   4.0    0.15    3.32    3.06   349.49582   137.68767   189.64949
   249  O   6.0   -0.30    1.25    1.80   349.54487   136.62820   187.59338
   250  H   1.0    0.08    1.07    1.44   344.15483   138.80391   188.91517
   251  H   1.0    0.06    1.03    1.43   348.84515   141.66343   189.74386
   252  H   1.0    0.04    1.02    1.43   347.08353   139.98092   192.08508
   253  N   5.0   -0.14    3.46    2.05   351.00912   137.09480   191.58914
   254  C   4.0    0.04    4.45    4.45   352.73099   134.98543   191.45559
   255  C   4.0    0.15    3.42    3.09   351.36993   132.50714   192.03000
   256  O   6.0   -0.29    1.22    1.80   349.56806   132.35033   193.48295
   257  C   4.0   -0.04    4.37    4.32   354.87350   135.27788   193.37973
   258  C   4.0   -0.02    4.18    3.96   356.40825   137.71782   193.07478
   259  C   4.0   -0.07    4.11    3.81   358.36139   137.86256   195.19583
   260  C   4.0   -0.07    4.10    3.81   357.71615   137.85020   190.50816
   261  H   1.0    0.08    1.07    1.44   350.63995   137.76114   193.33695
   262  H   1.0    0.07    1.07    1.44   353.47166   134.88542   189.53171
   263  H   1.0    0.05    1.03    1.43   354.04791   135.22570   195.27475
   264  H   1.0    0.05    1.03    1.43   356.14144   133.66065   193.18941
   265  H   1.0    0.04    1.05    1.44   355.12918   139.33251   193.25452
   266  H   1.0    0.04    1.00    1.43   359.38726   139.64190   195.13330
   267  H   1.0    0.04    1.00    1.43   357.45750   137.69236   197.03544
   268  H   1.0    0.05    1.00    1.43   359.71872   136.32955   195.01278
   269  H   1.0    0.04    1.00    1.43   358.89734   139.52688   190.41465
   270  H   1.0    0.05    1.00    1.43   358.90927   136.20032   190.23555
   271  H   1.0    0.05    1.00    1.43   356.34417   137.92728   188.98461
   272  N   5.0   -0.13    3.50    2.08   352.37854   130.52581   190.84337
   273  C   4.0    0.04    4.25    4.09   351.69031   127.95622   191.38839
   274  C   4.0    0.07    3.23    3.04   354.09583   126.37940   191.41633
   275  O   6.0   -0.30    1.17    1.80   355.91698   126.89961   190.08046
   276  C   4.0   -0.07    4.10    3.80   349.87569   126.85124   189.42018
   277  H   1.0    0.11    1.10    1.44   353.77893   130.77526   189.56000
   278  H   1.0    0.05    1.06    1.44   350.77543   127.90903   193.23975
   279  H   1.0    0.04    1.00    1.43   349.44964   124.90280   189.91013
   280  H   1.0    0.05    1.00    1.43   348.13067   127.93332   189.41766
   281  H   1.0    0.05    1.00    1.43   350.70342   126.91675   187.54166
   282  N   5.0   -0.19    3.24    1.97   346.39021   116.33625   187.35863
   283  C   4.0    0.03    4.22    4.04   347.04785   118.78367   188.38150
   284  C   4.0    0.07    3.22    3.04   345.85283   119.09312   190.99795
   285  O   6.0   -0.30    1.16    1.80   343.68725   118.37496   191.40498
   286  C   4.0   -0.04    4.33    4.26   345.97210   120.92433   186.70751
   287  C   4.0   -0.02    3.57    3.15   346.69820   120.63697   183.97896
   288  C   4.0   -0.05    3.47    3.10   345.14863   119.30126   182.32880
   289  C   4.0   -0.05    3.47    3.10   348.90515   121.69805   183.04217
   290  C   4.0   -0.04    3.44    3.09   345.74502   119.07507   179.80266
   291  C   4.0   -0.04    3.43    3.09   349.51375   121.49829   180.50840
   292  C   4.0    0.07    3.44    3.09   347.93024   120.20046   178.85513
   293  O   6.0   -0.23    2.11    1.84   348.41709   119.96634   176.34604
   294  H   1.0    0.10    1.03    1.43   344.54111   115.86797   187.44758
   295  H   1.0    0.04    1.05    1.44   349.10646   118.88800   188.47483
   296  H   1.0    0.05    1.03    1.43   343.91489   120.86645   186.87177
   297  H   1.0    0.03    1.03    1.43   346.66127   122.72356   187.43744
   298  H   1.0    0.05    1.03    1.43   343.42835   118.43567   183.00975
   299  H   1.0    0.05    1.03    1.43   350.14903   122.71889   184.29621
   300  H   1.0    0.06    1.03    1.43   344.56111   118.00778   178.53285
   301  H   1.0    0.06    1.03    1.43   351.21886   122.36206   179.79397
   302  H   1.0    0.16    1.09    1.44   349.66607   121.22295   175.76757
   303  N   5.0   -0.18    3.23    1.96   338.31607   119.85675   192.11656
   304  C   4.0    0.03    4.22    4.03   336.69986   121.42049   190.54990
   305  C   4.0    0.09    3.20    3.04   335.02023   119.71494   188.90730
   306  O   6.0   -0.27    1.13    1.80   335.74032   117.67085   188.11690
   307  C   4.0   -0.04    4.33    4.26   338.23816   123.18883   188.85485
   308  C   4.0   -0.02    4.17    3.95   339.71019   125.20581   190.32854
   309  C   4.0   -0.08    4.10    3.81   341.48997   126.61565   188.54488
   310  C   4.0   -0.07    4.10    3.81   337.94166   127.08730   191.62048
   311  H   1.0    0.12    1.04    1.43   339.88472   119.08247   191.33600
   312  H   1.0    0.04    1.05    1.44   335.47172   122.50659   191.80757
   313  H   1.0    0.05    1.03    1.43   339.56420   122.04125   187.76758
   314  H   1.0    0.05    1.03    1.43   336.95539   124.10454   187.52241
   315  H   1.0    0.04    1.05    1.44   340.83513   124.26821   191.79532
   316  H   1.0    0.04    1.00    1.43   342.52169   128.05827   189.58412
   317  H   1.0    0.04    1.00    1.43   342.84662   125.32969   187.69766
   318  H   1.0    0.05    1.00    1.43   340.41257   127.52262   187.04842
   319  H   1.0    0.04    1.00    1.43   339.02232   128.54013   192.59643
   320  H   1.0    0.04    1.00    1.43   336.71757   128.01882   190.25438
   321  H   1.0    0.04    1.00    1.43   336.74379   126.17693   193.02177
   322  N   5.0   -0.21    3.10    1.94   326.31883   125.26910   181.92296
   323  C   4.0    0.01    4.05    3.72   328.84225   124.28174   181.65359
   324  C   4.0    0.07    3.10    3.02   330.82028   125.33541   183.47818
   325  O   6.0   -0.29    1.12    1.80   332.86674   124.30903   183.70876
   326  H   1.0    0.09    1.02    1.43   325.43725   125.01172   183.60112
   327  H   1.0    0.06    1.02    1.43   328.79211   122.22693   181.85130
   328  H   1.0    0.05    1.03    1.43   329.48524   124.74229   179.74049
   329  H   1.0    0.09    1.07    1.44   324.48837   128.13869   172.60948
   330  H   1.0    0.05    1.04    1.44   361.76867   131.35316   176.44364
   331  H   1.0    0.11    1.08    1.44   363.44540   133.44765   180.79667
   332  H   1.0    0.06    1.05    1.44   369.00121   135.61028   184.74596
   333  H   1.0    0.10    1.08    1.44   360.00261   127.72256   185.76635
   334  H   1.0    0.05    1.04    1.43   335.48437   135.18192   169.16842
   335  H   1.0    0.09    1.07    1.44   335.36160   143.40265   164.21263
   336  H   1.0    0.05    1.05    1.44   354.22327   124.87026   192.54651
   337  H   1.0    0.10    1.09    1.44   346.81663   116.27536   185.71333
   338  H   1.0    0.05    1.04    1.43   346.83981   119.88868   192.39938
   339  H   1.0    0.09    1.07    1.44   338.89526   120.77320   193.42699
   340  H   1.0    0.06    1.05    1.44   333.27168   120.26782   188.45126
   341  H   1.0    0.09    1.08    1.44   326.33951   126.95286   181.68406
   342  H   1.0    0.05    1.05    1.44   330.43863   126.88137   184.49574

  Z AO/shell   Hii/eV     exponent
  1     Wed Apr 25 08:07:45 CEST 2018   EN: 2.200 GM2: 0.406  GM3: 0.0800  RAES: 1.40
     1s    -10.707211    1.230000
  6     Wed Apr 25 08:07:45 CEST 2018   EN: 2.550 GM2: 0.538  GM3: 0.1500  RAES: 3.00
     2s    -13.970922    2.096432
     2p    -10.063292    1.800000
  7     Wed Apr 25 08:07:45 CEST 2018   EN: 3.040 GM2: 0.461  GM3:-0.0640  RAES: 1.90
     2s    -16.686243    2.339881
     2p    -12.523956    2.014332
  8     Wed Apr 25 08:07:45 CEST 2018   EN: 3.440 GM2: 0.452  GM3:-0.0517  RAES: 1.80
     2s    -20.229985    2.439742
     2p    -15.503117    2.137023
 16     Tue Apr 24 11:44:34 CEST 2018   EN: 2.580 GM2: 0.340  GM3:-0.0502  RAES: 3.10
     3s    -20.029654    1.981333
     3p    -11.377694    2.025643
     3d     -0.420282    1.702555
 no old-style atom pair restraining (fixing) potential

molecular fragmentation (1/2 indicates fragments):
111111111111111111111111111111111111111111111111111111111111111111111111
111111111111111111111111222222222222222222222222222222222222222222222222
222222222222222222222222222222222222222222222222222222222222222222222222
222222222222222222222222222222222222222222222222222222222222222222222222
222222222222222222222222222222222222222211222222222222
# atoms in fragment 1/2:    98   244
 fragment masses (1/2) :      695.77     1653.00
CMA distance (Bohr)    :  11.491
constraining FC (au)   :  0.0500
           ------------------------------------------------- 
          |        Self-Consistent Charge Iterations        |
           ------------------------------------------------- 

 Ncao       : 840
 Nao        : 839
 Nshell     : 507
 Nel        : 926
 T(el)      :   500.0
 intcut     :    35.0
 scfconv/Eh :  0.100E-06
   qconv/e  :  0.100E-04
 intneglect :  0.100E-08
 broydamp   :      0.400
 iter      E             dE          RMSdq      gap      omega  full diag
   1   -530.6015665 -0.530602E+03  0.463E+00    3.25       0.0  T
   2   -531.8468609 -0.124529E+01  0.219E+00    1.63       1.0  T
   3   -531.9197421 -0.728811E-01  0.122E+00    1.67       1.0  T
   4   -532.0013190 -0.815770E-01  0.258E-01    1.06       1.0  T
   5   -532.0057194 -0.440041E-02  0.124E-01    1.26       1.0  T
   6   -532.0066993 -0.979883E-03  0.550E-02    1.26       1.0  T
   7   -532.0069446 -0.245315E-03  0.239E-02    1.25       1.0  T
   8   -532.0069757 -0.310233E-04  0.119E-02    1.24       1.0  T
   9   -532.0069851 -0.944473E-05  0.568E-03    1.24       1.0  T
  10   -532.0069869 -0.176810E-05  0.255E-03    1.24       2.1  T
  11   -532.0069872 -0.306582E-06  0.117E-03    1.24       4.6  T
  12   -532.0069872 -0.515427E-07  0.514E-04    1.25      10.5  T
  13   -532.0069873 -0.170720E-07  0.251E-04    1.24      21.6  T
  14   -532.0069873 -0.344664E-08  0.105E-04    1.24      51.6  T
  15   -532.0069873 -0.785690E-09  0.464E-05    1.24     116.5  T
  16   -532.0069873 -0.151317E-09  0.212E-05    1.24     254.7  T
speedup 15.58
cpu  time for SCC   29.24 s
wall time for SCC    1.88 s

   *** convergence criteria satisfied after 16 iterations ***

          eigenvalues
 #    :         451        452        453        454        455        456        457        458
 occ. :        2.000      2.000      2.000      2.000      2.000      2.000      2.000      2.000
 eps  :       -10.627    -10.499    -10.497    -10.292    -10.242    -10.193    -10.068    -10.067
 #    :         459        460        461        462        463        464        465        466
 occ. :        2.000      2.000      2.000      2.000      2.000      0.000      0.000      0.000
 eps  :        -9.996     -9.832     -9.787     -9.752     -9.725     -8.480     -8.451     -8.144
 #    :         467        468        469        470        471        472        473        474
 occ. :        0.000      0.000      0.000      0.000      0.000      0.000      0.000      0.000
 eps  :        -7.879     -7.708     -7.697     -7.504     -6.707     -6.637     -6.599     -6.473


   #   Z            q   n(s)   n(p)   n(d)      C6AA      α(0)
   1   7 N     -0.379  1.317  4.062  0.000    29.799     8.107
   2   6 C      0.033  1.061  2.906  0.000    20.034     6.375
   3   6 C      0.271  1.047  2.682  0.000    22.420     7.754
   4   8 O     -0.482  1.750  4.731  0.000    23.384     6.483
   5   6 C     -0.069  1.056  3.013  0.000    21.810     6.647
   6   6 C     -0.004  1.078  2.926  0.000    28.131     8.700
   7   6 C     -0.041  1.082  2.959  0.000    29.017     8.834
   8   6 C     -0.046  1.082  2.965  0.000    29.146     8.854
   9   6 C     -0.060  1.076  2.983  0.000    29.487     8.905
  10   6 C     -0.075  1.079  2.996  0.000    29.873     8.963
  11   6 C      0.145  1.045  2.810  0.000    24.843     8.169
  12   8 O     -0.435  1.722  4.713  0.000    21.536     6.265
  13   1 H      0.157  0.843  0.000  0.000     1.352     1.822
  14   1 H      0.039  0.961  0.000  0.000     2.459     2.452
  15   1 H      0.046  0.954  0.000  0.000     2.370     2.407
  16   1 H      0.041  0.959  0.000  0.000     2.438     2.442
  17   1 H      0.042  0.958  0.000  0.000     2.425     2.435
  18   1 H      0.038  0.962  0.000  0.000     2.481     2.463
  19   1 H      0.047  0.953  0.000  0.000     2.354     2.399
  20   1 H      0.043  0.957  0.000  0.000     2.412     2.429
  21   1 H      0.347  0.653  0.000  0.000     0.596     1.213
  22   7 N     -0.180  1.250  3.930  0.000    24.902     7.411
  23   6 C      0.015  1.065  2.921  0.000    20.334     6.421
  24   6 C      0.270  1.046  2.684  0.000    22.444     7.758
  25   8 O     -0.490  1.742  4.747  0.000    23.559     6.508
  26   6 C     -0.082  1.057  3.025  0.000    22.068     6.687
  27   6 C     -0.074  1.049  3.025  0.000    21.918     6.665
  28   6 C     -0.095  1.055  3.040  0.000    22.311     6.725
  29   6 C     -0.051  1.060  2.991  0.000    21.582     6.631
  30   7 N     -0.149  1.233  3.916  0.000    24.212     7.308
  31   1 H      0.206  0.794  0.000  0.000     1.077     1.625
  32   1 H      0.074  0.926  0.000  0.000     2.044     2.236
  33   1 H      0.079  0.921  0.000  0.000     1.987     2.204
  34   1 H      0.063  0.937  0.000  0.000     2.160     2.299
  35   1 H      0.045  0.955  0.000  0.000     2.382     2.413
  36   1 H      0.059  0.941  0.000  0.000     2.212     2.326
  37   1 H      0.086  0.914  0.000  0.000     1.918     2.166
  38   1 H      0.079  0.921  0.000  0.000     1.987     2.205
  39   1 H      0.112  0.888  0.000  0.000     1.677     2.025
  40   1 H      0.118  0.882  0.000  0.000     1.626     1.994
  41   1 H      0.303  0.697  0.000  0.000     0.703     1.314
  42   1 H      0.303  0.697  0.000  0.000     0.703     1.314
  43   1 H      0.299  0.701  0.000  0.000     0.717     1.327
  44   7 N     -0.161  1.238  3.923  0.000    24.483     7.349
  45   6 C      0.013  1.066  2.921  0.000    20.362     6.425
  46   6 C      0.273  1.042  2.685  0.000    22.394     7.749
  47   8 O     -0.475  1.738  4.737  0.000    23.241     6.464
  48   6 C     -0.015  1.062  2.952  0.000    20.804     6.487
  49   6 C     -0.112  1.038  3.075  0.000    22.702     6.794
  50   6 C     -0.117  1.039  3.078  0.000    22.787     6.806
  51   1 H      0.209  0.791  0.000  0.000     1.059     1.612
  52   1 H      0.076  0.924  0.000  0.000     2.020     2.223
  53   1 H      0.046  0.954  0.000  0.000     2.373     2.409
  54   1 H      0.054  0.946  0.000  0.000     2.272     2.357
  55   1 H      0.024  0.976  0.000  0.000     2.676     2.558
  56   1 H      0.043  0.957  0.000  0.000     2.411     2.428
  57   1 H      0.052  0.948  0.000  0.000     2.297     2.370
  58   1 H      0.044  0.956  0.000  0.000     2.392     2.418
  59   1 H      0.054  0.946  0.000  0.000     2.274     2.358
  60   7 N     -0.176  1.237  3.939  0.000    24.808     7.397
  61   6 C      0.014  1.060  2.927  0.000    20.356     6.425
  62   6 C      0.282  1.040  2.678  0.000    22.230     7.721
  63   8 O     -0.474  1.728  4.746  0.000    23.214     6.460
  64   6 C      0.070  1.041  2.890  0.000    19.626     6.346
  65   8 O     -0.471  1.711  4.761  0.000    22.285     6.373
  66   1 H      0.220  0.780  0.000  0.000     1.008     1.572
  67   1 H      0.067  0.933  0.000  0.000     2.124     2.279
  68   1 H      0.058  0.942  0.000  0.000     2.218     2.329
  69   1 H      0.062  0.938  0.000  0.000     2.171     2.304
  70   1 H      0.327  0.673  0.000  0.000     0.644     1.261
  71   7 N     -0.163  1.240  3.923  0.000    24.530     7.356
  72   6 C      0.038  1.056  2.906  0.000    19.937     6.357
  73   6 C      0.277  1.039  2.685  0.000    22.320     7.736
  74   8 O     -0.489  1.749  4.740  0.000    23.538     6.505
  75   6 C     -0.086  1.062  3.024  0.000    22.127     6.696
  76   6 C      0.375  1.021  2.604  0.000    20.639     7.435
  77   8 O     -0.644  1.781  4.863  0.000    27.217     6.995
  78   8 O     -0.629  1.760  4.869  0.000    26.844     6.947
  79   1 H      0.200  0.800  0.000  0.000     1.108     1.649
  80   1 H      0.069  0.931  0.000  0.000     2.096     2.264
  81   1 H      0.038  0.962  0.000  0.000     2.477     2.461
  82   1 H      0.040  0.960  0.000  0.000     2.453     2.449
  83   7 N     -0.176  1.239  3.937  0.000    24.813     7.398
  84   6 C      0.011  1.064  2.925  0.000    20.404     6.433
  85   6 C      0.198  1.088  2.714  0.000    23.781     7.987
  86   8 O     -0.345  1.738  4.608  0.000    20.617     6.088
  87   6 C      0.111  1.049  2.839  0.000    18.856     6.200
  88   8 O     -0.455  1.705  4.750  0.000    21.948     6.324
  89   6 C     -0.140  1.046  3.095  0.000    23.263     6.878
  90   1 H      0.223  0.777  0.000  0.000     0.994     1.562
  91   1 H      0.087  0.913  0.000  0.000     1.906     2.159
  92   1 H      0.068  0.932  0.000  0.000     2.112     2.273
  93   1 H      0.329  0.671  0.000  0.000     0.641     1.257
  94   1 H      0.086  0.914  0.000  0.000     1.920     2.167
  95   1 H      0.058  0.942  0.000  0.000     2.224     2.332
  96   1 H      0.051  0.949  0.000  0.000     2.312     2.378
  97   7 N     -0.378  1.314  4.064  0.000    29.768     8.103
  98   6 C      0.039  1.055  2.906  0.000    19.946     6.362
  99   6 C      0.204  1.090  2.706  0.000    23.673     7.968
 100   8 O     -0.368  1.760  4.608  0.000    21.045     6.151
 101   6 C     -0.122  1.040  3.081  0.000    22.891     6.822
 102   1 H      0.149  0.851  0.000  0.000     1.406     1.857
 103   1 H      0.062  0.938  0.000  0.000     2.173     2.305
 104   1 H      0.049  0.951  0.000  0.000     2.337     2.391
 105   1 H      0.052  0.948  0.000  0.000     2.295     2.369
 106   1 H      0.054  0.946  0.000  0.000     2.266     2.354
 107   7 N     -0.392  1.312  4.081  0.000    30.163     8.157
 108   6 C      0.027  1.062  2.912  0.000    20.137     6.391
 109   6 C      0.271  1.047  2.682  0.000    22.414     7.753
 110   8 O     -0.480  1.731  4.749  0.000    23.341     6.477
 111   6 C     -0.005  1.061  2.944  0.000    20.628     6.460
 112   6 C     -0.106  1.037  3.070  0.000    22.584     6.776
 113   6 C     -0.097  1.033  3.064  0.000    22.410     6.750
 114   1 H      0.176  0.824  0.000  0.000     1.236     1.741
 115   1 H      0.051  0.949  0.000  0.000     2.311     2.377
 116   1 H     -0.000  1.000  0.000  0.000     3.066     2.738
 117   1 H      0.042  0.958  0.000  0.000     2.427     2.436
 118   1 H      0.031  0.969  0.000  0.000     2.579     2.511
 119   1 H      0.037  0.963  0.000  0.000     2.488     2.466
 120   1 H      0.024  0.976  0.000  0.000     2.680     2.560
 121   1 H      0.048  0.952  0.000  0.000     2.345     2.395
 122   1 H      0.034  0.966  0.000  0.000     2.526     2.485
 123   7 N     -0.192  1.252  3.940  0.000    25.174     7.452
 124   6 C      0.018  1.064  2.917  0.000    20.273     6.412
 125   6 C      0.272  1.048  2.681  0.000    22.412     7.753
 126   8 O     -0.505  1.734  4.771  0.000    23.905     6.555
 127   6 C     -0.087  1.057  3.029  0.000    22.147     6.700
 128   6 C     -0.074  1.050  3.025  0.000    21.919     6.666
 129   6 C     -0.084  1.049  3.034  0.000    22.095     6.692
 130   6 C     -0.040  1.055  2.986  0.000    21.391     6.602
 131   7 N     -0.173  1.244  3.929  0.000    24.737     7.387
 132   1 H      0.221  0.779  0.000  0.000     1.005     1.570
 133   1 H      0.074  0.926  0.000  0.000     2.040     2.234
 134   1 H      0.069  0.931  0.000  0.000     2.096     2.264
 135   1 H      0.081  0.919  0.000  0.000     1.970     2.195
 136   1 H      0.057  0.943  0.000  0.000     2.234     2.337
 137   1 H      0.069  0.931  0.000  0.000     2.093     2.262
 138   1 H      0.062  0.938  0.000  0.000     2.179     2.308
 139   1 H      0.059  0.941  0.000  0.000     2.208     2.324
 140   1 H      0.107  0.893  0.000  0.000     1.724     2.053
 141   1 H      0.108  0.892  0.000  0.000     1.712     2.046
 142   1 H      0.272  0.728  0.000  0.000     0.803     1.404
 143   1 H      0.264  0.736  0.000  0.000     0.832     1.429
 144   1 H      0.296  0.704  0.000  0.000     0.727     1.336
 145   7 N     -0.155  1.241  3.914  0.000    24.352     7.329
 146   6 C      0.024  1.057  2.918  0.000    20.172     6.395
 147   6 C      0.271  1.043  2.686  0.000    22.427     7.755
 148   8 O     -0.472  1.729  4.743  0.000    23.163     6.453
 149   6 C     -0.069  1.053  3.015  0.000    21.791     6.643
 150   6 C     -0.021  1.066  2.955  0.000    20.962     6.520
 151  16 S     -0.225  1.923  4.248  0.054   150.680    20.660
 152   6 C     -0.056  1.051  3.005  0.000    21.647     6.637
 153   1 H      0.223  0.777  0.000  0.000     0.997     1.564
 154   1 H      0.073  0.927  0.000  0.000     2.052     2.240
 155   1 H      0.058  0.942  0.000  0.000     2.223     2.332
 156   1 H      0.064  0.936  0.000  0.000     2.151     2.293
 157   1 H      0.070  0.930  0.000  0.000     2.087     2.259
 158   1 H      0.072  0.928  0.000  0.000     2.058     2.244
 159   1 H      0.041  0.959  0.000  0.000     2.437     2.441
 160   1 H      0.070  0.930  0.000  0.000     2.083     2.257
 161   1 H      0.053  0.947  0.000  0.000     2.288     2.365
 162   7 N     -0.170  1.242  3.927  0.000    24.674     7.377
 163   6 C      0.013  1.061  2.926  0.000    20.365     6.426
 164   6 C      0.262  1.046  2.693  0.000    22.591     7.784
 165   8 O     -0.486  1.735  4.751  0.000    23.480     6.497
 166   6 C      0.069  1.039  2.892  0.000    19.640     6.348
 167   8 O     -0.477  1.715  4.761  0.000    22.394     6.388
 168   1 H      0.223  0.777  0.000  0.000     0.996     1.563
 169   1 H      0.085  0.915  0.000  0.000     1.932     2.174
 170   1 H      0.063  0.937  0.000  0.000     2.169     2.303
 171   1 H      0.034  0.966  0.000  0.000     2.525     2.485
 172   1 H      0.351  0.649  0.000  0.000     0.586     1.202
 173   7 N     -0.163  1.246  3.917  0.000    24.517     7.354
 174   6 C      0.024  1.061  2.916  0.000    20.183     6.397
 175   6 C      0.200  1.091  2.710  0.000    23.750     7.981
 176   8 O     -0.352  1.745  4.607  0.000    20.744     6.106
 177   6 C     -0.073  1.055  3.018  0.000    21.888     6.659
 178   6 C      0.004  1.075  2.921  0.000    27.940     8.670
 179   6 C     -0.041  1.085  2.957  0.000    29.027     8.835
 180   6 C     -0.039  1.082  2.957  0.000    28.969     8.827
 181   6 C     -0.076  1.077  2.999  0.000    29.910     8.968
 182   6 C     -0.059  1.073  2.986  0.000    29.471     8.902
 183   6 C      0.140  1.046  2.814  0.000    24.938     8.184
 184   8 O     -0.421  1.713  4.707  0.000    21.252     6.223
 185   1 H      0.234  0.766  0.000  0.000     0.946     1.524
 186   1 H      0.108  0.892  0.000  0.000     1.716     2.048
 187   1 H      0.070  0.930  0.000  0.000     2.091     2.261
 188   1 H      0.076  0.924  0.000  0.000     2.023     2.224
 189   1 H      0.046  0.954  0.000  0.000     2.374     2.409
 190   1 H      0.047  0.953  0.000  0.000     2.356     2.400
 191   1 H      0.037  0.963  0.000  0.000     2.495     2.470
 192   1 H      0.051  0.949  0.000  0.000     2.312     2.378
 193   1 H      0.334  0.666  0.000  0.000     0.628     1.245
 194   7 N     -0.388  1.320  4.068  0.000    30.040     8.140
 195   6 C      0.009  1.066  2.925  0.000    20.438     6.439
 196   6 C      0.271  1.046  2.683  0.000    22.418     7.754
 197   8 O     -0.511  1.755  4.757  0.000    24.040     6.574
 198   6 C      0.125  1.043  2.832  0.000    18.642     6.164
 199   8 O     -0.486  1.719  4.767  0.000    22.594     6.417
 200   6 C     -0.127  1.043  3.084  0.000    22.988     6.837
 201   1 H      0.166  0.834  0.000  0.000     1.297     1.784
 202   1 H      0.057  0.943  0.000  0.000     2.235     2.338
 203   1 H     -0.016  1.016  0.000  0.000     3.361     2.867
 204   1 H      0.321  0.679  0.000  0.000     0.662     1.278
 205   1 H      0.064  0.936  0.000  0.000     2.157     2.297
 206   1 H      0.056  0.944  0.000  0.000     2.248     2.345
 207   1 H      0.062  0.938  0.000  0.000     2.178     2.308
 208   7 N     -0.181  1.249  3.931  0.000    24.914     7.413
 209   6 C      0.020  1.063  2.917  0.000    20.242     6.405
 210   6 C      0.269  1.045  2.685  0.000    22.454     7.760
 211   8 O     -0.494  1.726  4.768  0.000    23.648     6.520
 212   6 C     -0.016  1.065  2.951  0.000    20.817     6.489
 213   6 C     -0.061  1.048  3.013  0.000    21.672     6.628
 214   6 C     -0.116  1.041  3.075  0.000    22.771     6.804
 215   6 C     -0.111  1.037  3.074  0.000    22.675     6.791
 216   1 H      0.232  0.768  0.000  0.000     0.958     1.533
 217   1 H      0.057  0.943  0.000  0.000     2.231     2.336
 218   1 H      0.035  0.965  0.000  0.000     2.521     2.483
 219   1 H      0.045  0.955  0.000  0.000     2.380     2.412
 220   1 H      0.039  0.961  0.000  0.000     2.465     2.455
 221   1 H      0.060  0.940  0.000  0.000     2.199     2.319
 222   1 H      0.036  0.964  0.000  0.000     2.502     2.473
 223   1 H      0.051  0.949  0.000  0.000     2.302     2.373
 224   1 H      0.045  0.955  0.000  0.000     2.379     2.412
 225   1 H      0.036  0.964  0.000  0.000     2.501     2.473
 226   1 H      0.048  0.952  0.000  0.000     2.346     2.395
 227   7 N     -0.172  1.247  3.925  0.000    24.712     7.383
 228   6 C      0.033  1.058  2.908  0.000    20.016     6.370
 229   6 C      0.278  1.041  2.682  0.000    22.303     7.734
 230   8 O     -0.493  1.746  4.747  0.000    23.631     6.518
 231   6 C     -0.108  1.070  3.037  0.000    22.547     6.759
 232   6 C      0.373  1.020  2.607  0.000    20.682     7.442
 233   8 O     -0.575  1.743  4.832  0.000    25.511     6.772
 234   8 O     -0.605  1.774  4.831  0.000    26.242     6.868
 235   1 H      0.211  0.789  0.000  0.000     1.053     1.608
 236   1 H      0.067  0.933  0.000  0.000     2.119     2.276
 237   1 H      0.038  0.962  0.000  0.000     2.478     2.462
 238   1 H      0.059  0.941  0.000  0.000     2.210     2.325
 239   7 N     -0.174  1.239  3.935  0.000    24.769     7.392
 240   6 C     -0.031  1.051  2.980  0.000    21.200     6.568
 241   6 C      0.273  1.038  2.688  0.000    22.378     7.746
 242   8 O     -0.457  1.742  4.715  0.000    22.849     6.409
 243   1 H      0.226  0.774  0.000  0.000     0.984     1.554
 244   1 H      0.100  0.900  0.000  0.000     1.784     2.089
 245   1 H      0.065  0.935  0.000  0.000     2.143     2.290
 246   7 N     -0.172  1.238  3.934  0.000    24.722     7.385
 247   6 C     -0.040  1.054  2.986  0.000    21.365     6.593
 248   6 C      0.272  1.041  2.687  0.000    22.400     7.750
 249   8 O     -0.488  1.740  4.748  0.000    23.526     6.503
 250   1 H      0.212  0.788  0.000  0.000     1.049     1.605
 251   1 H      0.109  0.891  0.000  0.000     1.706     2.042
 252   1 H      0.089  0.911  0.000  0.000     1.890     2.150
 253   7 N     -0.164  1.244  3.920  0.000    24.543     7.358
 254   6 C      0.010  1.061  2.929  0.000    20.416     6.433
 255   6 C      0.271  1.043  2.686  0.000    22.429     7.756
 256   8 O     -0.499  1.747  4.753  0.000    23.773     6.537
 257   6 C     -0.073  1.060  3.013  0.000    21.891     6.660
 258   6 C     -0.013  1.058  2.955  0.000    20.773     6.483
 259   6 C     -0.118  1.043  3.075  0.000    22.805     6.809
 260   6 C     -0.116  1.039  3.077  0.000    22.780     6.805
 261   1 H      0.213  0.787  0.000  0.000     1.043     1.599
 262   1 H      0.096  0.904  0.000  0.000     1.826     2.113
 263   1 H      0.050  0.950  0.000  0.000     2.326     2.385
 264   1 H      0.052  0.948  0.000  0.000     2.291     2.367
 265   1 H      0.041  0.959  0.000  0.000     2.431     2.438
 266   1 H      0.047  0.953  0.000  0.000     2.353     2.399
 267   1 H      0.040  0.960  0.000  0.000     2.450     2.448
 268   1 H      0.041  0.959  0.000  0.000     2.434     2.440
 269   1 H      0.048  0.952  0.000  0.000     2.340     2.392
 270   1 H      0.041  0.959  0.000  0.000     2.435     2.440
 271   1 H      0.037  0.963  0.000  0.000     2.487     2.466
 272   7 N     -0.174  1.239  3.935  0.000    24.761     7.390
 273   6 C      0.031  1.051  2.918  0.000    20.069     6.380
 274   6 C      0.196  1.089  2.716  0.000    23.825     7.994
 275   8 O     -0.359  1.753  4.606  0.000    20.875     6.126
 276   6 C     -0.119  1.041  3.078  0.000    22.827     6.812
 277   1 H      0.227  0.773  0.000  0.000     0.977     1.548
 278   1 H      0.093  0.907  0.000  0.000     1.852     2.128
 279   1 H      0.064  0.936  0.000  0.000     2.153     2.295
 280   1 H      0.077  0.923  0.000  0.000     2.008     2.216
 281   1 H      0.064  0.936  0.000  0.000     2.154     2.295
 282   7 N     -0.382  1.316  4.066  0.000    29.876     8.118
 283   6 C      0.040  1.058  2.902  0.000    19.923     6.358
 284   6 C      0.198  1.087  2.716  0.000    23.787     7.988
 285   8 O     -0.363  1.752  4.611  0.000    20.962     6.138
 286   6 C     -0.066  1.056  3.010  0.000    21.746     6.637
 287   6 C      0.002  1.073  2.924  0.000    27.968     8.675
 288   6 C     -0.044  1.082  2.962  0.000    29.087     8.845
 289   6 C     -0.038  1.082  2.957  0.000    28.957     8.825
 290   6 C     -0.064  1.076  2.988  0.000    29.594     8.921
 291   6 C     -0.062  1.073  2.989  0.000    29.543     8.913
 292   6 C      0.149  1.046  2.805  0.000    24.765     8.156
 293   8 O     -0.446  1.715  4.732  0.000    21.772     6.299
 294   1 H      0.166  0.834  0.000  0.000     1.297     1.784
 295   1 H      0.055  0.945  0.000  0.000     2.253     2.347
 296   1 H      0.051  0.949  0.000  0.000     2.307     2.375
 297   1 H      0.053  0.947  0.000  0.000     2.287     2.365
 298   1 H      0.050  0.950  0.000  0.000     2.326     2.385
 299   1 H      0.042  0.958  0.000  0.000     2.422     2.434
 300   1 H      0.049  0.951  0.000  0.000     2.326     2.385
 301   1 H      0.001  0.999  0.000  0.000     3.047     2.730
 302   1 H      0.325  0.675  0.000  0.000     0.651     1.267
 303   7 N     -0.387  1.315  4.072  0.000    30.016     8.137
 304   6 C      0.040  1.057  2.903  0.000    19.919     6.358
 305   6 C      0.202  1.087  2.710  0.000    23.698     7.972
 306   8 O     -0.374  1.756  4.618  0.000    21.165     6.168
 307   6 C     -0.062  1.058  3.005  0.000    21.692     6.630
 308   6 C     -0.006  1.057  2.950  0.000    20.660     6.465
 309   6 C     -0.118  1.041  3.077  0.000    22.807     6.809
 310   6 C     -0.116  1.041  3.075  0.000    22.772     6.804
 311   1 H      0.169  0.831  0.000  0.000     1.280     1.772
 312   1 H      0.056  0.944  0.000  0.000     2.251     2.346
 313   1 H      0.033  0.967  0.000  0.000     2.538     2.491
 314   1 H      0.043  0.957  0.000  0.000     2.408     2.427
 315   1 H      0.029  0.971  0.000  0.000     2.598     2.521
 316   1 H      0.041  0.959  0.000  0.000     2.431     2.438
 317   1 H      0.034  0.966  0.000  0.000     2.530     2.487
 318   1 H      0.052  0.948  0.000  0.000     2.292     2.368
 319   1 H      0.045  0.955  0.000  0.000     2.390     2.417
 320   1 H      0.043  0.957  0.000  0.000     2.414     2.430
 321   1 H      0.034  0.966  0.000  0.000     2.525     2.485
 322   7 N     -0.382  1.317  4.065  0.000    29.873     8.117
 323   6 C     -0.015  1.048  2.967  0.000    20.935     6.531
 324   6 C      0.192  1.089  2.719  0.000    23.888     8.004
 325   8 O     -0.389  1.760  4.629  0.000    21.465     6.212
 326   1 H      0.166  0.834  0.000  0.000     1.296     1.783
 327   1 H      0.086  0.914  0.000  0.000     1.915     2.164
 328   1 H      0.093  0.907  0.000  0.000     1.847     2.125
 329   1 H      0.183  0.817  0.000  0.000     1.197     1.713
 330   1 H      0.088  0.912  0.000  0.000     1.897     2.154
 331   1 H      0.184  0.816  0.000  0.000     1.191     1.709
 332   1 H      0.073  0.927  0.000  0.000     2.057     2.243
 333   1 H      0.172  0.828  0.000  0.000     1.263     1.760
 334   1 H      0.099  0.901  0.000  0.000     1.793     2.094
 335   1 H      0.193  0.807  0.000  0.000     1.142     1.674
 336   1 H      0.087  0.913  0.000  0.000     1.911     2.162
 337   1 H      0.179  0.821  0.000  0.000     1.220     1.730
 338   1 H      0.072  0.928  0.000  0.000     2.065     2.247
 339   1 H      0.178  0.822  0.000  0.000     1.223     1.732
 340   1 H      0.059  0.941  0.000  0.000     2.211     2.325
 341   1 H      0.182  0.818  0.000  0.000     1.204     1.719
 342   1 H      0.066  0.934  0.000  0.000     2.126     2.280

 Mol. C6AA /au·bohr⁶  :    1083286.658229
 Mol. C8AA /au·bohr⁸  :   24304208.888253
 Mol. α(0) /au        :       1563.451057

 
molecular dipole:
                 x           y           z       tot (Debye)
 q only:      -10.216      -1.665     -16.419
   full:      -10.403      -1.245     -16.582      49.858
molecular quadrupole (traceless):
                xx          xy          yy          xz          yz          zz
 q only:    -3968.302   -2685.499    5533.755  -11026.532   -3406.967   -1565.453
  q+dip:    -4141.389   -2540.947    5734.422  -11182.640   -3314.504   -1593.033
   full:    -4140.954   -2541.975    5732.929  -11182.001   -3316.308   -1591.975
speedup 15.59
cpu  time for grad   32.03 s
wall time for grad    2.05 s

SCC energy    :    -532.0223515
rep           :       6.4302540
ES            :       1.5261922
AES           :      -0.0644686
AXC           :       0.1696837
disp          :      -0.4372307
XB            :       0.0000000
fix           :       0.0000000
Gborn         :       0.0000000
Gsasa         :       0.0000000
Ghb           :       0.0000000
Gshift        :       0.0000000
Gsolv         :      -0.3291938     -206.57
Etot ala COSMO:    -532.0223515
grad norm     :       0.5937113
total E       :    -525.5480290
atomizationE  :      95.3308344    59821.00
(atE without considering molecular charge,
 total energy contains solvation terms)
H-L gap (eV)  :          1.2448

------------------------------------------------------------------------
 * finished run on 2019/02/13 at 00:18:09.745     
------------------------------------------------------------------------
 total:
 * wall-time:     0 d,  0 h,  0 min,  2.298 sec
 *  cpu-time:     0 d,  0 h,  0 min, 35.732 sec
 * ratio c/w:    15.547 speedup
 SCF:
 * wall-time:     0 d,  0 h,  0 min,  2.177 sec
 *  cpu-time:     0 d,  0 h,  0 min, 33.996 sec
 * ratio c/w:    15.618 speedup

