      -----------------------------------------------------------      
     |                   =====================                   |     
     |                           x T B                           |     
     |                   =====================                   |     
     |                         S. Grimme                         |     
     |          Mulliken Center for Theoretical Chemistry        |     
     |                    University of Bonn                     |     
     |                 Version 6.0.1 (SAW181210)                 |     
      -----------------------------------------------------------      

   This program is distributed in the hope that it will be useful,
   but WITHOUT ANY WARRANTY; without even the implied warranty of
   MERCHANTABILITY or FITNESS FOR A PARTICULAR PURPOSE.
   
   FOR NON-COMMERCIAL, ACADEMIA USE ONLY.
   
   Cite this work as:
   S. Grimme, C. Bannwarth, P. Shushkov, J. Comput. Theory Chem., 2017,
   13, 1989-2009.
   C. Bannwarth, S. Ehlert and S. Grimme., ChemRxiv, 2018, preprint.
   http://doi.org/10.26434/chemrxiv.7246238.v1
   
   for sTDA-xTB:
   S. Grimme and C. Bannwarth, J. Chem. Phys., 2016, 145, 054103.
   
   in the mass-spec context:
   V. Asgeirsson, C. Bauer and S. Grimme, Chem. Sci., 2017, 8, 4879.
   
   if GBSA is used:
   P. Shushkov, F. März and S. Grimme, unpublished.
   
   for ANC optimizer:
   S. Grimme, unpublished.
   Rational Function algorithm used in ANCopt:
   F. Eckert, P. Pulay, H.-J. Werner, J. Comput. Chem., 1997, 18, 1473.
   
   with help from (in alphabetical order)
   C. Bannwarth, F. Bohle, G. Brandenburg, E. Caldeweyher, M. Checinski,
   S. Dohm, S. Ehlert, S. Ehrlich, F. März, H. Neugebauer, J. Pisarek,
   P. Pracht, P. Shushkov, and S. Spicher.
   
 * started run on 2019/02/13 at 00:18:53.936     
========================================================================
 # omp threads = 16
========================================================================
number of atoms            : 124
number of electrons        : 334
charge                     : 0
spin                       : .0
first test random number   : .0799

########################################################################
# WARNING! Please study the warnings concerning your input carefully
#  - Process number higher than OMP_NUM_THREADS, I hope you know what you are doing.
########################################################################

           ------------------------------------------------- 
          |                 G F N 2 - x T B                 |
          | Geometry, Frequencies, Noncovalent interactions |
          |            JCTC 2018 parametrisation            |
           ------------------------------------------------- 
 
      method parameters     
 k(s)        :  1.8500
 k(p)        :  2.2300
 k(d)        :  2.2300
 k(f)        :  2.0000
 kEN (H0ij)  : -2.0000
 D4 a1       :  0.5200
 D4 a2       :  5.0000
 D4 s6       :  1.0000
 D4 s8       :  2.7000
 D4 s9       :  5.0000
 alphaj      :  2.0000

 Solvent             : h2o
 Using internal parameter file: .param_gbsa2_h2o
 Gsolv ref. state (COSMO-RS): gsolv [1 M gas/solution]
 temperature (mdtemp)       :    298.150000000000     
 dielectric constant        :    80.2000000000000     
 rho                        :    1.00000000000000     
 mass                       :    18.0000000000000     
 surface tension            :    15.5689454083859     
 probe radius               :   0.975313790000000     
 vdW radii scaling          :    1.00000000000000     
 Gshift (Eh)                :   1.857443126794793E-003
 c1                         :    1.55243817000000     
 soset                      :   0.130326360000000     
 HB correction              :  T

            Z     q(EN)     CN     RAES       Cart. coordinates
     1  N   5.0   -0.21    3.20    1.96   437.69079   127.70864   223.14777
     2  C   4.0    0.03    4.24    4.07   438.74485   130.22681   223.17587
     3  C   4.0    0.08    3.19    3.03   441.01382   130.57070   224.94221
     4  O   6.0   -0.28    1.12    1.80   442.22315   132.54091   224.90071
     5  C   4.0   -0.04    4.36    4.31   436.70199   132.15107   223.88462
     6  C   4.0   -0.03    4.19    3.98   434.52317   132.23815   221.97882
     7  C   4.0   -0.07    4.10    3.81   432.43100   133.99153   222.90966
     8  C   4.0   -0.06    4.12    3.85   435.44811   133.11912   219.40237
     9  H   1.0    0.08    1.03    1.43   436.23196   127.38052   224.35035
    10  H   1.0    0.05    1.06    1.44   439.47662   130.61413   221.27734
    11  H   1.0    0.04    1.03    1.43   435.97452   131.65996   225.75131
    12  H   1.0    0.06    1.03    1.43   437.59141   134.00622   224.02118
    13  H   1.0    0.04    1.06    1.44   433.73251   130.33428   221.80404
    14  H   1.0    0.04    1.00    1.43   430.87515   134.00377   221.56923
    15  H   1.0    0.04    1.00    1.43   431.72307   133.38342   224.74053
    16  H   1.0    0.05    1.00    1.43   433.11107   135.92251   223.09353
    17  H   1.0    0.07    1.02    1.43   433.86297   133.29211   218.11290
    18  H   1.0    0.06    1.00    1.43   436.33583   134.96074   219.58745
    19  H   1.0    0.05    1.00    1.43   436.80764   131.79394   218.61839
    20  N   5.0   -0.19    3.24    1.97   421.48086   142.46903   215.79906
    21  C   4.0    0.03    4.22    4.04   421.82850   140.10701   214.48685
    22  C   4.0    0.08    3.22    3.04   419.23342   138.99286   213.85192
    23  O   6.0   -0.28    1.14    1.80   417.32671   139.68290   214.95110
    24  C   4.0   -0.04    4.33    4.25   423.21471   138.20889   216.21431
    25  C   4.0   -0.02    3.54    3.13   425.94192   138.86974   216.68329
    26  C   4.0   -0.05    3.47    3.10   426.79553   139.51331   219.07984
    27  C   4.0   -0.04    3.48    3.10   427.70559   138.70821   214.74887
    28  C   4.0   -0.04    3.43    3.09   429.33753   139.84681   219.58347
    29  C   4.0   -0.02    3.46    3.10   430.25318   138.97020   215.23650
    30  C   4.0    0.07    3.45    3.10   431.09856   139.48553   217.66810
    31  O   6.0   -0.24    2.11    1.84   433.60680   139.68182   218.21273
    32  H   1.0    0.10    1.03    1.43   420.11558   142.46731   217.14990
    33  H   1.0    0.04    1.05    1.44   422.92169   140.46543   212.77003
    34  H   1.0    0.05    1.03    1.43   422.20727   138.13087   218.01200
    35  H   1.0    0.04    1.03    1.43   423.11004   136.34347   215.34126
    36  H   1.0    0.05    1.03    1.43   425.45028   139.72645   220.59233
    37  H   1.0    0.05    1.03    1.43   427.10222   138.35413   212.83300
    38  H   1.0    0.06    1.03    1.43   429.99855   140.32640   221.45397
    39  H   1.0    0.08    1.04    1.43   431.59708   138.71317   213.72811
    40  H   1.0    0.13    1.04    1.43   434.57054   138.86284   216.89410
    41  N   5.0   -0.19    3.22    1.96   419.49460   124.95932   220.07452
    42  C   4.0    0.02    4.32    4.23   420.87711   126.79205   218.55385
    43  C   4.0    0.15    3.45    3.10   421.23806   125.65405   215.91816
    44  O   6.0   -0.30    1.28    1.80   422.47141   123.71553   215.57293
    45  C   4.0   -0.05    4.35    4.29   423.39721   127.34988   219.84360
    46  C   4.0   -0.02    4.19    3.98   425.06385   129.21049   218.37850
    47  C   4.0   -0.08    4.11    3.82   423.87015   131.80949   218.02995
    48  C   4.0   -0.08    4.12    3.84   427.58733   129.53345   219.74530
    49  H   1.0    0.08    1.02    1.43   420.57161   123.87587   221.25175
    50  H   1.0    0.03    1.05    1.44   419.71083   128.48874   218.38764
    51  H   1.0    0.04    1.03    1.43   423.02206   128.07502   221.73491
    52  H   1.0    0.05    1.03    1.43   424.40230   125.55643   220.03853
    53  H   1.0    0.05    1.06    1.44   425.39558   128.41743   216.49931
    54  H   1.0    0.04    1.01    1.43   425.28535   133.06210   217.22585
    55  H   1.0    0.04    1.00    1.43   422.26081   131.75085   216.75534
    56  H   1.0    0.04    1.00    1.43   423.28671   132.58734   219.83648
    57  H   1.0    0.05    1.00    1.43   428.91693   130.56776   218.56826
    58  H   1.0    0.04    1.00    1.43   427.31135   130.57092   221.49334
    59  H   1.0    0.04    1.00    1.43   428.43639   127.71830   220.20173
    60  N   5.0   -0.14    3.46    2.05   419.96015   126.78987   214.05817
    61  C   4.0    0.03    4.36    4.31   420.02928   125.71112   211.53534
    62  C   4.0    0.16    3.50    3.12   422.77106   125.83511   210.62027
    63  O   6.0   -0.31    1.31    1.80   424.02831   127.76369   210.81952
    64  C   4.0   -0.07    4.10    3.80   418.26149   127.15551   209.78780
    65  H   1.0    0.07    1.06    1.44   419.40494   128.62931   214.19473
    66  H   1.0    0.05    1.05    1.44   419.44319   123.73097   211.69494
    67  H   1.0    0.04    1.00    1.43   418.28928   126.34292   207.90390
    68  H   1.0    0.04    1.00    1.43   416.34584   127.07990   210.52802
    69  H   1.0    0.05    1.00    1.43   418.85559   129.11883   209.67646
    70  N   5.0   -0.15    3.37    2.01   423.72207   123.68635   209.66976
    71  C   4.0    0.02    4.25    4.10   426.33793   123.57292   208.88846
    72  C   4.0    0.16    3.49    3.11   428.10506   124.76091   210.83425
    73  O   6.0   -0.29    1.39    1.80   429.97571   125.97197   210.19124
    74  H   1.0    0.08    1.06    1.44   422.67178   122.10102   209.61193
    75  H   1.0    0.04    1.03    1.43   426.88419   121.60580   208.61188
    76  H   1.0    0.06    1.02    1.43   426.62030   124.60913   207.11791
    77  N   5.0   -0.14    3.41    2.03   427.60991   124.31735   213.27261
    78  C   4.0    0.01    4.28    4.17   429.36929   125.32141   215.11038
    79  C   4.0    0.17    3.51    3.12   430.50703   127.83410   214.20322
    80  O   6.0   -0.29    1.28    1.80   432.76171   128.25896   214.45400
    81  H   1.0    0.11    1.07    1.44   425.97570   123.52003   213.87969
    82  H   1.0    0.04    1.03    1.43   428.41119   125.55938   216.90856
    83  H   1.0    0.06    1.02    1.43   430.96269   124.02083   215.35582
    84  N   5.0   -0.13    3.54    2.11   428.84988   129.55590   213.30045
    85  C   4.0    0.04    4.37    4.32   429.74793   131.45594   211.52133
    86  C   4.0    0.17    3.50    3.11   432.05365   132.72157   212.70993
    87  O   6.0   -0.30    1.27    1.80   431.92556   133.83589   214.72207
    88  C   4.0   -0.07    4.11    3.82   427.62136   133.31484   211.00710
    89  H   1.0    0.10    1.10    1.44   427.08203   128.95192   212.86847
    90  H   1.0    0.06    1.05    1.44   430.31879   130.50055   209.76573
    91  H   1.0    0.05    1.00    1.43   428.23875   134.74188   209.66716
    92  H   1.0    0.06    1.00    1.43   426.00793   132.30278   210.23784
    93  H   1.0    0.05    1.01    1.43   427.09409   134.21543   212.77345
    94  N   5.0   -0.13    3.49    2.07   434.18750   132.60782   211.32708
    95  C   4.0    0.05    4.49    4.52   436.64272   133.01315   212.45170
    96  C   4.0    0.16    3.42    3.08   437.29588   135.77544   212.90888
    97  O   6.0   -0.29    1.23    1.80   438.67277   136.35093   214.68339
    98  C   4.0    0.05    4.25    4.10   438.69860   131.83420   210.75291
    99  O   6.0   -0.25    2.15    1.85   438.14233   132.60098   208.25511
   100  C   4.0   -0.07    4.06    3.73   438.76177   128.96387   211.04044
   101  H   1.0    0.09    1.08    1.44   434.21467   131.72620   209.63637
   102  H   1.0    0.06    1.06    1.44   436.68478   132.08779   214.30411
   103  H   1.0    0.05    1.04    1.43   440.53565   132.61736   211.33026
   104  H   1.0    0.12    1.03    1.43   439.35032   131.82638   207.13132
   105  H   1.0    0.05    1.00    1.43   440.06749   128.13869   209.68375
   106  H   1.0    0.05    1.00    1.43   439.37834   128.46875   212.93387
   107  H   1.0    0.06    1.00    1.43   436.89412   128.15824   210.74704
   108  N   5.0   -0.12    3.50    2.08   436.42277   137.45567   211.25987
   109  C   4.0    0.04    4.30    4.20   436.77533   140.15298   211.56070
   110  C   4.0    0.07    3.22    3.04   434.22682   141.42442   211.02825
   111  O   6.0   -0.29    1.15    1.80   432.72153   140.41085   209.57304
   112  C   4.0    0.04    4.13    3.86   438.83813   141.15482   209.78436
   113  O   6.0   -0.23    2.05    1.83   441.20095   140.45061   210.78135
   114  H   1.0    0.10    1.08    1.44   435.26570   136.91547   209.83600
   115  H   1.0    0.06    1.06    1.44   437.39423   140.48196   213.50547
   116  H   1.0    0.05    1.01    1.43   438.54129   140.35558   207.89647
   117  H   1.0    0.04    1.01    1.43   438.66725   143.21776   209.66338
   118  H   1.0    0.12    1.02    1.43   442.50747   140.91743   209.60094
   119  H   1.0    0.09    1.07    1.44   437.09945   127.35804   221.59215
   120  H   1.0    0.06    1.04    1.43   441.50608   129.18480   226.12881
   121  H   1.0    0.09    1.08    1.44   422.92841   142.90357   216.57902
   122  H   1.0    0.05    1.05    1.44   419.07525   137.67044   212.51130
   123  H   1.0    0.09    1.07    1.44   418.37387   125.77169   221.06273
   124  H   1.0    0.05    1.04    1.43   433.79737   143.06553   211.86095

  Z AO/shell   Hii/eV     exponent
  1     Wed Apr 25 08:07:45 CEST 2018   EN: 2.200 GM2: 0.406  GM3: 0.0800  RAES: 1.40
     1s    -10.707211    1.230000
  6     Wed Apr 25 08:07:45 CEST 2018   EN: 2.550 GM2: 0.538  GM3: 0.1500  RAES: 3.00
     2s    -13.970922    2.096432
     2p    -10.063292    1.800000
  7     Wed Apr 25 08:07:45 CEST 2018   EN: 3.040 GM2: 0.461  GM3:-0.0640  RAES: 1.90
     2s    -16.686243    2.339881
     2p    -12.523956    2.014332
  8     Wed Apr 25 08:07:45 CEST 2018   EN: 3.440 GM2: 0.452  GM3:-0.0517  RAES: 1.80
     2s    -20.229985    2.439742
     2p    -15.503117    2.137023
 no old-style atom pair restraining (fixing) potential

molecular fragmentation (1/2 indicates fragments):
111111111111111111122222222222222222222222222222222222222222222222222222
2222222222222222222222222222222222222222222222112222
# atoms in fragment 1/2:    21   103
 fragment masses (1/2) :      115.17      724.81
CMA distance (Bohr)    :  12.735
constraining FC (au)   :  0.0500
           ------------------------------------------------- 
          |        Self-Consistent Charge Iterations        |
           ------------------------------------------------- 

 Ncao       : 301
 Nao        : 301
 Nshell     : 183
 Nel        : 334
 T(el)      :   500.0
 intcut     :    35.0
 scfconv/Eh :  0.100E-06
   qconv/e  :  0.100E-04
 intneglect :  0.100E-08
 broydamp   :      0.400
 iter      E             dE          RMSdq      gap      omega  full diag
   1   -191.4405708 -0.191441E+03  0.472E+00    3.33       0.0  T
   2   -191.9061038 -0.465533E+00  0.221E+00    1.75       1.0  T
   3   -191.9345351 -0.284313E-01  0.123E+00    1.94       1.0  T
   4   -191.9671280 -0.325929E-01  0.252E-01    1.40       1.0  T
   5   -191.9686981 -0.157013E-02  0.110E-01    1.58       1.0  T
   6   -191.9689756 -0.277430E-03  0.461E-02    1.56       1.0  T
   7   -191.9690547 -0.791286E-04  0.190E-02    1.56       1.0  T
   8   -191.9690610 -0.627688E-05  0.827E-03    1.55       1.1  T
   9   -191.9690626 -0.167526E-05  0.322E-03    1.55       2.8  T
  10   -191.9690630 -0.325808E-06  0.130E-03    1.55       6.9  T
  11   -191.9690630 -0.277947E-07  0.543E-04    1.55      16.5  T
  12   -191.9690630 -0.319238E-08  0.222E-04    1.55      40.5  T
  13   -191.9690630 -0.197971E-08  0.879E-05    1.55     102.1  T
  14   -191.9690630 -0.241698E-09  0.442E-05    1.55     203.3  T
speedup 15.87
cpu  time for SCC    3.77 s
wall time for SCC    0.24 s

   *** convergence criteria satisfied after 14 iterations ***

          eigenvalues
 #    :         155        156        157        158        159        160        161        162
 occ. :        2.000      2.000      2.000      2.000      2.000      2.000      2.000      2.000
 eps  :       -11.256    -11.216    -11.166    -11.157    -11.111    -10.984    -10.960    -10.721
 #    :         163        164        165        166        167        168        169        170
 occ. :        2.000      2.000      2.000      2.000      2.000      0.000      0.000      0.000
 eps  :       -10.624    -10.384    -10.074     -9.986     -9.873     -8.320     -7.631     -7.555
 #    :         171        172        173        174        175        176        177        178
 occ. :        0.000      0.000      0.000      0.000      0.000      0.000      0.000      0.000
 eps  :        -6.656     -6.301     -6.275     -6.087     -6.000     -5.957     -5.881     -5.780


   #   Z            q   n(s)   n(p)   n(d)      C6AA      α(0)
   1   7 N     -0.390  1.314  4.076  0.000    30.103     8.149
   2   6 C      0.039  1.054  2.907  0.000    19.944     6.362
   3   6 C      0.198  1.091  2.711  0.000    23.786     7.987
   4   8 O     -0.388  1.759  4.629  0.000    21.447     6.209
   5   6 C     -0.065  1.059  3.006  0.000    21.740     6.637
   6   6 C     -0.004  1.055  2.949  0.000    20.620     6.459
   7   6 C     -0.111  1.041  3.070  0.000    22.666     6.788
   8   6 C     -0.107  1.037  3.070  0.000    22.591     6.776
   9   1 H      0.165  0.835  0.000  0.000     1.303     1.788
  10   1 H      0.065  0.935  0.000  0.000     2.141     2.288
  11   1 H      0.039  0.961  0.000  0.000     2.456     2.451
  12   1 H      0.044  0.956  0.000  0.000     2.400     2.422
  13   1 H      0.028  0.972  0.000  0.000     2.621     2.532
  14   1 H      0.042  0.958  0.000  0.000     2.424     2.435
  15   1 H      0.038  0.962  0.000  0.000     2.473     2.459
  16   1 H      0.039  0.961  0.000  0.000     2.465     2.455
  17   1 H      0.055  0.945  0.000  0.000     2.262     2.352
  18   1 H      0.036  0.964  0.000  0.000     2.505     2.475
  19   1 H      0.018  0.982  0.000  0.000     2.761     2.598
  20   7 N     -0.383  1.316  4.067  0.000    29.900     8.121
  21   6 C      0.037  1.059  2.904  0.000    19.968     6.366
  22   6 C      0.198  1.085  2.717  0.000    23.782     7.987
  23   8 O     -0.374  1.756  4.618  0.000    21.169     6.169
  24   6 C     -0.071  1.057  3.014  0.000    21.856     6.654
  25   6 C      0.001  1.075  2.924  0.000    28.002     8.680
  26   6 C     -0.044  1.081  2.962  0.000    29.081     8.844
  27   6 C     -0.041  1.080  2.961  0.000    29.021     8.835
  28   6 C     -0.058  1.075  2.983  0.000    29.445     8.898
  29   6 C     -0.059  1.076  2.984  0.000    29.479     8.904
  30   6 C      0.147  1.044  2.809  0.000    24.805     8.163
  31   8 O     -0.417  1.708  4.710  0.000    21.190     6.214
  32   1 H      0.165  0.835  0.000  0.000     1.304     1.789
  33   1 H      0.070  0.930  0.000  0.000     2.086     2.258
  34   1 H      0.053  0.947  0.000  0.000     2.284     2.364
  35   1 H      0.053  0.947  0.000  0.000     2.286     2.364
  36   1 H      0.047  0.953  0.000  0.000     2.361     2.403
  37   1 H      0.047  0.953  0.000  0.000     2.363     2.404
  38   1 H      0.049  0.951  0.000  0.000     2.329     2.386
  39   1 H      0.022  0.978  0.000  0.000     2.701     2.570
  40   1 H      0.310  0.690  0.000  0.000     0.693     1.307
  41   7 N     -0.391  1.324  4.067  0.000    30.126     8.152
  42   6 C      0.031  1.059  2.910  0.000    20.070     6.381
  43   6 C      0.272  1.051  2.677  0.000    22.403     7.751
  44   8 O     -0.494  1.743  4.751  0.000    23.656     6.521
  45   6 C     -0.070  1.059  3.011  0.000    21.835     6.651
  46   6 C     -0.014  1.056  2.958  0.000    20.794     6.486
  47   6 C     -0.114  1.040  3.074  0.000    22.730     6.798
  48   6 C     -0.110  1.040  3.070  0.000    22.653     6.785
  49   1 H      0.163  0.837  0.000  0.000     1.319     1.799
  50   1 H      0.038  0.962  0.000  0.000     2.477     2.461
  51   1 H      0.048  0.952  0.000  0.000     2.345     2.395
  52   1 H      0.041  0.959  0.000  0.000     2.435     2.441
  53   1 H      0.019  0.981  0.000  0.000     2.747     2.592
  54   1 H      0.044  0.956  0.000  0.000     2.394     2.420
  55   1 H      0.032  0.968  0.000  0.000     2.555     2.500
  56   1 H      0.048  0.952  0.000  0.000     2.341     2.393
  57   1 H      0.034  0.966  0.000  0.000     2.528     2.486
  58   1 H      0.051  0.949  0.000  0.000     2.310     2.377
  59   1 H      0.027  0.973  0.000  0.000     2.622     2.532
  60   7 N     -0.173  1.255  3.918  0.000    24.744     7.388
  61   6 C      0.023  1.059  2.918  0.000    20.194     6.398
  62   6 C      0.274  1.045  2.681  0.000    22.370     7.746
  63   8 O     -0.485  1.743  4.742  0.000    23.445     6.492
  64   6 C     -0.133  1.042  3.091  0.000    23.107     6.854
  65   1 H      0.209  0.791  0.000  0.000     1.062     1.614
  66   1 H      0.073  0.927  0.000  0.000     2.057     2.243
  67   1 H      0.073  0.927  0.000  0.000     2.048     2.238
  68   1 H      0.080  0.920  0.000  0.000     1.980     2.200
  69   1 H      0.068  0.932  0.000  0.000     2.112     2.273
  70   7 N     -0.174  1.243  3.931  0.000    24.760     7.390
  71   6 C     -0.034  1.052  2.982  0.000    21.241     6.574
  72   6 C      0.285  1.036  2.678  0.000    22.164     7.710
  73   8 O     -0.487  1.754  4.734  0.000    23.504     6.500
  74   1 H      0.227  0.773  0.000  0.000     0.980     1.551
  75   1 H      0.103  0.897  0.000  0.000     1.757     2.073
  76   1 H      0.097  0.903  0.000  0.000     1.814     2.106
  77   7 N     -0.177  1.242  3.935  0.000    24.838     7.402
  78   6 C     -0.028  1.052  2.976  0.000    21.127     6.554
  79   6 C      0.304  1.037  2.659  0.000    21.846     7.654
  80   8 O     -0.489  1.748  4.741  0.000    23.532     6.504
  81   1 H      0.224  0.776  0.000  0.000     0.992     1.560
  82   1 H      0.086  0.914  0.000  0.000     1.918     2.166
  83   1 H      0.080  0.920  0.000  0.000     1.984     2.203
  84   7 N     -0.194  1.274  3.920  0.000    25.201     7.456
  85   6 C      0.037  1.057  2.906  0.000    19.956     6.361
  86   6 C      0.290  1.040  2.670  0.000    22.085     7.696
  87   8 O     -0.473  1.740  4.732  0.000    23.189     6.456
  88   6 C     -0.126  1.041  3.085  0.000    22.967     6.833
  89   1 H      0.210  0.790  0.000  0.000     1.058     1.611
  90   1 H      0.041  0.959  0.000  0.000     2.437     2.441
  91   1 H      0.060  0.940  0.000  0.000     2.203     2.321
  92   1 H      0.075  0.925  0.000  0.000     2.036     2.231
  93   1 H      0.067  0.933  0.000  0.000     2.114     2.274
  94   7 N     -0.188  1.246  3.942  0.000    25.081     7.438
  95   6 C      0.025  1.058  2.916  0.000    20.150     6.392
  96   6 C      0.278  1.038  2.683  0.000    22.292     7.732
  97   8 O     -0.493  1.749  4.744  0.000    23.637     6.518
  98   6 C      0.116  1.047  2.837  0.000    18.776     6.186
  99   8 O     -0.484  1.722  4.762  0.000    22.555     6.411
 100   6 C     -0.134  1.045  3.090  0.000    23.144     6.860
 101   1 H      0.211  0.789  0.000  0.000     1.051     1.606
 102   1 H      0.072  0.928  0.000  0.000     2.061     2.245
 103   1 H      0.030  0.970  0.000  0.000     2.592     2.518
 104   1 H      0.350  0.650  0.000  0.000     0.588     1.205
 105   1 H      0.066  0.934  0.000  0.000     2.135     2.285
 106   1 H      0.052  0.948  0.000  0.000     2.290     2.367
 107   1 H      0.059  0.941  0.000  0.000     2.212     2.326
 108   7 N     -0.158  1.228  3.929  0.000    24.410     7.338
 109   6 C      0.023  1.058  2.919  0.000    20.199     6.400
 110   6 C      0.191  1.091  2.718  0.000    23.911     8.008
 111   8 O     -0.345  1.754  4.591  0.000    20.611     6.087
 112   6 C      0.081  1.036  2.884  0.000    19.453     6.319
 113   8 O     -0.478  1.729  4.750  0.000    22.433     6.394
 114   1 H      0.216  0.784  0.000  0.000     1.030     1.589
 115   1 H      0.105  0.895  0.000  0.000     1.739     2.062
 116   1 H      0.055  0.945  0.000  0.000     2.254     2.348
 117   1 H      0.051  0.949  0.000  0.000     2.311     2.377
 118   1 H      0.354  0.646  0.000  0.000     0.578     1.194
 119   1 H      0.180  0.820  0.000  0.000     1.213     1.725
 120   1 H      0.076  0.924  0.000  0.000     2.023     2.224
 121   1 H      0.181  0.819  0.000  0.000     1.207     1.721
 122   1 H      0.067  0.933  0.000  0.000     2.119     2.276
 123   1 H      0.189  0.811  0.000  0.000     1.166     1.691
 124   1 H      0.096  0.904  0.000  0.000     1.819     2.109

 Mol. C6AA /au·bohr⁶  :     139488.289125
 Mol. C8AA /au·bohr⁸  :    3081978.318543
 Mol. α(0) /au        :        560.243335

 
molecular dipole:
                 x           y           z       tot (Debye)
 q only:       -3.755      -2.399      -3.783
   full:       -4.006      -3.183      -4.056      16.597
molecular quadrupole (traceless):
                xx          xy          yy          xz          yz          zz
 q only:    -2124.289   -2246.322    1808.397   -3692.512   -1531.977     315.891
  q+dip:    -2186.123   -2793.350    1762.490   -3965.334   -1836.659     423.633
   full:    -2186.221   -2794.375    1763.875   -3966.003   -1838.735     422.346
speedup 15.88
cpu  time for grad    4.16 s
wall time for grad    0.26 s

SCC energy    :    -191.9748459
rep           :       2.3540195
ES            :       0.4872432
AES           :       0.0087394
AXC           :       0.0624386
disp          :      -0.1448559
XB            :       0.0000000
fix           :       0.0000000
Gborn         :       0.0000000
Gsasa         :       0.0000000
Ghb           :       0.0000000
Gshift        :       0.0000000
Gsolv         :      -0.0803763      -50.44
Etot ala COSMO:    -191.9748459
grad norm     :       0.3896685
total E       :    -189.6118450
atomizationE  :      34.4004442    21586.60
(atE without considering molecular charge,
 total energy contains solvation terms)
H-L gap (eV)  :          1.5527

------------------------------------------------------------------------
 * finished run on 2019/02/13 at 00:18:54.299     
------------------------------------------------------------------------
 total:
 * wall-time:     0 d,  0 h,  0 min,  0.362 sec
 *  cpu-time:     0 d,  0 h,  0 min,  5.348 sec
 * ratio c/w:    14.777 speedup
 SCF:
 * wall-time:     0 d,  0 h,  0 min,  0.288 sec
 *  cpu-time:     0 d,  0 h,  0 min,  4.569 sec
 * ratio c/w:    15.888 speedup

