      -----------------------------------------------------------      
     |                   =====================                   |     
     |                           x T B                           |     
     |                   =====================                   |     
     |                         S. Grimme                         |     
     |          Mulliken Center for Theoretical Chemistry        |     
     |                    University of Bonn                     |     
     |                 Version 6.0.1 (SAW181210)                 |     
      -----------------------------------------------------------      

   This program is distributed in the hope that it will be useful,
   but WITHOUT ANY WARRANTY; without even the implied warranty of
   MERCHANTABILITY or FITNESS FOR A PARTICULAR PURPOSE.
   
   FOR NON-COMMERCIAL, ACADEMIA USE ONLY.
   
   Cite this work as:
   S. Grimme, C. Bannwarth, P. Shushkov, J. Comput. Theory Chem., 2017,
   13, 1989-2009.
   C. Bannwarth, S. Ehlert and S. Grimme., ChemRxiv, 2018, preprint.
   http://doi.org/10.26434/chemrxiv.7246238.v1
   
   for sTDA-xTB:
   S. Grimme and C. Bannwarth, J. Chem. Phys., 2016, 145, 054103.
   
   in the mass-spec context:
   V. Asgeirsson, C. Bauer and S. Grimme, Chem. Sci., 2017, 8, 4879.
   
   if GBSA is used:
   P. Shushkov, F. März and S. Grimme, unpublished.
   
   for ANC optimizer:
   S. Grimme, unpublished.
   Rational Function algorithm used in ANCopt:
   F. Eckert, P. Pulay, H.-J. Werner, J. Comput. Chem., 1997, 18, 1473.
   
   with help from (in alphabetical order)
   C. Bannwarth, F. Bohle, G. Brandenburg, E. Caldeweyher, M. Checinski,
   S. Dohm, S. Ehlert, S. Ehrlich, F. März, H. Neugebauer, J. Pisarek,
   P. Pracht, P. Shushkov, and S. Spicher.
   
 * started run on 2019/03/14 at 15:07:35.945     
========================================================================
 # omp threads = 1
========================================================================
number of atoms            : 115
number of electrons        : 312
charge                     : 1
spin                       : .0
first test random number   : .1841
           ------------------------------------------------- 
          |                 G F N 2 - x T B                 |
          | Geometry, Frequencies, Noncovalent interactions |
          |            JCTC 2018 parametrisation            |
           ------------------------------------------------- 
 
      method parameters     
 k(s)        :  1.8500
 k(p)        :  2.2300
 k(d)        :  2.2300
 k(f)        :  2.0000
 kEN (H0ij)  : -2.0000
 D4 a1       :  0.5200
 D4 a2       :  5.0000
 D4 s6       :  1.0000
 D4 s8       :  2.7000
 D4 s9       :  5.0000
 alphaj      :  2.0000

 Solvent             : h2o
 Using internal parameter file: .param_gbsa2_h2o
 Gsolv ref. state (COSMO-RS): gsolv [1 M gas/solution]
 temperature (mdtemp)       :    298.150000000000     
 dielectric constant        :    80.2000000000000     
 rho                        :    1.00000000000000     
 mass                       :    18.0000000000000     
 surface tension            :    15.5689454083859     
 probe radius               :   0.975313790000000     
 vdW radii scaling          :    1.00000000000000     
 Gshift (Eh)                :   1.857443126794793E-003
 c1                         :    1.55243817000000     
 soset                      :   0.130326360000000     
 HB correction              :  T

            Z     q(EN)     CN     RAES       Cart. coordinates
     1  N   5.0   -0.11    3.99    2.85   127.35154    74.04677    16.73402
     2  C   4.0   -0.02    4.14    3.89   126.83211    71.83994    15.02917
     3  C   4.0    0.15    3.24    3.04   129.22270    70.90292    13.59941
     4  O   6.0   -0.27    1.19    1.80   129.39699    70.99690    11.33236
     5  H   1.0    0.07    1.02    1.43   126.22697    75.56004    16.22494
     6  H   1.0    0.06    1.01    1.43   126.94104    73.65143    18.59936
     7  H   1.0    0.07    1.02    1.43   129.20571    74.63907    16.58993
     8  H   1.0    0.04    1.02    1.43   126.07081    70.26686    16.12756
     9  H   1.0    0.07    1.02    1.43   125.43555    72.38301    13.61363
    10  N   5.0   -0.15    3.51    2.08   131.00366    70.11105    15.25232
    11  C   4.0    0.03    4.36    4.31   133.55237    69.13567    14.82702
    12  C   4.0    0.15    3.46    3.10   134.81826    69.12054    17.43293
    13  O   6.0   -0.26    1.21    1.80   136.15245    67.43797    18.21684
    14  C   4.0   -0.02    4.28    4.17   135.10282    70.78094    13.01458
    15  C   4.0   -0.02    4.21    4.02   135.11460    69.84611    10.28465
    16  C   4.0    0.17    3.22    3.04   137.36128    70.91238     8.84203
    17  O   6.0   -0.25    1.22    1.80   139.25502    71.73147     9.88152
    18  N   5.0   -0.16    3.18    1.95   137.13000    70.83654     6.31714
    19  H   1.0    0.08    1.11    1.44   130.40822    69.70561    17.02250
    20  H   1.0    0.06    1.05    1.44   133.54851    67.16511    14.19101
    21  H   1.0    0.07    1.03    1.43   134.36935    72.70526    13.07146
    22  H   1.0    0.07    1.04    1.43   137.06350    70.80269    13.66356
    23  H   1.0    0.06    1.03    1.43   135.33740    67.79311    10.25353
    24  H   1.0    0.07    1.03    1.43   133.34770    70.31540     9.33860
    25  H   1.0    0.10    1.03    1.43   135.58414    70.12058     5.47539
    26  H   1.0    0.12    1.03    1.43   138.58184    71.42712     5.23861
    27  N   5.0   -0.14    3.59    2.15   134.06476    71.15551    18.83168
    28  C   4.0    0.04    4.46    4.48   134.76943    71.32939    21.45575
    29  C   4.0    0.15    3.47    3.10   133.07291    69.57040    22.98212
    30  O   6.0   -0.33    1.47    1.80   133.96432    68.49131    24.82525
    31  C   4.0    0.05    4.22    4.04   134.59480    74.13821    22.31741
    32  O   6.0   -0.24    2.14    1.85   135.43453    75.70098    20.32772
    33  C   4.0   -0.07    4.08    3.76   136.09826    74.51598    24.72878
    34  H   1.0    0.09    1.09    1.44   134.00312    72.83694    17.91122
    35  H   1.0    0.07    1.06    1.44   136.69608    70.62301    21.78499
    36  H   1.0    0.04    1.04    1.43   132.59231    74.58417    22.62950
    37  H   1.0    0.13    1.03    1.43   136.85054    76.71106    20.87892
    38  H   1.0    0.05    1.00    1.43   135.79446    76.39938    25.49141
    39  H   1.0    0.05    1.01    1.43   135.52970    73.11906    26.11745
    40  H   1.0    0.06    1.00    1.43   138.10474    74.25405    24.36028
    41  N   5.0   -0.15    3.43    2.04   130.66137    69.19902    22.25370
    42  C   4.0    0.03    4.45    4.47   128.92923    67.74090    23.84446
    43  C   4.0    0.16    3.61    3.17   130.29793    65.60021    25.22493
    44  O   6.0   -0.30    1.31    1.80   130.08404    65.43759    27.52915
    45  C   4.0   -0.03    4.28    4.16   126.54397    66.73741    22.44019
    46  C   4.0   -0.04    4.21    4.02   125.19308    64.62904    23.93445
    47  C   4.0   -0.06    4.11    3.82   127.10909    65.71699    19.79510
    48  C   4.0   -0.06    4.01    3.64   124.47759    65.25454    26.65728
    49  H   1.0    0.07    1.06    1.44   129.89662    70.42167    21.00506
    50  H   1.0    0.04    1.06    1.44   128.25773    68.98467    25.37206
    51  H   1.0    0.04    1.05    1.44   125.22806    68.32853    22.29541
    52  H   1.0    0.05    1.03    1.43   123.46522    64.16070    22.90636
    53  H   1.0    0.05    1.03    1.43   126.39262    62.95059    23.93461
    54  H   1.0    0.05    1.00    1.43   125.38682    65.05116    18.88841
    55  H   1.0    0.05    1.00    1.43   127.94554    67.13474    18.57492
    56  H   1.0    0.06    1.00    1.43   128.40709    64.13269    19.92117
    57  H   1.0    0.06    1.00    1.43   123.53796    63.63785    27.51119
    58  H   1.0    0.07    1.02    1.43   126.13679    65.63869    27.79305
    59  H   1.0    0.05    1.00    1.43   123.22467    66.87835    26.76494
    60  N   5.0   -0.14    3.55    2.12   131.29415    63.71411    23.86890
    61  C   4.0    0.05    4.51    4.55   132.11115    61.49093    25.23093
    62  C   4.0    0.17    3.50    3.12   134.26501    62.11108    27.04706
    63  O   6.0   -0.25    1.22    1.80   134.63669    60.79066    28.92333
    64  C   4.0   -0.02    4.27    4.13   132.92952    59.42425    23.39285
    65  C   4.0    0.26    3.20    3.04   135.36721    60.46078    22.10180
    66  O   6.0   -0.28    1.22    1.80   137.39790    59.45705    22.69565
    67  O   6.0   -0.27    1.23    1.80   135.06534    62.33044    20.69466
    68  H   1.0    0.11    1.09    1.44   132.05576    63.91280    22.10875
    69  H   1.0    0.07    1.05    1.44   130.53462    60.83934    26.42184
    70  H   1.0    0.07    1.02    1.43   133.32853    57.68490    24.42361
    71  H   1.0    0.06    1.02    1.43   131.45597    59.07810    21.99409
    72  N   5.0   -0.12    3.54    2.10   135.64424    64.13042    26.46877
    73  C   4.0    0.05    4.45    4.46   137.43759    65.22406    28.19040
    74  C   4.0    0.16    3.52    3.12   136.29550    66.81843    30.28646
    75  O   6.0   -0.26    1.28    1.80   137.43822    66.86647    32.30897
    76  C   4.0   -0.04    4.29    4.17   139.42694    66.90088    26.93038
    77  C   4.0   -0.03    4.17    3.95   141.39384    65.40539    25.44436
    78  C   4.0    0.00    4.21    4.02   142.83445    63.53131    27.11760
    79  N   5.0   -0.13    3.38    2.01   144.86172    62.22779    25.79743
    80  C   4.0    0.11    3.35    3.06   144.56888    60.59494    23.89976
    81  N   5.0   -0.16    3.29    1.98   142.41408    60.36101    22.64884
    82  N   5.0   -0.16    3.25    1.97   146.56892    59.29616    23.08785
    83  H   1.0    0.12    1.13    1.45   135.12833    65.20379    24.97200
    84  H   1.0    0.07    1.07    1.44   138.33803    63.65925    29.19568
    85  H   1.0    0.06    1.03    1.43   138.43730    68.22347    25.69665
    86  H   1.0    0.06    1.04    1.43   140.31431    67.98394    28.44716
    87  H   1.0    0.07    1.03    1.43   140.43041    64.42950    23.91448
    88  H   1.0    0.06    1.03    1.43   142.76380    66.71803    24.64896
    89  H   1.0    0.06    1.03    1.43   143.70771    64.60378    28.64613
    90  H   1.0    0.06    1.02    1.43   141.55912    62.11850    27.93081
    91  H   1.0    0.09    1.07    1.44   146.51862    62.14494    26.73957
    92  H   1.0    0.12    1.06    1.44   140.69473    60.72864    23.41450
    93  H   1.0    0.11    1.04    1.43   142.32345    59.04176    21.28020
    94  H   1.0    0.11    1.03    1.43   148.27208    59.50405    23.90125
    95  H   1.0    0.11    1.03    1.43   146.39268    58.05693    21.65298
    96  N   5.0   -0.13    3.49    2.07   134.22780    68.18473    29.90535
    97  C   4.0    0.05    4.39    4.36   133.05030    69.24411    32.14000
    98  C   4.0    0.11    3.28    3.05   132.27856    67.03107    33.82225
    99  O   6.0   -0.23    1.12    1.80   132.67999    67.03068    36.08510
   100  C   4.0   -0.04    4.32    4.24   130.85450    71.01077    31.59268
   101  C   4.0   -0.02    4.20    4.00   131.70259    73.27454    29.97517
   102  C   4.0   -0.07    4.12    3.84   130.23737    73.32133    27.50211
   103  C   4.0   -0.06    4.10    3.80   131.39544    75.78152    31.36497
   104  H   1.0    0.12    1.11    1.45   133.34178    68.18068    28.20765
   105  H   1.0    0.07    1.06    1.44   134.50116    70.28062    33.19824
   106  H   1.0    0.05    1.03    1.43   129.33727    69.96517    30.66728
   107  H   1.0    0.06    1.03    1.43   130.15921    71.67237    33.41658
   108  H   1.0    0.05    1.07    1.44   133.71291    73.03536    29.56164
   109  H   1.0    0.04    1.01    1.43   130.59283    75.09192    26.53596
   110  H   1.0    0.05    1.02    1.43   130.82878    71.77076    26.30706
   111  H   1.0    0.05    1.00    1.43   128.22963    73.14948    27.88603
   112  H   1.0    0.05    1.00    1.43   132.10471    77.31782    30.20002
   113  H   1.0    0.06    1.00    1.43   129.41553    76.13902    31.77794
   114  H   1.0    0.06    1.00    1.43   132.45121    75.77513    33.12778
   115  H   1.0    0.08    1.05    1.44   131.41746    65.52702    33.06899

  Z AO/shell   Hii/eV     exponent
  1     Wed Apr 25 08:07:45 CEST 2018   EN: 2.200 GM2: 0.406  GM3: 0.0800  RAES: 1.40
     1s    -10.707211    1.230000
  6     Wed Apr 25 08:07:45 CEST 2018   EN: 2.550 GM2: 0.538  GM3: 0.1500  RAES: 3.00
     2s    -13.970922    2.096432
     2p    -10.063292    1.800000
  7     Wed Apr 25 08:07:45 CEST 2018   EN: 3.040 GM2: 0.461  GM3:-0.0640  RAES: 1.90
     2s    -16.686243    2.339881
     2p    -12.523956    2.014332
  8     Wed Apr 25 08:07:45 CEST 2018   EN: 3.440 GM2: 0.452  GM3:-0.0517  RAES: 1.80
     2s    -20.229985    2.439742
     2p    -15.503117    2.137023
 no old-style atom pair restraining (fixing) potential
           ------------------------------------------------- 
          |        Self-Consistent Charge Iterations        |
           ------------------------------------------------- 

 Ncao       : 280
 Nao        : 280
 Nshell     : 170
 Nel        : 312
 T(el)      :   500.0
 intcut     :    35.0
 scfconv/Eh :  0.100E-06
   qconv/e  :  0.100E-04
 intneglect :  0.100E-08
 broydamp   :      0.400
 iter      E             dE          RMSdq      gap      omega  full diag
   1   -179.5236191 -0.179524E+03  0.462E+00    3.72       0.0  T
   2   -179.9754334 -0.451814E+00  0.213E+00    2.81       1.0  T
   3   -180.0048775 -0.294441E-01  0.119E+00    2.80       1.0  T
   4   -180.0297742 -0.248967E-01  0.255E-01    2.17       1.0  T
   5   -180.0314094 -0.163518E-02  0.117E-01    2.30       1.0  T
   6   -180.0316225 -0.213121E-03  0.403E-02    2.29       1.0  T
   7   -180.0316571 -0.346179E-04  0.176E-02    2.32       1.0  T
   8   -180.0316603 -0.320799E-05  0.699E-03    2.33       1.3  T
   9   -180.0316617 -0.135605E-05  0.264E-03    2.33       3.5  T
  10   -180.0316618 -0.791813E-07  0.103E-03    2.33       9.1  T
  11   -180.0316618 -0.257663E-07  0.379E-04    2.33      24.6  T
  12   -180.0316618 -0.279650E-08  0.151E-04    2.33      61.9  T
  13   -180.0316618 -0.295927E-09  0.640E-05    2.33     145.6  T
  14   -180.0316618 -0.690363E-10  0.252E-05    2.33     369.7  T
speedup  1.00
cpu  time for SCC    0.28 s
wall time for SCC    0.28 s

   *** convergence criteria satisfied after 14 iterations ***

          eigenvalues
 #    :         144        145        146        147        148        149        150        151
 occ. :        2.000      2.000      2.000      2.000      2.000      2.000      2.000      2.000
 eps  :       -11.608    -11.526    -11.480    -11.411    -11.361    -11.233    -11.116    -10.973
 #    :         152        153        154        155        156        157        158        159
 occ. :        2.000      2.000      2.000      2.000      2.000      0.000      0.000      0.000
 eps  :       -10.921    -10.872    -10.697    -10.676    -10.091     -7.759     -7.093     -6.917
 #    :         160        161        162        163        164        165        166        167
 occ. :        0.000      0.000      0.000      0.000      0.000      0.000      0.000      0.000
 eps  :        -6.748     -6.426     -6.139     -6.075     -5.928     -5.714     -4.989     -2.633


   #   Z            q   n(s)   n(p)   n(d)      C6AA      α(0)
   1   7 N     -0.138  1.223  3.915  0.000    23.982     7.273
   2   6 C     -0.100  1.073  3.026  0.000    22.500     6.771
   3   6 C      0.280  1.028  2.693  0.000    22.265     7.726
   4   8 O     -0.415  1.748  4.667  0.000    21.984     6.286
   5   1 H      0.324  0.676  0.000  0.000     0.647     1.260
   6   1 H      0.302  0.698  0.000  0.000     0.706     1.316
   7   1 H      0.292  0.708  0.000  0.000     0.739     1.347
   8   1 H      0.141  0.859  0.000  0.000     1.451     1.884
   9   1 H      0.159  0.841  0.000  0.000     1.336     1.807
  10   7 N     -0.182  1.245  3.937  0.000    24.941     7.417
  11   6 C      0.003  1.070  2.927  0.000    20.543     6.455
  12   6 C      0.275  1.042  2.683  0.000    22.354     7.743
  13   8 O     -0.442  1.766  4.676  0.000    22.531     6.364
  14   6 C     -0.064  1.048  3.015  0.000    21.717     6.634
  15   6 C     -0.106  1.059  3.047  0.000    22.520     6.756
  16   6 C      0.290  1.038  2.671  0.000    22.075     7.693
  17   8 O     -0.510  1.757  4.753  0.000    24.000     6.568
  18   7 N     -0.295  1.267  4.028  0.000    27.599     7.802
  19   1 H      0.200  0.800  0.000  0.000     1.108     1.649
  20   1 H      0.078  0.922  0.000  0.000     1.996     2.210
  21   1 H      0.079  0.921  0.000  0.000     1.989     2.205
  22   1 H      0.066  0.934  0.000  0.000     2.132     2.283
  23   1 H      0.069  0.931  0.000  0.000     2.095     2.263
  24   1 H      0.094  0.906  0.000  0.000     1.843     2.123
  25   1 H      0.230  0.770  0.000  0.000     0.967     1.540
  26   1 H      0.224  0.776  0.000  0.000     0.990     1.559
  27   7 N     -0.217  1.266  3.951  0.000    25.721     7.532
  28   6 C      0.008  1.066  2.926  0.000    20.453     6.440
  29   6 C      0.267  1.049  2.684  0.000    22.484     7.765
  30   8 O     -0.484  1.751  4.733  0.000    23.424     6.489
  31   6 C      0.102  1.052  2.846  0.000    18.995     6.223
  32   8 O     -0.468  1.707  4.761  0.000    22.215     6.363
  33   6 C     -0.142  1.043  3.099  0.000    23.297     6.883
  34   1 H      0.245  0.755  0.000  0.000     0.901     1.487
  35   1 H      0.076  0.924  0.000  0.000     2.018     2.222
  36   1 H      0.066  0.934  0.000  0.000     2.126     2.280
  37   1 H      0.348  0.652  0.000  0.000     0.592     1.208
  38   1 H      0.073  0.927  0.000  0.000     2.048     2.238
  39   1 H      0.058  0.942  0.000  0.000     2.221     2.331
  40   1 H      0.059  0.941  0.000  0.000     2.215     2.328
  41   7 N     -0.180  1.258  3.922  0.000    24.896     7.410
  42   6 C      0.007  1.074  2.920  0.000    20.475     6.444
  43   6 C      0.295  1.037  2.668  0.000    21.997     7.681
  44   8 O     -0.508  1.758  4.751  0.000    23.967     6.564
  45   6 C     -0.038  1.075  2.964  0.000    21.228     6.554
  46   6 C     -0.063  1.052  3.011  0.000    21.702     6.632
  47   6 C     -0.131  1.042  3.089  0.000    23.064     6.848
  48   6 C     -0.117  1.035  3.082  0.000    22.808     6.811
  49   1 H      0.229  0.771  0.000  0.000     0.971     1.544
  50   1 H      0.087  0.913  0.000  0.000     1.904     2.158
  51   1 H      0.085  0.915  0.000  0.000     1.924     2.169
  52   1 H      0.058  0.942  0.000  0.000     2.223     2.332
  53   1 H      0.020  0.980  0.000  0.000     2.735     2.586
  54   1 H      0.073  0.927  0.000  0.000     2.050     2.239
  55   1 H      0.058  0.942  0.000  0.000     2.224     2.332
  56   1 H      0.038  0.962  0.000  0.000     2.477     2.461
  57   1 H      0.027  0.973  0.000  0.000     2.626     2.534
  58   1 H      0.042  0.958  0.000  0.000     2.423     2.434
  59   1 H      0.050  0.950  0.000  0.000     2.321     2.382
  60   7 N     -0.199  1.257  3.942  0.000    25.324     7.474
  61   6 C      0.049  1.054  2.897  0.000    19.743     6.324
  62   6 C      0.283  1.042  2.675  0.000    22.204     7.717
  63   8 O     -0.534  1.759  4.775  0.000    24.554     6.644
  64   6 C     -0.102  1.067  3.036  0.000    22.447     6.745
  65   6 C      0.366  1.023  2.611  0.000    20.793     7.463
  66   8 O     -0.612  1.757  4.855  0.000    26.411     6.890
  67   8 O     -0.606  1.763  4.843  0.000    26.272     6.872
  68   1 H      0.220  0.780  0.000  0.000     1.010     1.574
  69   1 H      0.046  0.954  0.000  0.000     2.371     2.408
  70   1 H      0.026  0.974  0.000  0.000     2.638     2.540
  71   1 H      0.039  0.961  0.000  0.000     2.457     2.451
  72   7 N     -0.186  1.248  3.939  0.000    25.038     7.432
  73   6 C      0.031  1.052  2.917  0.000    20.055     6.376
  74   6 C      0.272  1.045  2.684  0.000    22.412     7.754
  75   8 O     -0.522  1.755  4.766  0.000    24.272     6.605
  76   6 C     -0.075  1.055  3.020  0.000    21.921     6.664
  77   6 C     -0.083  1.052  3.032  0.000    22.092     6.692
  78   6 C     -0.018  1.051  2.967  0.000    20.982     6.537
  79   7 N     -0.149  1.219  3.930  0.000    24.217     7.309
  80   6 C      0.238  1.018  2.744  0.000    23.029     7.857
  81   7 N     -0.240  1.247  3.993  0.000    26.276     7.613
  82   7 N     -0.263  1.236  4.027  0.000    26.811     7.690
  83   1 H      0.222  0.778  0.000  0.000     0.998     1.565
  84   1 H      0.067  0.933  0.000  0.000     2.114     2.274
  85   1 H      0.072  0.928  0.000  0.000     2.059     2.244
  86   1 H      0.067  0.933  0.000  0.000     2.119     2.277
  87   1 H      0.064  0.936  0.000  0.000     2.158     2.297
  88   1 H      0.088  0.912  0.000  0.000     1.897     2.154
  89   1 H      0.091  0.909  0.000  0.000     1.868     2.138
  90   1 H      0.052  0.948  0.000  0.000     2.292     2.368
  91   1 H      0.243  0.757  0.000  0.000     0.911     1.495
  92   1 H      0.237  0.763  0.000  0.000     0.936     1.516
  93   1 H      0.234  0.766  0.000  0.000     0.950     1.527
  94   1 H      0.255  0.745  0.000  0.000     0.863     1.455
  95   1 H      0.252  0.748  0.000  0.000     0.876     1.466
  96   7 N     -0.178  1.247  3.932  0.000    24.861     7.405
  97   6 C      0.035  1.058  2.907  0.000    19.981     6.362
  98   6 C      0.213  1.083  2.704  0.000    23.490     7.938
  99   8 O     -0.373  1.753  4.620  0.000    21.144     6.165
 100   6 C     -0.076  1.058  3.018  0.000    21.945     6.669
 101   6 C     -0.016  1.057  2.958  0.000    20.819     6.490
 102   6 C     -0.130  1.044  3.085  0.000    23.038     6.843
 103   6 C     -0.122  1.044  3.078  0.000    22.889     6.822
 104   1 H      0.233  0.767  0.000  0.000     0.954     1.530
 105   1 H      0.086  0.914  0.000  0.000     1.914     2.163
 106   1 H      0.062  0.938  0.000  0.000     2.176     2.307
 107   1 H      0.063  0.937  0.000  0.000     2.167     2.302
 108   1 H      0.040  0.960  0.000  0.000     2.447     2.446
 109   1 H      0.069  0.931  0.000  0.000     2.092     2.262
 110   1 H      0.034  0.966  0.000  0.000     2.526     2.485
 111   1 H      0.056  0.944  0.000  0.000     2.247     2.344
 112   1 H      0.057  0.943  0.000  0.000     2.239     2.340
 113   1 H      0.050  0.950  0.000  0.000     2.323     2.384
 114   1 H      0.034  0.966  0.000  0.000     2.525     2.485
 115   1 H      0.055  0.945  0.000  0.000     2.252     2.346

 Mol. C6AA /au·bohr⁶  :     116452.202307
 Mol. C8AA /au·bohr⁸  :    2561346.724831
 Mol. α(0) /au        :        507.331307

 
molecular dipole:
                 x           y           z       tot (Debye)
 q only:      131.772      77.703      12.201
   full:      131.636      76.835      12.151     388.648
molecular quadrupole (traceless):
                xx          xy          yy          xz          yz          zz
 q only:    14512.562   15237.848   -2780.990    2463.781    1564.211  -11731.571
  q+dip:    14533.929   15054.474   -2867.601    2445.691    1530.867  -11666.328
   full:    14532.796   15054.621   -2867.074    2444.011    1531.828  -11665.722
speedup  1.00
cpu  time for grad    0.44 s
wall time for grad    0.44 s

SCC energy    :    -180.0353165
rep           :       2.0517816
ES            :       0.7331762
AES           :      -0.0416183
AXC           :       0.0540362
disp          :      -0.1374103
XB            :       0.0000000
fix           :       0.0000000
Gborn         :       0.0000000
Gsasa         :       0.0000000
Ghb           :       0.0000000
Gshift        :       0.0000000
Gsolv         :      -0.2629849     -165.03
Etot ala COSMO:    -180.0353165
grad norm     :       0.1222522
total E       :    -177.9753313
atomizationE  :      31.5501817    19798.04
(atE without considering molecular charge,
 total energy contains solvation terms)
H-L gap (eV)  :          2.3318

------------------------------------------------------------------------
 * finished run on 2019/03/14 at 15:07:36.601     
------------------------------------------------------------------------
 total:
 * wall-time:     0 d,  0 h,  0 min,  0.655 sec
 *  cpu-time:     0 d,  0 h,  0 min,  0.525 sec
 * ratio c/w:     0.802 speedup
 SCF:
 * wall-time:     0 d,  0 h,  0 min,  0.497 sec
 *  cpu-time:     0 d,  0 h,  0 min,  0.496 sec
 * ratio c/w:     0.998 speedup

