      -----------------------------------------------------------      
     |                   =====================                   |     
     |                           x T B                           |     
     |                   =====================                   |     
     |                         S. Grimme                         |     
     |          Mulliken Center for Theoretical Chemistry        |     
     |                    University of Bonn                     |     
     |                 Version 6.0.1 (SAW181210)                 |     
      -----------------------------------------------------------      

   This program is distributed in the hope that it will be useful,
   but WITHOUT ANY WARRANTY; without even the implied warranty of
   MERCHANTABILITY or FITNESS FOR A PARTICULAR PURPOSE.
   
   FOR NON-COMMERCIAL, ACADEMIA USE ONLY.
   
   Cite this work as:
   S. Grimme, C. Bannwarth, P. Shushkov, J. Comput. Theory Chem., 2017,
   13, 1989-2009.
   C. Bannwarth, S. Ehlert and S. Grimme., ChemRxiv, 2018, preprint.
   http://doi.org/10.26434/chemrxiv.7246238.v1
   
   for sTDA-xTB:
   S. Grimme and C. Bannwarth, J. Chem. Phys., 2016, 145, 054103.
   
   in the mass-spec context:
   V. Asgeirsson, C. Bauer and S. Grimme, Chem. Sci., 2017, 8, 4879.
   
   if GBSA is used:
   P. Shushkov, F. März and S. Grimme, unpublished.
   
   for ANC optimizer:
   S. Grimme, unpublished.
   Rational Function algorithm used in ANCopt:
   F. Eckert, P. Pulay, H.-J. Werner, J. Comput. Chem., 1997, 18, 1473.
   
   with help from (in alphabetical order)
   C. Bannwarth, F. Bohle, G. Brandenburg, E. Caldeweyher, M. Checinski,
   S. Dohm, S. Ehlert, S. Ehrlich, F. März, H. Neugebauer, J. Pisarek,
   P. Pracht, P. Shushkov, and S. Spicher.
   
 * started run on 2019/03/14 at 16:03:17.964     
========================================================================
 # omp threads = 1
========================================================================
number of atoms            : 600
number of electrons        : 1572
charge                     : -1
spin                       : .0
first test random number   : .0561

########################################################################
# WARNING! Please study the warnings concerning your input carefully
#  - XTBPATH is not set, using XTBHOME instead
########################################################################

           ------------------------------------------------- 
          |                 G F N 2 - x T B                 |
          | Geometry, Frequencies, Noncovalent interactions |
          |            JCTC 2018 parametrisation            |
           ------------------------------------------------- 
 
      method parameters     
 k(s)        :  1.8500
 k(p)        :  2.2300
 k(d)        :  2.2300
 k(f)        :  2.0000
 kEN (H0ij)  : -2.0000
 D4 a1       :  0.5200
 D4 a2       :  5.0000
 D4 s6       :  1.0000
 D4 s8       :  2.7000
 D4 s9       :  5.0000
 alphaj      :  2.0000

 Solvent             : h2o
 Using internal parameter file: .param_gbsa2_h2o
 Gsolv ref. state (COSMO-RS): gsolv [1 M gas/solution]
 temperature (mdtemp)       :    298.150000000000     
 dielectric constant        :    80.2000000000000     
 rho                        :    1.00000000000000     
 mass                       :    18.0000000000000     
 surface tension            :    15.5689454083859     
 probe radius               :   0.975313790000000     
 vdW radii scaling          :    1.00000000000000     
 Gshift (Eh)                :   1.857443126794793E-003
 c1                         :    1.55243817000000     
 soset                      :   0.130326360000000     
 HB correction              :  T

            Z     q(EN)     CN     RAES       Cart. coordinates
     1  N   5.0   -0.21    3.20    1.95    27.72653    24.20152    50.53092
     2  C   4.0    0.03    4.21    4.03    30.42177    24.26648    50.10498
     3  C   4.0    0.07    3.25    3.04    31.27675    22.05901    48.42947
     4  O   6.0   -0.32    1.13    1.80    33.10903    22.25974    47.02403
     5  C   4.0   -0.04    4.26    4.11    31.88914    24.24553    52.61470
     6  C   4.0   -0.05    4.21    4.03    32.51511    21.56213    53.50162
     7  C   4.0   -0.01    4.19    3.99    32.87900    21.25001    56.34621
     8  N   5.0   -0.14    3.40    2.02    34.53430    23.12139    57.48069
     9  C   4.0    0.09    3.34    3.06    35.32933    23.08337    59.86191
    10  N   5.0   -0.18    3.25    1.97    35.22342    21.01244    61.27711
    11  N   5.0   -0.18    3.25    1.97    36.21869    25.21460    60.87272
    12  H   1.0    0.10    1.03    1.43    27.09891    24.31738    52.33900
    13  H   1.0    0.04    1.05    1.44    30.87321    26.01071    49.07323
    14  H   1.0    0.04    1.03    1.43    33.62313    25.31044    52.29479
    15  H   1.0    0.05    1.03    1.43    30.71770    25.22519    54.00036
    16  H   1.0    0.04    1.04    1.43    30.92796    20.33996    53.03726
    17  H   1.0    0.05    1.02    1.43    34.14587    20.88477    52.43898
    18  H   1.0    0.04    1.03    1.43    31.00119    21.40123    57.19365
    19  H   1.0    0.04    1.03    1.43    33.65456    19.36729    56.65836
    20  H   1.0    0.07    1.08    1.44    34.73306    24.73879    56.48284
    21  H   1.0    0.08    1.03    1.43    34.85516    19.29610    60.54130
    22  H   1.0    0.09    1.03    1.43    35.85787    21.08203    63.07286
    23  H   1.0    0.08    1.04    1.43    36.07513    26.84376    59.90497
    24  H   1.0    0.09    1.03    1.43    36.95555    25.27833    62.62566
    25  N   5.0   -0.21    3.25    1.97    31.22698    22.96679    41.71780
    26  C   4.0    0.03    4.40    4.38    33.37955    24.42217    40.86490
    27  C   4.0    0.14    3.49    3.11    35.67033    22.75017    40.35607
    28  O   6.0   -0.32    1.31    1.80    37.21243    23.28706    38.71124
    29  C   4.0   -0.02    4.33    4.26    34.23049    26.48230    42.72576
    30  C   4.0   -0.05    4.20    3.99    31.99699    27.81178    44.00435
    31  C   4.0   -0.08    4.12    3.84    35.97149    28.35893    41.39168
    32  C   4.0   -0.08    4.00    3.63    30.16472    29.28086    42.34170
    33  H   1.0    0.10    1.04    1.43    30.83857    22.86813    43.58019
    34  H   1.0    0.04    1.06    1.44    32.83211    25.28434    39.06310
    35  H   1.0    0.05    1.06    1.44    35.28536    25.50757    44.21785
    36  H   1.0    0.04    1.04    1.43    30.91483    26.39016    45.02345
    37  H   1.0    0.04    1.03    1.43    32.79397    29.12574    45.37587
    38  H   1.0    0.04    1.00    1.43    36.56337    29.80555    42.71941
    39  H   1.0    0.05    1.00    1.43    37.64214    27.44115    40.62491
    40  H   1.0    0.04    1.00    1.43    34.98696    29.25122    39.82945
    41  H   1.0    0.04    1.00    1.43    28.57866    29.85767    43.51496
    42  H   1.0    0.04    1.00    1.43    31.05480    30.95572    41.55878
    43  H   1.0    0.04    1.00    1.43    29.40627    28.12980    40.82121
    44  N   5.0   -0.14    3.47    2.06    36.01482    20.79224    41.91956
    45  C   4.0    0.03    4.33    4.25    37.97466    18.94967    41.35713
    46  C   4.0    0.08    3.31    3.05    37.81958    18.20150    38.58223
    47  O   6.0   -0.30    1.15    1.80    39.62160    18.40198    37.13352
    48  C   4.0   -0.05    4.35    4.29    37.72824    16.66924    43.10598
    49  C   4.0   -0.02    4.17    3.95    39.69542    14.57237    42.78688
    50  C   4.0   -0.07    4.11    3.81    42.33758    15.48047    43.48452
    51  C   4.0   -0.08    4.11    3.82    38.94331    12.35702    44.48965
    52  H   1.0    0.09    1.08    1.44    34.56342    20.21722    43.01875
    53  H   1.0    0.05    1.06    1.44    39.80503    19.89650    41.56512
    54  H   1.0    0.04    1.03    1.43    37.81239    17.37141    45.04439
    55  H   1.0    0.04    1.03    1.43    35.87269    15.81634    42.82703
    56  H   1.0    0.05    1.05    1.44    39.70864    13.92427    40.81049
    57  H   1.0    0.04    1.01    1.43    43.62102    13.88568    43.41654
    58  H   1.0    0.05    1.00    1.43    43.01364    16.87908    42.13874
    59  H   1.0    0.04    1.00    1.43    42.31880    16.28119    45.37697
    60  H   1.0    0.04    1.00    1.43    40.20840    10.76502    44.20440
    61  H   1.0    0.04    1.00    1.43    39.01757    12.93790    46.45784
    62  H   1.0    0.04    1.00    1.43    37.02460    11.72902    44.08687
    63  N   5.0   -0.20    3.26    1.97    35.76275    20.96178    33.92459
    64  C   4.0    0.03    4.25    4.10    36.49359    22.87855    32.11823
    65  C   4.0    0.14    3.43    3.09    39.20209    22.55454    31.15901
    66  O   6.0   -0.31    1.23    1.80    39.78910    23.16535    29.00818
    67  C   4.0   -0.07    4.14    3.87    36.26749    25.46416    33.34416
    68  H   1.0    0.11    1.06    1.44    35.61706    21.49389    35.75303
    69  H   1.0    0.04    1.05    1.44    35.24643    22.69454    30.47109
    70  H   1.0    0.04    1.00    1.43    36.81288    26.94634    32.03445
    71  H   1.0    0.04    1.00    1.43    34.32752    25.72087    33.95321
    72  H   1.0    0.06    1.01    1.43    37.48718    25.52835    34.99258
    73  N   5.0   -0.15    3.51    2.09    40.87486    21.78827    32.89461
    74  C   4.0    0.04    4.40    4.38    43.50389    21.53797    32.25805
    75  C   4.0    0.15    3.39    3.08    44.16624    18.94280    31.09785
    76  O   6.0   -0.29    1.23    1.80    46.35703    18.37788    30.63760
    77  C   4.0   -0.04    4.32    4.24    45.29476    21.99960    34.48509
    78  C   4.0   -0.03    4.14    3.87    45.37241    24.61126    35.78375
    79  C   4.0   -0.08    4.09    3.77    46.05610    26.79037    34.01477
    80  C   4.0   -0.07    4.10    3.80    42.93294    25.22945    37.19616
    81  H   1.0    0.11    1.09    1.44    40.25004    21.09487    34.56274
    82  H   1.0    0.05    1.07    1.44    43.85054    22.90551    30.73862
    83  H   1.0    0.06    1.03    1.43    44.83591    20.56151    35.89595
    84  H   1.0    0.05    1.04    1.43    47.17810    21.53977    33.77258
    85  H   1.0    0.04    1.06    1.44    46.88226    24.43212    37.19424
    86  H   1.0    0.04    1.00    1.43    46.19263    28.54807    35.07240
    87  H   1.0    0.03    1.00    1.43    47.85898    26.45121    33.09210
    88  H   1.0    0.04    1.00    1.43    44.60330    27.03913    32.58554
    89  H   1.0    0.04    1.00    1.43    43.24112    26.72316    38.57560
    90  H   1.0    0.05    1.00    1.43    41.48529    25.85666    35.88645
    91  H   1.0    0.06    1.00    1.43    42.21499    23.58475    38.19350
    92  N   5.0   -0.14    3.47    2.06    42.19854    17.47310    30.43615
    93  C   4.0    0.04    4.34    4.27    42.48465    14.91482    29.52022
    94  C   4.0    0.08    3.22    3.04    42.04600    14.70323    26.67363
    95  O   6.0   -0.27    1.12    1.80    42.98240    13.00693    25.42087
    96  C   4.0   -0.04    4.28    4.15    40.61935    13.12563    30.83081
    97  C   4.0   -0.03    4.18    3.95    40.98144    13.08969    33.68754
    98  C   4.0    0.25    3.12    3.03    43.78282    12.46083    34.36044
    99  O   6.0   -0.28    1.17    1.80    44.55863    10.32513    33.73268
   100  O   6.0   -0.28    1.16    1.80    45.01484    14.12841    35.47104
   101  H   1.0    0.09    1.08    1.44    40.41961    17.93577    30.96177
   102  H   1.0    0.08    1.06    1.44    44.42251    14.28444    29.90452
   103  H   1.0    0.04    1.03    1.43    38.70459    13.74279    30.35813
   104  H   1.0    0.06    1.03    1.43    40.91415    11.21927    30.09836
   105  H   1.0    0.07    1.03    1.43    40.50230    14.91297    34.52438
   106  H   1.0    0.04    1.02    1.43    39.76458    11.64400    34.53255
   107  N   5.0   -0.18    3.25    1.97    43.85431    19.04032    22.86625
   108  C   4.0    0.03    4.19    3.99    45.93959    20.41261    21.76488
   109  C   4.0    0.08    3.18    3.03    48.27660    18.71348    21.57141
   110  O   6.0   -0.26    1.13    1.80    48.40956    16.66223    22.61868
   111  C   4.0   -0.05    4.32    4.24    46.34030    22.91616    23.17210
   112  C   4.0   -0.01    4.17    3.94    46.86629    22.81102    26.02035
   113  C   4.0   -0.07    4.10    3.80    49.59758    22.12938    26.64183
   114  C   4.0   -0.08    4.13    3.85    46.27572    25.41958    27.11507
   115  H   1.0    0.10    1.03    1.43    43.86600    18.81254    24.75572
   116  H   1.0    0.04    1.06    1.44    45.32094    20.83640    19.82905
   117  H   1.0    0.03    1.03    1.43    47.88735    23.95488    22.29716
   118  H   1.0    0.04    1.04    1.43    44.59282    23.98595    22.91547
   119  H   1.0    0.06    1.05    1.44    45.62890    21.41483    26.92217
   120  H   1.0    0.05    1.00    1.43    49.79494    21.87288    28.67309
   121  H   1.0    0.06    1.00    1.43    50.16369    20.36480    25.75463
   122  H   1.0    0.03    1.00    1.43    50.83835    23.65490    26.04238
   123  H   1.0    0.04    1.00    1.43    46.79012    25.48430    29.09688
   124  H   1.0    0.03    1.00    1.43    47.38752    26.85641    26.15208
   125  H   1.0    0.05    1.00    1.43    44.27792    25.87366    26.93766
   126  N   5.0   -0.22    3.21    1.96    56.20880    26.08509    24.88953
   127  C   4.0    0.02    4.21    4.01    56.33940    26.54709    27.60143
   128  C   4.0    0.07    3.21    3.04    58.24487    28.63866    28.17105
   129  O   6.0   -0.32    1.12    1.80    57.81270    30.33266    29.70303
   130  C   4.0   -0.05    4.33    4.25    57.00855    24.03052    28.88372
   131  C   4.0   -0.02    4.15    3.90    57.17256    24.01018    31.78657
   132  C   4.0   -0.07    4.10    3.80    59.58139    25.29335    32.75176
   133  C   4.0   -0.08    4.09    3.79    54.80156    25.16663    32.97691
   134  H   1.0    0.08    1.03    1.43    55.75891    24.31352    24.33015
   135  H   1.0    0.04    1.05    1.44    54.47914    27.22601    28.22488
   136  H   1.0    0.04    1.03    1.43    55.55759    22.67834    28.29546
   137  H   1.0    0.04    1.03    1.43    58.79391    23.38415    28.07714
   138  H   1.0    0.04    1.06    1.44    57.26556    22.00798    32.30929
   139  H   1.0    0.05    1.00    1.43    59.96810    24.70481    34.67974
   140  H   1.0    0.04    1.00    1.43    61.19115    24.74578    31.59905
   141  H   1.0    0.05    1.01    1.43    59.38674    27.33107    32.61624
   142  H   1.0    0.04    1.00    1.43    54.71197    24.82077    34.99987
   143  H   1.0    0.04    1.00    1.43    54.74888    27.18877    32.62224
   144  H   1.0    0.03    1.00    1.43    53.11290    24.35013    32.13176
   145  N   5.0   -0.21    3.24    1.96    55.98972    35.24156    26.97011
   146  C   4.0    0.03    4.33    4.26    54.08762    36.10712    28.74083
   147  C   4.0    0.15    3.42    3.09    55.35609    37.47217    30.95893
   148  O   6.0   -0.31    1.25    1.80    54.55050    39.47393    31.79625
   149  C   4.0   -0.04    4.33    4.25    52.45707    33.87724    29.59702
   150  C   4.0   -0.01    3.57    3.15    50.20228    34.76491    31.06397
   151  C   4.0   -0.04    3.48    3.11    48.15256    35.78450    29.77575
   152  C   4.0   -0.04    3.46    3.10    50.09255    34.60374    33.67823
   153  C   4.0   -0.04    3.38    3.07    46.03262    36.59063    31.06522
   154  C   4.0   -0.05    3.38    3.07    47.97231    35.42013    34.97052
   155  C   4.0   -0.04    3.37    3.07    45.93388    36.41097    33.67298
   156  H   1.0    0.09    1.02    1.43    55.86565    33.47367    26.25450
   157  H   1.0    0.05    1.05    1.44    52.86840    37.52477    27.83411
   158  H   1.0    0.04    1.03    1.43    51.79984    32.88845    27.90208
   159  H   1.0    0.05    1.03    1.43    53.61834    32.57013    30.68477
   160  H   1.0    0.04    1.03    1.43    48.22985    35.89880    27.73846
   161  H   1.0    0.05    1.03    1.43    51.67403    33.82119    34.69182
   162  H   1.0    0.05    1.03    1.43    44.45099    37.35356    30.02824
   163  H   1.0    0.04    1.03    1.43    47.88197    35.27605    37.00169
   164  H   1.0    0.05    1.03    1.43    44.27782    37.02969    34.68814
   165  N   5.0   -0.15    3.47    2.06    57.37029    36.29381    31.91393
   166  C   4.0    0.03    4.33    4.25    58.80443    37.34241    34.00335
   167  C   4.0    0.09    3.25    3.04    59.56293    40.08999    33.52029
   168  O   6.0   -0.30    1.11    1.80    59.12102    41.78455    35.02989
   169  C   4.0   -0.05    4.28    4.17    61.20899    35.79207    34.39945
   170  C   4.0   -0.05    4.19    3.97    60.68149    33.14153    35.40829
   171  C   4.0   -0.05    4.18    3.95    59.55178    33.22879    38.06838
   172  C   4.0   -0.02    4.16    3.92    59.95312    30.76744    39.48266
   173  N   5.0   -0.12    4.03    2.93    58.34042    28.68896    38.49074
   174  H   1.0    0.09    1.07    1.44    57.96858    34.64195    31.15915
   175  H   1.0    0.05    1.05    1.44    57.62835    37.37046    35.70482
   176  H   1.0    0.04    1.03    1.43    62.19592    35.67131    32.59678
   177  H   1.0    0.04    1.03    1.43    62.41699    36.78232    35.74037
   178  H   1.0    0.05    1.02    1.43    59.43367    32.13065    34.11705
   179  H   1.0    0.04    1.03    1.43    62.47278    32.12581    35.47671
   180  H   1.0    0.04    1.03    1.43    60.49508    34.70008    39.15768
   181  H   1.0    0.04    1.02    1.43    57.54798    33.69297    37.99566
   182  H   1.0    0.06    1.03    1.43    61.92345    30.17933    39.37288
   183  H   1.0    0.06    1.03    1.43    59.53810    30.94491    41.48700
   184  H   1.0    0.09    1.05    1.44    58.80745    27.11068    39.54685
   185  H   1.0    0.05    1.02    1.43    56.46321    29.10223    38.77553
   186  H   1.0    0.05    1.02    1.43    58.64083    28.34785    36.59647
   187  N   5.0   -0.20    3.20    1.96    54.08450    44.97404    33.64345
   188  C   4.0    0.03    4.19    3.98    52.74334    45.32961    36.03515
   189  C   4.0    0.08    3.20    3.04    53.44482    47.90031    37.18333
   190  O   6.0   -0.30    1.11    1.80    51.86373    49.49972    37.73156
   191  C   4.0   -0.04    4.31    4.21    53.38622    43.10162    37.78467
   192  C   4.0   -0.03    4.14    3.89    51.88019    42.82877    40.26824
   193  C   4.0   -0.07    4.09    3.78    52.60253    44.79805    42.25685
   194  C   4.0   -0.08    4.10    3.79    49.02784    42.86218    39.81409
   195  H   1.0    0.12    1.04    1.43    54.82243    43.23906    33.28995
   196  H   1.0    0.05    1.05    1.44    50.70639    45.39815    35.65235
   197  H   1.0    0.05    1.03    1.43    53.10278    41.38144    36.67627
   198  H   1.0    0.05    1.03    1.43    55.39619    43.20605    38.22498
   199  H   1.0    0.03    1.06    1.44    52.38693    40.96576    41.01757
   200  H   1.0    0.04    1.00    1.43    51.59028    44.44817    44.01197
   201  H   1.0    0.04    1.00    1.43    54.61750    44.74275    42.64891
   202  H   1.0    0.06    1.01    1.43    52.09518    46.68346    41.62644
   203  H   1.0    0.04    1.00    1.43    47.99409    42.36482    41.52117
   204  H   1.0    0.05    1.00    1.43    48.42394    44.74492    39.25736
   205  H   1.0    0.04    1.00    1.43    48.50052    41.52867    38.34004
   206  N   5.0   -0.20    3.13    1.94    47.12175    55.20212    56.58517
   207  C   4.0    0.00    4.16    3.91    49.70542    55.49934    55.75163
   208  C   4.0    0.15    3.30    3.05    50.37717    53.71393    53.57861
   209  O   6.0   -0.30    1.23    1.80    48.80824    52.46681    52.45459
   210  H   1.0    0.09    1.02    1.43    46.55325    53.44629    57.06264
   211  H   1.0    0.04    1.03    1.43    49.91091    57.46189    55.13425
   212  H   1.0    0.04    1.02    1.43    50.99906    55.17052    57.33377
   213  N   5.0   -0.14    3.47    2.06    52.86390    53.75518    52.99160
   214  C   4.0    0.03    4.41    4.40    54.00581    51.84840    51.39175
   215  C   4.0    0.14    3.41    3.08    55.30640    49.87742    53.07913
   216  O   6.0   -0.31    1.24    1.80    55.78134    50.31342    55.30162
   217  C   4.0   -0.05    4.26    4.12    55.94700    53.02744    49.58785
   218  C   4.0   -0.05    4.17    3.95    54.65732    54.54817    47.49840
   219  C   4.0   -0.01    4.20    4.00    56.50790    55.46290    45.46812
   220  N   5.0   -0.14    3.40    2.02    58.16505    57.46169    46.35368
   221  C   4.0    0.09    3.34    3.06    57.51483    59.86771    46.61805
   222  N   5.0   -0.19    3.26    1.97    55.20186    60.67472    46.06081
   223  N   5.0   -0.19    3.24    1.97    59.22880    61.50808    47.47698
   224  H   1.0    0.08    1.08    1.44    54.03987    54.48543    54.30992
   225  H   1.0    0.05    1.06    1.44    52.46087    50.95875    50.34616
   226  H   1.0    0.05    1.03    1.43    57.18918    54.23596    50.70060
   227  H   1.0    0.05    1.03    1.43    57.07514    51.51176    48.76633
   228  H   1.0    0.04    1.03    1.43    53.25196    53.35843    46.57979
   229  H   1.0    0.05    1.03    1.43    53.66473    56.13911    48.34632
   230  H   1.0    0.04    1.03    1.43    57.70041    53.89682    44.86962
   231  H   1.0    0.04    1.02    1.43    55.47689    56.11357    43.80145
   232  H   1.0    0.07    1.07    1.44    59.91409    56.94275    46.91479
   233  H   1.0    0.08    1.03    1.43    53.87549    59.51990    45.33365
   234  H   1.0    0.08    1.03    1.43    54.74781    62.51427    46.22895
   235  H   1.0    0.08    1.03    1.43    61.01665    60.97725    47.84051
   236  H   1.0    0.08    1.03    1.43    58.80473    63.34853    47.70324
   237  N   5.0   -0.14    3.49    2.07    55.89877    47.71056    51.92167
   238  C   4.0    0.03    4.51    4.55    57.21502    45.67491    53.19411
   239  C   4.0    0.14    3.51    3.12    60.04749    45.85046    52.57099
   240  O   6.0   -0.30    1.26    1.80    60.75389    46.43105    50.44705
   241  C   4.0   -0.03    4.33    4.26    56.15746    43.11133    52.29930
   242  C   4.0   -0.05    4.20    4.00    53.36206    42.95719    53.04464
   243  C   4.0   -0.08    4.14    3.88    57.70411    40.94124    53.40562
   244  C   4.0   -0.08    4.01    3.63    52.02201    40.54619    52.20334
   245  H   1.0    0.08    1.06    1.44    55.54910    47.47323    50.06193
   246  H   1.0    0.05    1.06    1.44    56.85271    45.94229    55.20802
   247  H   1.0    0.04    1.06    1.44    56.28290    43.06922    50.23773
   248  H   1.0    0.04    1.03    1.43    53.19230    43.15462    55.08754
   249  H   1.0    0.05    1.03    1.43    52.36658    44.57869    52.24873
   250  H   1.0    0.03    1.00    1.43    56.85758    39.15095    52.88217
   251  H   1.0    0.06    1.00    1.43    59.63185    40.96166    52.70044
   252  H   1.0    0.03    1.01    1.43    57.77853    41.13067    55.44372
   253  H   1.0    0.04    1.00    1.43    50.01983    40.73003    52.62303
   254  H   1.0    0.03    1.00    1.43    52.23221    40.21573    50.18765
   255  H   1.0    0.03    1.00    1.43    52.71089    38.88927    53.19934
   256  N   5.0   -0.10    3.66    2.22    61.71023    45.23683    54.38580
   257  C   4.0    0.03    4.48    4.51    64.41628    45.28786    53.82684
   258  C   4.0    0.08    3.20    3.04    65.19114    43.26783    51.88630
   259  O   6.0   -0.31    1.12    1.80    64.40728    41.10770    51.88604
   260  C   4.0   -0.05    4.35    4.29    65.68346    44.78290    56.39361
   261  C   4.0   -0.05    4.28    4.15    63.61800    43.44515    57.90027
   262  C   4.0   -0.02    4.38    4.34    61.29437    44.93298    57.08527
   263  H   1.0    0.04    1.05    1.44    64.89470    47.15174    53.06966
   264  H   1.0    0.04    1.02    1.43    67.40422    43.67426    56.22309
   265  H   1.0    0.03    1.03    1.43    66.13571    46.57793    57.29194
   266  H   1.0    0.04    1.03    1.43    63.44598    41.48215    57.30298
   267  H   1.0    0.03    1.02    1.43    63.93493    43.51159    59.92731
   268  H   1.0    0.03    1.02    1.43    59.52518    43.98203    57.47941
   269  H   1.0    0.04    1.02    1.43    61.26390    46.78567    58.01805
   270  N   5.0   -0.21    3.22    1.96    68.67456    35.40849    52.58588
   271  C   4.0    0.03    4.25    4.09    67.15527    33.13024    52.62736
   272  C   4.0    0.14    3.46    3.10    65.82562    32.79502    50.09306
   273  O   6.0   -0.34    1.39    1.80    65.89995    30.74365    48.98188
   274  C   4.0   -0.08    4.11    3.82    65.20531    33.19351    54.74009
   275  H   1.0    0.08    1.03    1.43    68.18319    36.84550    53.73673
   276  H   1.0    0.04    1.05    1.44    68.40491    31.48936    52.84074
   277  H   1.0    0.04    1.00    1.43    64.09841    31.46265    54.68349
   278  H   1.0    0.04    1.00    1.43    66.14964    33.28783    56.56001
   279  H   1.0    0.04    1.00    1.43    63.95852    34.80387    54.49268
   280  N   5.0   -0.15    3.45    2.05    64.53985    34.76254    49.23001
   281  C   4.0    0.03    4.33    4.26    62.97639    34.58160    46.98520
   282  C   4.0    0.09    3.30    3.05    64.26624    33.13576    44.84023
   283  O   6.0   -0.30    1.16    1.80    63.14879    31.45944    43.71032
   284  C   4.0   -0.05    4.37    4.32    62.26157    37.18441    45.95724
   285  C   4.0   -0.02    4.17    3.94    60.38348    38.67052    47.58481
   286  C   4.0   -0.07    4.11    3.82    60.02770    41.28486    46.40934
   287  C   4.0   -0.08    4.10    3.80    57.85026    37.28934    47.78557
   288  H   1.0    0.09    1.07    1.44    64.53529    36.42005    50.18861
   289  H   1.0    0.05    1.06    1.44    61.28221    33.49070    47.45617
   290  H   1.0    0.04    1.03    1.43    64.01091    38.24425    45.72100
   291  H   1.0    0.04    1.04    1.43    61.41371    36.89755    44.10122
   292  H   1.0    0.05    1.06    1.44    61.18757    38.92098    49.46825
   293  H   1.0    0.05    1.00    1.43    58.86716    42.45611    47.62454
   294  H   1.0    0.05    1.00    1.43    61.82527    42.25075    46.18716
   295  H   1.0    0.04    1.00    1.43    59.13925    41.14044    44.56650
   296  H   1.0    0.03    1.00    1.43    56.41689    38.51737    48.58681
   297  H   1.0    0.04    1.00    1.43    57.20573    36.70030    45.92702
   298  H   1.0    0.03    1.00    1.43    57.98598    35.61166    48.96440
   299  N   5.0   -0.19    3.28    1.98    68.20290    29.14032    44.34095
   300  C   4.0    0.04    4.31    4.22    68.35503    26.47307    44.83407
   301  C   4.0    0.16    3.43    3.09    65.73405    25.22080    44.97686
   302  O   6.0   -0.27    1.24    1.80    65.23023    23.25872    43.84460
   303  C   4.0    0.03    4.17    3.95    69.72048    26.04510    47.34637
   304  O   6.0   -0.26    2.05    1.83    72.25513    26.79605    47.09083
   305  H   1.0    0.11    1.06    1.44    67.89075    30.26007    45.85899
   306  H   1.0    0.06    1.05    1.44    69.39342    25.58064    43.28319
   307  H   1.0    0.05    1.01    1.43    68.75812    27.17092    48.79982
   308  H   1.0    0.05    1.01    1.43    69.55583    24.03853    47.86121
   309  H   1.0    0.12    1.02    1.43    73.10414    26.63295    48.69706
   310  N   5.0   -0.12    3.53    2.10    64.11562    26.47386    46.43747
   311  C   4.0    0.04    4.43    4.42    61.62867    25.52620    47.08437
   312  C   4.0    0.17    3.49    3.11    60.40942    24.45659    44.66984
   313  O   6.0   -0.29    1.27    1.80    59.88917    25.79115    42.84472
   314  C   4.0   -0.04    4.29    4.17    60.09631    27.69238    48.25794
   315  C   4.0   -0.04    4.03    3.68    60.95907    28.44346    50.91310
   316  S   6.0   -0.04    2.53    3.10    61.15766    25.83841    53.25736
   317  C   4.0   -0.07    3.87    3.42    59.16627    27.16350    55.76342
   318  H   1.0    0.11    1.13    1.45    64.73761    28.01214    47.40201
   319  H   1.0    0.05    1.07    1.44    61.82460    23.94816    48.42657
   320  H   1.0    0.06    1.03    1.43    60.34024    29.31173    47.00004
   321  H   1.0    0.04    1.03    1.43    58.10598    27.17071    48.29786
   322  H   1.0    0.06    1.10    1.44    62.87125    29.16969    50.87462
   323  H   1.0    0.04    1.07    1.44    59.67735    29.84664    51.69234
   324  H   1.0    0.05    1.05    1.44    59.05854    25.69871    57.19605
   325  H   1.0    0.04    1.03    1.43    60.07171    28.83077    56.53799
   326  H   1.0    0.04    1.03    1.43    57.28085    27.54557    55.04975
   327  N   5.0   -0.12    3.50    2.08    59.88599    21.99398    44.73089
   328  C   4.0    0.04    4.43    4.43    58.76510    20.73610    42.58137
   329  C   4.0    0.15    3.51    3.12    56.04211    21.59817    42.26946
   330  O   6.0   -0.31    1.43    1.80    54.96243    22.83717    43.90623
   331  C   4.0   -0.03    4.27    4.14    58.85092    17.87488    42.93659
   332  C   4.0    0.26    3.09    3.02    61.16044    16.70937    41.47222
   333  O   6.0   -0.29    1.18    1.80    61.44604    17.46403    39.26477
   334  O   6.0   -0.27    1.16    1.80    62.43248    15.12291    42.63830
   335  H   1.0    0.11    1.09    1.44    60.32673    20.91739    46.26249
   336  H   1.0    0.07    1.06    1.44    59.84638    21.22743    40.87335
   337  H   1.0    0.07    1.03    1.43    59.04346    17.38193    44.92801
   338  H   1.0    0.04    1.03    1.43    57.15269    16.95733    42.19835
   339  N   5.0   -0.15    3.45    2.05    54.81435    20.90352    40.16766
   340  C   4.0    0.03    4.34    4.27    52.09464    21.33680    39.98659
   341  C   4.0    0.16    3.53    3.13    50.82138    20.93138    42.55671
   342  O   6.0   -0.31    1.26    1.80    49.27697    22.41818    43.42981
   343  C   4.0   -0.07    4.10    3.81    50.89951    19.61903    38.00679
   344  H   1.0    0.08    1.06    1.44    55.67824    19.85069    38.82801
   345  H   1.0    0.04    1.05    1.44    51.76022    23.31687    39.46888
   346  H   1.0    0.05    1.00    1.43    48.89012    20.00261    37.82797
   347  H   1.0    0.04    1.00    1.43    51.77458    19.92999    36.17608
   348  H   1.0    0.05    1.00    1.43    51.09928    17.63128    38.48575
   349  N   5.0   -0.14    3.53    2.10    51.40949    18.77805    43.76504
   350  C   4.0    0.03    4.44    4.45    50.03020    18.05956    46.02039
   351  C   4.0    0.16    3.48    3.10    50.49074    19.94163    48.16245
   352  O   6.0   -0.32    1.33    1.80    48.76995    20.69223    49.54851
   353  C   4.0   -0.05    4.37    4.32    50.79263    15.46120    47.04092
   354  C   4.0   -0.02    4.18    3.95    51.06107    13.36313    45.05387
   355  C   4.0   -0.08    4.11    3.82    51.50909    10.85542    46.41453
   356  C   4.0   -0.07    4.12    3.83    48.70817    13.19754    43.39570
   357  H   1.0    0.07    1.07    1.44    52.59388    17.51389    42.97646
   358  H   1.0    0.05    1.05    1.44    48.00725    18.08427    45.56017
   359  H   1.0    0.05    1.03    1.43    52.56194    15.65414    48.09262
   360  H   1.0    0.04    1.03    1.43    49.34003    14.90622    48.39478
   361  H   1.0    0.04    1.05    1.44    52.71862    13.72400    43.86255
   362  H   1.0    0.04    1.00    1.43    51.79157     9.35089    45.04723
   363  H   1.0    0.05    1.00    1.43    53.17577    10.95510    47.61494
   364  H   1.0    0.04    1.00    1.43    49.88954    10.38739    47.58751
   365  H   1.0    0.05    1.00    1.43    48.92992    11.78640    41.91969
   366  H   1.0    0.04    1.00    1.43    47.10495    12.67113    44.56295
   367  H   1.0    0.04    1.00    1.43    48.28271    14.97740    42.46242
   368  N   5.0   -0.13    3.57    2.13    52.86980    20.65199    48.45823
   369  C   4.0    0.04    4.43    4.42    53.75403    22.42256    50.35607
   370  C   4.0    0.15    3.45    3.10    52.51766    24.99830    49.92252
   371  O   6.0   -0.32    1.29    1.80    51.70487    26.29457    51.67010
   372  C   4.0   -0.03    4.32    4.24    56.60627    22.56368    50.17047
   373  C   4.0    0.25    3.12    3.03    57.86031    19.97253    50.84057
   374  O   6.0   -0.28    1.17    1.80    57.15266    18.92889    52.82223
   375  O   6.0   -0.30    1.20    1.80    59.49762    19.18436    49.32557
   376  H   1.0    0.09    1.09    1.44    54.15951    20.07485    47.17681
   377  H   1.0    0.07    1.05    1.44    53.26231    21.76996    52.26383
   378  H   1.0    0.06    1.04    1.43    57.17100    23.09612    48.26763
   379  H   1.0    0.05    1.09    1.44    57.31043    23.91516    51.55066
   380  N   5.0   -0.14    3.52    2.09    52.44501    25.73185    47.52294
   381  C   4.0    0.04    4.42    4.41    51.00682    27.90721    46.70925
   382  C   4.0    0.16    3.50    3.11    48.22859    27.72302    47.41407
   383  O   6.0   -0.33    1.35    1.80    47.02273    29.67024    47.61638
   384  C   4.0   -0.04    4.35    4.29    51.29219    28.28794    43.85285
   385  C   4.0   -0.02    4.18    3.97    49.90348    30.61007    42.79164
   386  C   4.0   -0.08    4.10    3.79    50.96856    33.10056    43.79531
   387  C   4.0   -0.08    4.11    3.81    50.03783    30.56732    39.90825
   388  H   1.0    0.12    1.13    1.45    53.17272    24.58339    46.17869
   389  H   1.0    0.05    1.06    1.44    51.70856    29.58074    47.70957
   390  H   1.0    0.05    1.03    1.43    53.31345    28.41680    43.46885
   391  H   1.0    0.06    1.04    1.43    50.56603    26.58632    42.94323
   392  H   1.0    0.05    1.06    1.44    47.91667    30.48706    43.34019
   393  H   1.0    0.03    1.00    1.43    49.99713    34.67047    42.89513
   394  H   1.0    0.04    1.00    1.43    50.66659    33.25508    45.81822
   395  H   1.0    0.03    1.00    1.43    52.97615    33.24564    43.39914
   396  H   1.0    0.03    1.00    1.43    48.88467    32.08157    39.14682
   397  H   1.0    0.03    1.00    1.43    51.97142    30.83085    39.27537
   398  H   1.0    0.04    1.00    1.43    49.32508    28.79722    39.14608
   399  N   5.0   -0.13    3.51    2.08    47.13876    25.46501    47.75744
   400  C   4.0    0.04    4.51    4.55    44.54287    25.47646    48.62611
   401  C   4.0    0.16    3.47    3.10    44.50969    25.96044    51.46979
   402  O   6.0   -0.32    1.33    1.80    43.47343    27.82882    52.36270
   403  C   4.0    0.05    4.21    4.02    42.97472    23.14480    47.87108
   404  O   6.0   -0.26    2.12    1.84    43.54440    20.95812    49.27179
   405  C   4.0   -0.07    4.08    3.76    43.17338    22.70248    45.02407
   406  H   1.0    0.12    1.10    1.44    48.13440    23.84644    47.74795
   407  H   1.0    0.06    1.08    1.44    43.66829    27.12955    47.73499
   408  H   1.0    0.05    1.04    1.43    41.00458    23.55976    48.36876
   409  H   1.0    0.15    1.06    1.44    45.32458    20.55477    49.07241
   410  H   1.0    0.04    1.00    1.43    42.32123    20.88691    44.59958
   411  H   1.0    0.04    1.00    1.43    42.19037    24.17474    43.98655
   412  H   1.0    0.07    1.01    1.43    45.13379    22.66406    44.41525
   413  N   5.0   -0.14    3.50    2.08    45.74771    24.29303    52.88538
   414  C   4.0    0.04    4.43    4.43    45.78181    24.54352    55.61548
   415  C   4.0    0.17    3.53    3.13    46.39343    27.26430    56.38411
   416  O   6.0   -0.29    1.26    1.80    45.10887    28.44232    57.90586
   417  C   4.0   -0.03    4.27    4.13    47.67960    22.71804    56.75395
   418  C   4.0    0.26    3.11    3.03    47.84233    23.04168    59.70128
   419  O   6.0   -0.28    1.17    1.80    45.84586    22.77348    60.90028
   420  O   6.0   -0.28    1.16    1.80    49.97770    23.52126    60.56617
   421  H   1.0    0.11    1.09    1.44    46.63890    22.80267    52.09046
   422  H   1.0    0.06    1.05    1.44    43.90071    24.12479    56.38594
   423  H   1.0    0.05    1.02    1.43    47.09571    20.77426    56.37411
   424  H   1.0    0.06    1.02    1.43    49.55312    23.02533    55.95156
   425  N   5.0   -0.13    3.51    2.08    48.42734    28.29368    55.29684
   426  C   4.0    0.04    4.44    4.45    49.29240    30.73486    56.18659
   427  C   4.0    0.16    3.41    3.08    47.44725    32.82503    55.35823
   428  O   6.0   -0.32    1.27    1.80    46.75540    34.44298    56.86568
   429  C   4.0   -0.05    4.25    4.10    52.03669    31.21998    55.41452
   430  C   4.0   -0.05    4.20    3.99    53.21198    33.29171    57.05269
   431  C   4.0   -0.06    4.16    3.92    55.89007    33.92752    56.16061
   432  C   4.0   -0.04    4.11    3.82    57.30724    35.65766    57.98216
   433  N   5.0   -0.12    4.02    2.93    55.75865    37.89561    58.73454
   434  H   1.0    0.11    1.11    1.45    49.52415    27.30118    54.08448
   435  H   1.0    0.06    1.06    1.44    49.18244    30.69196    58.26149
   436  H   1.0    0.05    1.03    1.43    53.05465    29.44411    55.67916
   437  H   1.0    0.05    1.02    1.43    52.13023    31.70756    53.41565
   438  H   1.0    0.04    1.03    1.43    51.97418    34.93596    56.93004
   439  H   1.0    0.04    1.03    1.43    53.22869    32.61594    59.00171
   440  H   1.0    0.03    1.03    1.43    56.97034    32.18241    55.99122
   441  H   1.0    0.03    1.03    1.43    55.78134    34.75819    54.28045
   442  H   1.0    0.04    1.02    1.43    57.81084    34.62382    59.69031
   443  H   1.0    0.03    1.02    1.43    59.03405    36.31949    57.07313
   444  H   1.0    0.05    1.02    1.43    56.86232    39.13032    59.76031
   445  H   1.0    0.05    1.02    1.43    55.02044    38.79707    57.16223
   446  H   1.0    0.05    1.02    1.43    54.26857    37.33321    59.85480
   447  N   5.0   -0.14    3.47    2.06    46.76125    32.82710    52.92832
   448  C   4.0    0.03    4.37    4.33    45.03720    34.68381    51.81105
   449  C   4.0    0.16    3.46    3.10    42.58458    34.89577    53.31229
   450  O   6.0   -0.32    1.29    1.80    41.76960    36.94278    54.03201
   451  C   4.0   -0.04    4.39    4.36    44.56200    33.83576    49.07869
   452  C   4.0   -0.03    4.14    3.89    42.99979    35.40479    47.20125
   453  C   4.0   -0.07    4.09    3.79    40.29124    35.88094    48.07655
   454  C   4.0   -0.08    4.09    3.78    44.34652    37.83608    46.43155
   455  H   1.0    0.10    1.08    1.44    47.18951    31.31542    51.84093
   456  H   1.0    0.04    1.05    1.44    45.96702    36.53234    51.87941
   457  H   1.0    0.06    1.05    1.44    46.41871    33.59497    48.22727
   458  H   1.0    0.06    1.04    1.43    43.71290    31.96245    49.18190
   459  H   1.0    0.04    1.06    1.44    42.88550    34.20082    45.51765
   460  H   1.0    0.04    1.00    1.43    39.20413    36.81347    46.60081
   461  H   1.0    0.04    1.00    1.43    39.35387    34.10292    48.52229
   462  H   1.0    0.05    1.01    1.43    40.23400    37.06539    49.74916
   463  H   1.0    0.04    1.00    1.43    43.14590    38.94600    45.18854
   464  H   1.0    0.04    1.01    1.43    44.78937    38.96713    48.07358
   465  H   1.0    0.03    1.00    1.43    46.08707    37.40698    45.43161
   466  N   5.0   -0.15    3.51    2.09    41.37573    32.71647    53.68425
   467  C   4.0    0.04    4.51    4.55    38.91615    32.62532    54.86547
   468  C   4.0    0.16    3.48    3.11    38.92529    33.55418    57.60652
   469  O   6.0   -0.28    1.25    1.80    37.00318    34.34392    58.61208
   470  C   4.0   -0.02    4.26    4.12    37.78677    29.94598    54.76479
   471  C   4.0   -0.06    4.14    3.89    39.29846    28.14725    56.44152
   472  C   4.0   -0.07    4.12    3.85    35.00607    30.07605    55.55223
   473  H   1.0    0.11    1.10    1.44    42.18929    31.07799    53.12007
   474  H   1.0    0.06    1.06    1.44    37.65090    33.91609    53.84209
   475  H   1.0    0.04    1.05    1.44    37.91247    29.29440    52.80410
   476  H   1.0    0.05    1.00    1.43    38.76716    26.19305    56.10451
   477  H   1.0    0.08    1.02    1.43    41.31337    28.27014    56.07855
   478  H   1.0    0.05    1.01    1.43    39.03891    28.62478    58.41918
   479  H   1.0    0.04    1.00    1.43    34.11515    28.23097    55.52125
   480  H   1.0    0.06    1.01    1.43    34.82742    30.87946    57.43439
   481  H   1.0    0.04    1.00    1.43    33.92799    31.28969    54.29049
   482  N   5.0   -0.14    3.52    2.09    41.11411    33.30835    58.86214
   483  C   4.0    0.05    4.41    4.40    41.32596    34.19310    61.43564
   484  C   4.0    0.17    3.39    3.08    41.82360    37.06184    61.49803
   485  O   6.0   -0.26    1.20    1.80    40.76510    38.47693    62.99071
   486  C   4.0    0.04    4.14    3.89    43.39680    32.70021    62.79841
   487  O   6.0   -0.24    2.05    1.83    43.36599    33.30939    65.38484
   488  H   1.0    0.10    1.07    1.44    42.66323    32.58832    58.01074
   489  H   1.0    0.07    1.06    1.44    39.51539    33.89366    62.39371
   490  H   1.0    0.06    1.01    1.43    43.04620    30.67874    62.48537
   491  H   1.0    0.06    1.01    1.43    45.22395    33.16917    61.93335
   492  H   1.0    0.12    1.02    1.43    44.42695    32.13266    66.29227
   493  N   5.0   -0.13    3.51    2.08    43.51401    37.80881    59.78407
   494  C   4.0    0.04    4.42    4.41    44.46605    40.36439    59.52460
   495  C   4.0    0.16    3.44    3.09    42.44962    42.26112    58.67627
   496  O   6.0   -0.28    1.21    1.80    42.16285    44.30135    59.73093
   497  C   4.0   -0.03    4.38    4.34    46.59116    40.29853    57.55655
   498  C   4.0   -0.02    3.58    3.16    47.91659    42.79322    57.39915
   499  C   4.0   -0.05    3.47    3.10    50.00196    43.27893    58.91536
   500  C   4.0   -0.03    3.49    3.11    47.05623    44.66558    55.77679
   501  C   4.0   -0.04    3.38    3.07    51.22003    45.58781    58.79102
   502  C   4.0   -0.03    3.38    3.07    48.28507    46.96465    55.63155
   503  C   4.0   -0.03    3.38    3.07    50.37497    47.42708    57.13362
   504  H   1.0    0.11    1.12    1.45    44.30800    36.49336    58.63959
   505  H   1.0    0.06    1.05    1.44    45.13520    41.02520    61.37386
   506  H   1.0    0.05    1.03    1.43    47.88600    38.78352    58.07758
   507  H   1.0    0.05    1.04    1.43    45.72858    39.81000    55.75043
   508  H   1.0    0.05    1.03    1.43    50.61965    41.83311    60.20817
   509  H   1.0    0.06    1.05    1.44    45.41924    44.30900    54.62829
   510  H   1.0    0.05    1.03    1.43    52.82699    45.96971    59.98366
   511  H   1.0    0.07    1.03    1.43    47.59995    48.39078    54.34420
   512  H   1.0    0.07    1.03    1.43    51.36090    49.20536    56.99748
   513  N   5.0   -0.13    3.54    2.10    41.21723    41.58341    56.57659
   514  C   4.0    0.04    4.32    4.23    39.05106    42.96253    55.66806
   515  C   4.0    0.08    3.21    3.04    36.64754    41.70639    56.71081
   516  O   6.0   -0.25    1.14    1.80    36.58401    39.50176    57.37379
   517  C   4.0   -0.04    4.31    4.22    38.98500    42.93345    52.75537
   518  C   4.0   -0.02    3.55    3.14    41.26649    44.16846    51.59085
   519  C   4.0   -0.05    3.49    3.11    43.31747    42.72117    50.82136
   520  C   4.0   -0.05    3.46    3.10    41.41203    46.76799    51.27007
   521  C   4.0   -0.05    3.44    3.09    45.44248    43.80687    49.76493
   522  C   4.0   -0.05    3.44    3.09    43.52636    47.87955    50.21873
   523  C   4.0    0.07    3.45    3.09    45.56864    46.41496    49.44713
   524  O   6.0   -0.25    2.11    1.84    47.66281    47.44084    48.39105
   525  H   1.0    0.12    1.12    1.45    41.38016    39.79262    55.90989
   526  H   1.0    0.06    1.06    1.44    39.20673    44.89137    56.40244
   527  H   1.0    0.05    1.03    1.43    38.89214    40.95884    52.17021
   528  H   1.0    0.03    1.03    1.43    37.25871    43.86886    52.12673
   529  H   1.0    0.05    1.03    1.43    43.19647    40.70631    51.09826
   530  H   1.0    0.05    1.03    1.43    39.83404    47.91742    51.84986
   531  H   1.0    0.05    1.03    1.43    47.04606    42.68324    49.19876
   532  H   1.0    0.06    1.03    1.43    43.62492    49.90571    49.99878
   533  H   1.0    0.13    1.04    1.43    47.50820    49.26653    48.35452
   534  N   5.0   -0.21    3.19    1.95    29.54164    38.69282    56.23711
   535  C   4.0    0.03    4.21    4.02    28.57455    36.84529    54.44435
   536  C   4.0    0.08    3.20    3.04    26.93574    38.16033    52.43518
   537  O   6.0   -0.30    1.12    1.80    27.49471    38.07962    50.19497
   538  C   4.0   -0.04    4.24    4.09    27.23180    34.69811    55.82124
   539  C   4.0   -0.03    4.18    3.96    25.99237    32.85000    53.98571
   540  C   4.0    0.25    3.09    3.02    25.16973    30.38897    55.40458
   541  O   6.0   -0.29    1.16    1.80    23.59331    30.62722    57.14414
   542  O   6.0   -0.31    1.17    1.80    26.20403    28.39913    54.72022
   543  H   1.0    0.09    1.02    1.43    28.91551    38.64200    58.03747
   544  H   1.0    0.05    1.06    1.44    30.18118    36.07871    53.38042
   545  H   1.0    0.05    1.03    1.43    28.63135    33.69254    56.96088
   546  H   1.0    0.05    1.03    1.43    25.80242    35.45484    57.09818
   547  H   1.0    0.05    1.02    1.43    24.32570    33.70081    53.11203
   548  H   1.0    0.05    1.02    1.43    27.30075    32.31711    52.47995
   549  N   5.0   -0.20    3.12    1.94    30.78434    42.40365    48.73112
   550  C   4.0    0.01    4.06    3.73    32.57477    40.80229    47.43573
   551  C   4.0    0.08    3.11    3.03    31.51741    39.77697    44.96494
   552  O   6.0   -0.30    1.12    1.80    32.78098    39.82130    43.00970
   553  H   1.0    0.09    1.03    1.43    30.49066    41.96124    50.56819
   554  H   1.0    0.04    1.02    1.43    34.30153    41.85121    46.99202
   555  H   1.0    0.05    1.03    1.43    33.03826    39.25045    48.70724
   556  N   5.0   -0.20    3.21    1.96    31.87236    45.07705    40.37528
   557  C   4.0    0.03    4.21    4.02    34.51512    45.55678    39.82587
   558  C   4.0    0.08    3.20    3.04    35.47629    43.69859    37.82957
   559  O   6.0   -0.30    1.11    1.80    36.75867    44.36406    36.02275
   560  C   4.0   -0.05    4.34    4.28    36.04425    45.36752    42.27904
   561  C   4.0   -0.02    4.16    3.93    38.73342    46.44404    42.10969
   562  C   4.0   -0.08    4.10    3.81    38.70744    49.30420    41.70987
   563  C   4.0   -0.08    4.11    3.81    40.16084    45.82540    44.54598
   564  H   1.0    0.09    1.03    1.43    31.32900    45.04626    42.21167
   565  H   1.0    0.04    1.05    1.44    34.69024    47.45001    39.00400
   566  H   1.0    0.04    1.03    1.43    35.00845    46.38915    43.74448
   567  H   1.0    0.05    1.03    1.43    36.11222    43.38025    42.83293
   568  H   1.0    0.05    1.05    1.44    39.69810    45.55002    40.51298
   569  H   1.0    0.04    1.00    1.43    40.62401    50.03733    41.66526
   570  H   1.0    0.04    1.00    1.43    37.80915    49.81860    39.93728
   571  H   1.0    0.04    1.00    1.43    37.69452    50.22420    43.23895
   572  H   1.0    0.04    1.00    1.43    42.06169    46.59286    44.47262
   573  H   1.0    0.04    1.00    1.43    39.19316    46.64324    46.16305
   574  H   1.0    0.04    1.00    1.43    40.29564    43.79842    44.84870
   575  H   1.0    0.10    1.07    1.44    26.99263    25.50648    49.72405
   576  H   1.0    0.05    1.05    1.44    30.33526    20.42106    48.47152
   577  H   1.0    0.09    1.07    1.44    29.80607    23.59715    41.02770
   578  H   1.0    0.05    1.05    1.44    36.20552    17.51705    37.87695
   579  H   1.0    0.09    1.07    1.44    34.23346    20.34409    33.50949
   580  H   1.0    0.06    1.05    1.44    40.96644    15.97569    25.78681
   581  H   1.0    0.09    1.08    1.44    42.39707    19.84362    22.51452
   582  H   1.0    0.05    1.05    1.44    49.76992    19.27254    20.55725
   583  H   1.0    0.09    1.07    1.44    55.02810    27.09504    24.19778
   584  H   1.0    0.05    1.05    1.44    59.91394    28.66317    27.28523
   585  H   1.0    0.09    1.07    1.44    55.99232    36.25095    25.60129
   586  H   1.0    0.05    1.05    1.44    60.45527    40.55670    31.92124
   587  H   1.0    0.10    1.07    1.44    53.02695    45.28388    32.34802
   588  H   1.0    0.06    1.05    1.44    55.25644    48.32528    37.51277
   589  H   1.0    0.09    1.07    1.44    46.85878    56.15426    57.96967
   590  H   1.0    0.05    1.05    1.44    66.41508    43.69790    50.51223
   591  H   1.0    0.09    1.07    1.44    70.27537    35.03130    53.01915
   592  H   1.0    0.05    1.05    1.44    66.04151    33.55850    44.34954
   593  H   1.0    0.10    1.08    1.44    69.66441    29.67511    43.65498
   594  H   1.0    0.05    1.05    1.44    35.05102    42.70530    56.86698
   595  H   1.0    0.11    1.07    1.44    31.22965    38.52955    56.36566
   596  H   1.0    0.05    1.04    1.44    25.38164    39.10280    52.95249
   597  H   1.0    0.09    1.07    1.44    31.33444    44.01265    48.69846
   598  H   1.0    0.06    1.04    1.44    29.77253    39.05332    44.91195
   599  H   1.0    0.09    1.07    1.44    30.91422    46.28098    39.65067
   600  H   1.0    0.06    1.05    1.44    35.06139    41.86049    37.97209

  Z AO/shell   Hii/eV     exponent
  1     Wed Apr 25 08:07:45 CEST 2018   EN: 2.200 GM2: 0.406  GM3: 0.0800  RAES: 1.40
     1s    -10.707211    1.230000
  6     Wed Apr 25 08:07:45 CEST 2018   EN: 2.550 GM2: 0.538  GM3: 0.1500  RAES: 3.00
     2s    -13.970922    2.096432
     2p    -10.063292    1.800000
  7     Wed Apr 25 08:07:45 CEST 2018   EN: 3.040 GM2: 0.461  GM3:-0.0640  RAES: 1.90
     2s    -16.686243    2.339881
     2p    -12.523956    2.014332
  8     Wed Apr 25 08:07:45 CEST 2018   EN: 3.440 GM2: 0.452  GM3:-0.0517  RAES: 1.80
     2s    -20.229985    2.439742
     2p    -15.503117    2.137023
 16     Tue Apr 24 11:44:34 CEST 2018   EN: 2.580 GM2: 0.340  GM3:-0.0502  RAES: 3.10
     3s    -20.029654    1.981333
     3p    -11.377694    2.025643
     3d     -0.420282    1.702555
 no old-style atom pair restraining (fixing) potential

molecular fragmentation (1/2 indicates fragments):
111111111111111111111111222222222222222222222222222222222222222222222222
222222222222222222222222222222222222222222222222222222222222222222222222
222222222222222222222222222222222222222222222222222222222222222222222222
222222222222222222222222222222222222222222222222222222222222222222222222
222222222222222222222222222222222222222222222222222222222222222222222222
222222222222222222222222222222222222222222222222222222222222222222222222
222222222222222222222222222222222222222222222222222222222222222222222222
222222222222222222222222222222222222222222222222222222222222222222222211
222222222222222222222222
# atoms in fragment 1/2:    26   574
 fragment masses (1/2) :      159.21     3783.68
CMA distance (Bohr)    :  20.599
constraining FC (au)   :  0.0500
           ------------------------------------------------- 
          |        Self-Consistent Charge Iterations        |
           ------------------------------------------------- 

 Ncao       : 1434
 Nao        : 1433
 Nshell     : 877
 Nel        : 1572
 T(el)      :   500.0
 intcut     :    35.0
 scfconv/Eh :  0.100E-06
   qconv/e  :  0.100E-04
 intneglect :  0.100E-08
 broydamp   :      0.400
 iter      E             dE          RMSdq      gap      omega  full diag
   1   -894.6475042 -0.894648E+03  0.448E+00    3.15       0.0  T
   2   -896.7294499 -0.208195E+01  0.211E+00    1.99       1.0  T
   3   -896.8631811 -0.133731E+00  0.121E+00    2.12       1.0  T
   4   -897.0092264 -0.146045E+00  0.255E-01    1.44       1.0  T
   5   -897.0171133 -0.788695E-02  0.133E-01    1.57       1.0  T
   6   -897.0185208 -0.140753E-02  0.592E-02    1.52       1.0  T
   7   -897.0190104 -0.489572E-03  0.276E-02    1.47       1.0  T
   8   -897.0190918 -0.813572E-04  0.138E-02    1.44       1.0  T
   9   -897.0191199 -0.281811E-04  0.685E-03    1.43       1.0  T
  10   -897.0191255 -0.556788E-05  0.297E-03    1.43       1.4  T
  11   -897.0191267 -0.121149E-05  0.142E-03    1.43       2.9  T
  12   -897.0191270 -0.252300E-06  0.659E-04    1.42       6.2  T
  13   -897.0191270 -0.623471E-07  0.357E-04    1.42      11.5  T
  14   -897.0191271 -0.168272E-07  0.147E-04    1.42      27.8  T
  15   -897.0191271 -0.401826E-08  0.694E-05    1.42      58.8  T
  16   -897.0191271 -0.614705E-09  0.328E-05    1.42     124.4  T
speedup  1.00
cpu  time for SCC   17.46 s
wall time for SCC   17.45 s

   *** convergence criteria satisfied after 16 iterations ***

          eigenvalues
 #    :         774        775        776        777        778        779        780        781
 occ. :        2.000      2.000      2.000      2.000      2.000      2.000      2.000      2.000
 eps  :       -10.003     -9.987     -9.949     -9.926     -9.875     -9.830     -9.776     -9.772
 #    :         782        783        784        785        786        787        788        789
 occ. :        2.000      2.000      2.000      2.000      2.000      0.000      0.000      0.000
 eps  :        -9.767     -9.759     -9.601     -9.565     -9.381     -7.956     -7.928     -7.855
 #    :         790        791        792        793        794        795        796        797
 occ. :        0.000      0.000      0.000      0.000      0.000      0.000      0.000      0.000
 eps  :        -7.781     -7.750     -7.714     -7.590     -7.556     -7.510     -7.440     -7.343


   #   Z            q   n(s)   n(p)   n(d)      C6AA      α(0)
   1   7 N     -0.383  1.300  4.083  0.000    29.911     8.123
   2   6 C      0.042  1.054  2.904  0.000    19.885     6.352
   3   6 C      0.192  1.096  2.712  0.000    23.897     8.006
   4   8 O     -0.369  1.753  4.616  0.000    21.068     6.154
   5   6 C     -0.073  1.058  3.015  0.000    21.894     6.661
   6   6 C     -0.086  1.050  3.035  0.000    22.131     6.698
   7   6 C     -0.026  1.052  2.973  0.000    21.111     6.556
   8   7 N     -0.141  1.208  3.933  0.000    24.060     7.285
   9   6 C      0.233  1.019  2.748  0.000    23.122     7.873
  10   7 N     -0.246  1.229  4.016  0.000    26.404     7.632
  11   7 N     -0.256  1.231  4.025  0.000    26.648     7.667
  12   1 H      0.169  0.831  0.000  0.000     1.279     1.772
  13   1 H      0.048  0.952  0.000  0.000     2.350     2.397
  14   1 H      0.052  0.948  0.000  0.000     2.300     2.372
  15   1 H      0.067  0.933  0.000  0.000     2.117     2.275
  16   1 H      0.078  0.922  0.000  0.000     1.997     2.210
  17   1 H      0.061  0.939  0.000  0.000     2.188     2.313
  18   1 H      0.087  0.913  0.000  0.000     1.909     2.161
  19   1 H      0.093  0.907  0.000  0.000     1.850     2.127
  20   1 H      0.207  0.793  0.000  0.000     1.073     1.622
  21   1 H      0.254  0.746  0.000  0.000     0.867     1.459
  22   1 H      0.258  0.742  0.000  0.000     0.855     1.448
  23   1 H      0.226  0.774  0.000  0.000     0.984     1.554
  24   1 H      0.253  0.747  0.000  0.000     0.872     1.463
  25   7 N     -0.395  1.307  4.088  0.000    30.227     8.165
  26   6 C      0.032  1.059  2.909  0.000    20.047     6.377
  27   6 C      0.265  1.051  2.684  0.000    22.522     7.772
  28   8 O     -0.487  1.749  4.738  0.000    23.489     6.498
  29   6 C     -0.023  1.065  2.958  0.000    20.946     6.509
  30   6 C     -0.055  1.048  3.007  0.000    21.558     6.610
  31   6 C     -0.117  1.039  3.078  0.000    22.796     6.808
  32   6 C     -0.108  1.034  3.074  0.000    22.628     6.784
  33   1 H      0.155  0.845  0.000  0.000     1.367     1.831
  34   1 H      0.046  0.954  0.000  0.000     2.368     2.407
  35   1 H      0.039  0.961  0.000  0.000     2.468     2.457
  36   1 H      0.030  0.970  0.000  0.000     2.590     2.517
  37   1 H      0.035  0.965  0.000  0.000     2.515     2.480
  38   1 H      0.048  0.952  0.000  0.000     2.346     2.395
  39   1 H      0.042  0.958  0.000  0.000     2.427     2.436
  40   1 H      0.047  0.953  0.000  0.000     2.354     2.399
  41   1 H      0.035  0.965  0.000  0.000     2.522     2.483
  42   1 H      0.046  0.954  0.000  0.000     2.366     2.406
  43   1 H      0.035  0.965  0.000  0.000     2.515     2.480
  44   7 N     -0.174  1.258  3.916  0.000    24.764     7.391
  45   6 C      0.032  1.055  2.913  0.000    20.046     6.375
  46   6 C      0.208  1.084  2.709  0.000    23.593     7.955
  47   8 O     -0.372  1.759  4.613  0.000    21.130     6.163
  48   6 C     -0.084  1.062  3.022  0.000    22.087     6.689
  49   6 C     -0.004  1.053  2.951  0.000    20.623     6.459
  50   6 C     -0.112  1.038  3.074  0.000    22.702     6.793
  51   6 C     -0.121  1.044  3.076  0.000    22.865     6.817
  52   1 H      0.225  0.775  0.000  0.000     0.989     1.558
  53   1 H      0.079  0.921  0.000  0.000     1.994     2.209
  54   1 H      0.080  0.920  0.000  0.000     1.984     2.203
  55   1 H      0.065  0.935  0.000  0.000     2.139     2.287
  56   1 H      0.012  0.988  0.000  0.000     2.853     2.642
  57   1 H      0.038  0.962  0.000  0.000     2.470     2.458
  58   1 H      0.025  0.975  0.000  0.000     2.659     2.550
  59   1 H      0.051  0.949  0.000  0.000     2.301     2.372
  60   1 H      0.039  0.961  0.000  0.000     2.467     2.456
  61   1 H      0.056  0.944  0.000  0.000     2.241     2.341
  62   1 H      0.048  0.952  0.000  0.000     2.341     2.393
  63   7 N     -0.410  1.318  4.093  0.000    30.654     8.223
  64   6 C      0.038  1.054  2.908  0.000    19.942     6.361
  65   6 C      0.263  1.050  2.687  0.000    22.559     7.778
  66   8 O     -0.508  1.745  4.763  0.000    23.956     6.562
  67   6 C     -0.118  1.042  3.076  0.000    22.805     6.807
  68   1 H      0.159  0.841  0.000  0.000     1.342     1.815
  69   1 H      0.035  0.965  0.000  0.000     2.520     2.482
  70   1 H      0.046  0.954  0.000  0.000     2.369     2.407
  71   1 H      0.051  0.949  0.000  0.000     2.309     2.376
  72   1 H      0.067  0.933  0.000  0.000     2.114     2.273
  73   7 N     -0.173  1.244  3.929  0.000    24.745     7.388
  74   6 C      0.026  1.057  2.917  0.000    20.143     6.391
  75   6 C      0.281  1.047  2.671  0.000    22.234     7.721
  76   8 O     -0.492  1.751  4.741  0.000    23.598     6.513
  77   6 C     -0.063  1.053  3.010  0.000    21.708     6.633
  78   6 C     -0.010  1.059  2.951  0.000    20.725     6.476
  79   6 C     -0.120  1.042  3.079  0.000    22.859     6.817
  80   6 C     -0.112  1.039  3.073  0.000    22.697     6.793
  81   1 H      0.218  0.782  0.000  0.000     1.019     1.581
  82   1 H      0.095  0.905  0.000  0.000     1.836     2.119
  83   1 H      0.027  0.973  0.000  0.000     2.625     2.534
  84   1 H      0.053  0.947  0.000  0.000     2.284     2.363
  85   1 H      0.038  0.962  0.000  0.000     2.475     2.460
  86   1 H      0.066  0.934  0.000  0.000     2.134     2.284
  87   1 H      0.048  0.952  0.000  0.000     2.348     2.396
  88   1 H      0.040  0.960  0.000  0.000     2.452     2.449
  89   1 H      0.049  0.951  0.000  0.000     2.336     2.390
  90   1 H      0.042  0.958  0.000  0.000     2.417     2.431
  91   1 H      0.029  0.971  0.000  0.000     2.595     2.519
  92   7 N     -0.188  1.243  3.945  0.000    25.067     7.436
  93   6 C      0.043  1.051  2.906  0.000    19.859     6.346
  94   6 C      0.197  1.086  2.716  0.000    23.792     7.988
  95   8 O     -0.358  1.754  4.604  0.000    20.855     6.123
  96   6 C     -0.050  1.054  2.996  0.000    21.459     6.594
  97   6 C     -0.093  1.067  3.027  0.000    22.282     6.721
  98   6 C      0.373  1.023  2.604  0.000    20.677     7.441
  99   8 O     -0.658  1.776  4.882  0.000    27.596     7.043
 100   8 O     -0.641  1.771  4.870  0.000    27.149     6.986
 101   1 H      0.198  0.802  0.000  0.000     1.116     1.655
 102   1 H      0.067  0.933  0.000  0.000     2.122     2.278
 103   1 H      0.048  0.952  0.000  0.000     2.342     2.393
 104   1 H      0.052  0.948  0.000  0.000     2.300     2.372
 105   1 H      0.032  0.968  0.000  0.000     2.557     2.501
 106   1 H      0.025  0.975  0.000  0.000     2.654     2.548
 107   7 N     -0.377  1.308  4.069  0.000    29.730     8.098
 108   6 C      0.035  1.060  2.905  0.000    20.000     6.371
 109   6 C      0.201  1.083  2.716  0.000    23.721     7.976
 110   8 O     -0.387  1.770  4.618  0.000    21.428     6.206
 111   6 C     -0.079  1.064  3.016  0.000    22.008     6.678
 112   6 C     -0.002  1.051  2.951  0.000    20.575     6.452
 113   6 C     -0.102  1.038  3.064  0.000    22.503     6.764
 114   6 C     -0.119  1.044  3.075  0.000    22.825     6.811
 115   1 H      0.128  0.872  0.000  0.000     1.561     1.957
 116   1 H      0.078  0.922  0.000  0.000     1.996     2.210
 117   1 H      0.058  0.942  0.000  0.000     2.225     2.333
 118   1 H      0.058  0.942  0.000  0.000     2.220     2.330
 119   1 H      0.007  0.993  0.000  0.000     2.945     2.683
 120   1 H      0.035  0.965  0.000  0.000     2.513     2.479
 121   1 H      0.017  0.983  0.000  0.000     2.778     2.606
 122   1 H      0.050  0.950  0.000  0.000     2.319     2.382
 123   1 H      0.049  0.951  0.000  0.000     2.334     2.389
 124   1 H      0.054  0.946  0.000  0.000     2.273     2.358
 125   1 H      0.037  0.963  0.000  0.000     2.485     2.465
 126   7 N     -0.390  1.311  4.079  0.000    30.098     8.148
 127   6 C      0.040  1.056  2.904  0.000    19.920     6.358
 128   6 C      0.197  1.095  2.708  0.000    23.798     7.989
 129   8 O     -0.357  1.737  4.619  0.000    20.835     6.120
 130   6 C     -0.067  1.062  3.005  0.000    21.778     6.643
 131   6 C     -0.018  1.058  2.960  0.000    20.864     6.497
 132   6 C     -0.131  1.044  3.087  0.000    23.068     6.849
 133   6 C     -0.127  1.042  3.085  0.000    22.993     6.838
 134   1 H      0.155  0.845  0.000  0.000     1.370     1.834
 135   1 H      0.047  0.953  0.000  0.000     2.362     2.403
 136   1 H      0.039  0.961  0.000  0.000     2.460     2.453
 137   1 H      0.051  0.949  0.000  0.000     2.305     2.374
 138   1 H      0.021  0.979  0.000  0.000     2.711     2.575
 139   1 H      0.043  0.957  0.000  0.000     2.405     2.425
 140   1 H      0.043  0.957  0.000  0.000     2.409     2.427
 141   1 H      0.064  0.936  0.000  0.000     2.148     2.292
 142   1 H      0.043  0.957  0.000  0.000     2.410     2.428
 143   1 H      0.070  0.930  0.000  0.000     2.091     2.261
 144   1 H      0.033  0.967  0.000  0.000     2.550     2.497
 145   7 N     -0.387  1.304  4.083  0.000    30.026     8.138
 146   6 C      0.038  1.058  2.904  0.000    19.941     6.360
 147   6 C      0.268  1.047  2.685  0.000    22.469     7.762
 148   8 O     -0.502  1.750  4.752  0.000    23.828     6.545
 149   6 C     -0.074  1.056  3.018  0.000    21.907     6.662
 150   6 C      0.009  1.082  2.908  0.000    27.806     8.650
 151   6 C     -0.040  1.079  2.962  0.000    29.002     8.832
 152   6 C     -0.044  1.082  2.962  0.000    29.089     8.845
 153   6 C     -0.033  1.079  2.954  0.000    28.828     8.805
 154   6 C     -0.034  1.080  2.953  0.000    28.840     8.807
 155   6 C     -0.037  1.079  2.958  0.000    28.909     8.817
 156   1 H      0.153  0.847  0.000  0.000     1.380     1.840
 157   1 H      0.022  0.978  0.000  0.000     2.698     2.569
 158   1 H      0.043  0.957  0.000  0.000     2.415     2.430
 159   1 H      0.067  0.933  0.000  0.000     2.121     2.277
 160   1 H      0.022  0.978  0.000  0.000     2.705     2.572
 161   1 H      0.055  0.945  0.000  0.000     2.259     2.350
 162   1 H      0.021  0.979  0.000  0.000     2.725     2.581
 163   1 H      0.047  0.953  0.000  0.000     2.363     2.404
 164   1 H      0.029  0.971  0.000  0.000     2.605     2.524
 165   7 N     -0.160  1.239  3.921  0.000    24.457     7.345
 166   6 C      0.019  1.060  2.922  0.000    20.271     6.412
 167   6 C      0.204  1.082  2.714  0.000    23.664     7.967
 168   8 O     -0.352  1.751  4.601  0.000    20.739     6.106
 169   6 C     -0.083  1.057  3.026  0.000    22.068     6.687
 170   6 C     -0.089  1.054  3.035  0.000    22.194     6.707
 171   6 C     -0.096  1.052  3.044  0.000    22.331     6.728
 172   6 C     -0.053  1.060  2.994  0.000    21.624     6.637
 173   7 N     -0.128  1.220  3.908  0.000    23.768     7.241
 174   1 H      0.230  0.770  0.000  0.000     0.964     1.538
 175   1 H      0.098  0.902  0.000  0.000     1.804     2.101
 176   1 H      0.070  0.930  0.000  0.000     2.089     2.260
 177   1 H      0.077  0.923  0.000  0.000     2.008     2.216
 178   1 H      0.063  0.937  0.000  0.000     2.160     2.298
 179   1 H      0.072  0.928  0.000  0.000     2.064     2.247
 180   1 H      0.094  0.906  0.000  0.000     1.837     2.120
 181   1 H      0.084  0.916  0.000  0.000     1.940     2.178
 182   1 H      0.116  0.884  0.000  0.000     1.647     2.007
 183   1 H      0.126  0.874  0.000  0.000     1.562     1.955
 184   1 H      0.273  0.727  0.000  0.000     0.800     1.401
 185   1 H      0.272  0.728  0.000  0.000     0.802     1.403
 186   1 H      0.273  0.727  0.000  0.000     0.801     1.402
 187   7 N     -0.391  1.311  4.080  0.000    30.117     8.150
 188   6 C      0.046  1.056  2.898  0.000    19.831     6.344
 189   6 C      0.207  1.093  2.700  0.000    23.612     7.958
 190   8 O     -0.391  1.756  4.635  0.000    21.495     6.216
 191   6 C     -0.073  1.063  3.010  0.000    21.901     6.662
 192   6 C     -0.017  1.061  2.955  0.000    20.837     6.493
 193   6 C     -0.121  1.041  3.080  0.000    22.884     6.821
 194   6 C     -0.112  1.038  3.074  0.000    22.694     6.793
 195   1 H      0.170  0.830  0.000  0.000     1.273     1.768
 196   1 H      0.028  0.972  0.000  0.000     2.621     2.532
 197   1 H      0.050  0.950  0.000  0.000     2.323     2.384
 198   1 H      0.066  0.934  0.000  0.000     2.131     2.283
 199   1 H      0.050  0.950  0.000  0.000     2.314     2.379
 200   1 H      0.055  0.945  0.000  0.000     2.253     2.347
 201   1 H      0.050  0.950  0.000  0.000     2.323     2.384
 202   1 H      0.032  0.968  0.000  0.000     2.553     2.499
 203   1 H      0.044  0.956  0.000  0.000     2.392     2.419
 204   1 H      0.030  0.970  0.000  0.000     2.588     2.516
 205   1 H      0.027  0.973  0.000  0.000     2.633     2.537
 206   7 N     -0.384  1.309  4.075  0.000    29.943     8.127
 207   6 C     -0.011  1.049  2.963  0.000    20.865     6.519
 208   6 C      0.275  1.043  2.682  0.000    22.350     7.741
 209   8 O     -0.467  1.744  4.723  0.000    23.066     6.439
 210   1 H      0.147  0.853  0.000  0.000     1.421     1.868
 211   1 H      0.075  0.925  0.000  0.000     2.034     2.230
 212   1 H      0.025  0.975  0.000  0.000     2.655     2.548
 213   7 N     -0.184  1.256  3.928  0.000    24.987     7.424
 214   6 C      0.010  1.063  2.927  0.000    20.415     6.434
 215   6 C      0.267  1.044  2.689  0.000    22.501     7.768
 216   8 O     -0.491  1.748  4.744  0.000    23.591     6.512
 217   6 C     -0.084  1.057  3.027  0.000    22.107     6.693
 218   6 C     -0.087  1.054  3.034  0.000    22.160     6.702
 219   6 C     -0.031  1.054  2.978  0.000    21.210     6.571
 220   7 N     -0.136  1.206  3.929  0.000    23.939     7.267
 221   6 C      0.234  1.017  2.749  0.000    23.090     7.867
 222   7 N     -0.243  1.222  4.021  0.000    26.350     7.624
 223   7 N     -0.261  1.231  4.030  0.000    26.776     7.685
 224   1 H      0.205  0.795  0.000  0.000     1.083     1.630
 225   1 H      0.081  0.919  0.000  0.000     1.970     2.195
 226   1 H      0.071  0.929  0.000  0.000     2.073     2.252
 227   1 H      0.069  0.931  0.000  0.000     2.094     2.263
 228   1 H      0.070  0.930  0.000  0.000     2.080     2.255
 229   1 H      0.071  0.929  0.000  0.000     2.072     2.251
 230   1 H      0.095  0.905  0.000  0.000     1.829     2.115
 231   1 H      0.085  0.915  0.000  0.000     1.924     2.169
 232   1 H      0.234  0.766  0.000  0.000     0.948     1.525
 233   1 H      0.244  0.756  0.000  0.000     0.906     1.491
 234   1 H      0.248  0.752  0.000  0.000     0.891     1.479
 235   1 H      0.247  0.753  0.000  0.000     0.893     1.480
 236   1 H      0.250  0.750  0.000  0.000     0.885     1.474
 237   7 N     -0.166  1.239  3.927  0.000    24.592     7.365
 238   6 C      0.008  1.068  2.924  0.000    20.441     6.438
 239   6 C      0.262  1.046  2.692  0.000    22.579     7.782
 240   8 O     -0.489  1.750  4.738  0.000    23.536     6.504
 241   6 C     -0.035  1.069  2.966  0.000    21.158     6.542
 242   6 C     -0.075  1.051  3.024  0.000    21.921     6.665
 243   6 C     -0.152  1.045  3.106  0.000    23.490     6.911
 244   6 C     -0.121  1.038  3.083  0.000    22.883     6.822
 245   1 H      0.210  0.790  0.000  0.000     1.058     1.612
 246   1 H      0.080  0.920  0.000  0.000     1.979     2.200
 247   1 H      0.060  0.940  0.000  0.000     2.198     2.319
 248   1 H      0.043  0.957  0.000  0.000     2.404     2.424
 249   1 H      0.036  0.964  0.000  0.000     2.509     2.477
 250   1 H      0.081  0.919  0.000  0.000     1.972     2.196
 251   1 H      0.068  0.932  0.000  0.000     2.108     2.270
 252   1 H      0.057  0.943  0.000  0.000     2.234     2.337
 253   1 H      0.031  0.969  0.000  0.000     2.574     2.509
 254   1 H      0.053  0.947  0.000  0.000     2.278     2.360
 255   1 H      0.049  0.951  0.000  0.000     2.330     2.387
 256   7 N     -0.078  1.230  3.848  0.000    22.749     7.084
 257   6 C      0.022  1.064  2.913  0.000    20.183     6.393
 258   6 C      0.204  1.085  2.711  0.000    23.663     7.966
 259   8 O     -0.343  1.734  4.608  0.000    20.567     6.080
 260   6 C     -0.067  1.054  3.013  0.000    21.761     6.636
 261   6 C     -0.079  1.052  3.027  0.000    21.985     6.671
 262   6 C     -0.019  1.055  2.964  0.000    20.942     6.519
 263   1 H      0.068  0.932  0.000  0.000     2.111     2.272
 264   1 H      0.060  0.940  0.000  0.000     2.197     2.318
 265   1 H      0.067  0.933  0.000  0.000     2.116     2.275
 266   1 H      0.082  0.918  0.000  0.000     1.963     2.191
 267   1 H      0.074  0.926  0.000  0.000     2.041     2.234
 268   1 H      0.080  0.920  0.000  0.000     1.974     2.197
 269   1 H      0.065  0.935  0.000  0.000     2.143     2.289
 270   7 N     -0.394  1.311  4.083  0.000    30.198     8.161
 271   6 C      0.036  1.052  2.912  0.000    19.983     6.367
 272   6 C      0.264  1.050  2.687  0.000    22.556     7.778
 273   8 O     -0.525  1.756  4.769  0.000    24.355     6.617
 274   6 C     -0.139  1.046  3.093  0.000    23.229     6.872
 275   1 H      0.178  0.822  0.000  0.000     1.223     1.732
 276   1 H      0.025  0.975  0.000  0.000     2.653     2.547
 277   1 H      0.046  0.954  0.000  0.000     2.375     2.410
 278   1 H      0.067  0.933  0.000  0.000     2.116     2.275
 279   1 H      0.083  0.917  0.000  0.000     1.952     2.185
 280   7 N     -0.143  1.238  3.905  0.000    24.102     7.291
 281   6 C      0.011  1.061  2.927  0.000    20.394     6.431
 282   6 C      0.195  1.083  2.722  0.000    23.838     7.996
 283   8 O     -0.357  1.756  4.601  0.000    20.849     6.122
 284   6 C     -0.084  1.061  3.023  0.000    22.098     6.691
 285   6 C     -0.021  1.060  2.961  0.000    20.918     6.505
 286   6 C     -0.118  1.040  3.078  0.000    22.815     6.810
 287   6 C     -0.136  1.044  3.092  0.000    23.174     6.864
 288   1 H      0.245  0.755  0.000  0.000     0.905     1.490
 289   1 H      0.087  0.913  0.000  0.000     1.906     2.159
 290   1 H      0.068  0.932  0.000  0.000     2.105     2.269
 291   1 H      0.071  0.929  0.000  0.000     2.080     2.255
 292   1 H      0.061  0.939  0.000  0.000     2.186     2.312
 293   1 H      0.053  0.947  0.000  0.000     2.284     2.363
 294   1 H      0.035  0.965  0.000  0.000     2.515     2.480
 295   1 H      0.046  0.954  0.000  0.000     2.369     2.407
 296   1 H      0.067  0.933  0.000  0.000     2.124     2.279
 297   1 H      0.048  0.952  0.000  0.000     2.344     2.394
 298   1 H      0.042  0.958  0.000  0.000     2.426     2.436
 299   7 N     -0.388  1.311  4.077  0.000    30.030     8.139
 300   6 C      0.030  1.056  2.913  0.000    20.075     6.381
 301   6 C      0.273  1.046  2.681  0.000    22.392     7.749
 302   8 O     -0.545  1.774  4.771  0.000    24.811     6.678
 303   6 C      0.083  1.037  2.880  0.000    19.402     6.308
 304   8 O     -0.478  1.716  4.762  0.000    22.426     6.393
 305   1 H      0.182  0.818  0.000  0.000     1.204     1.719
 306   1 H      0.045  0.955  0.000  0.000     2.388     2.416
 307   1 H      0.039  0.961  0.000  0.000     2.466     2.456
 308   1 H     -0.016  1.016  0.000  0.000     3.354     2.864
 309   1 H      0.348  0.652  0.000  0.000     0.593     1.210
 310   7 N     -0.183  1.254  3.928  0.000    24.957     7.420
 311   6 C      0.044  1.054  2.901  0.000    19.838     6.343
 312   6 C      0.284  1.045  2.671  0.000    22.193     7.715
 313   8 O     -0.465  1.701  4.764  0.000    23.034     6.435
 314   6 C     -0.078  1.055  3.023  0.000    21.986     6.674
 315   6 C     -0.033  1.075  2.958  0.000    21.175     6.553
 316  16 S     -0.300  1.954  4.272  0.074   154.048    20.890
 317   6 C     -0.062  1.058  3.004  0.000    21.759     6.655
 318   1 H      0.258  0.742  0.000  0.000     0.852     1.446
 319   1 H      0.011  0.989  0.000  0.000     2.874     2.651
 320   1 H      0.111  0.889  0.000  0.000     1.689     2.032
 321   1 H      0.050  0.950  0.000  0.000     2.316     2.380
 322   1 H      0.091  0.909  0.000  0.000     1.873     2.140
 323   1 H      0.102  0.898  0.000  0.000     1.768     2.079
 324   1 H      0.048  0.952  0.000  0.000     2.344     2.394
 325   1 H      0.104  0.896  0.000  0.000     1.752     2.070
 326   1 H      0.060  0.940  0.000  0.000     2.197     2.318
 327   7 N     -0.184  1.252  3.932  0.000    24.989     7.424
 328   6 C      0.049  1.050  2.901  0.000    19.763     6.330
 329   6 C      0.269  1.049  2.682  0.000    22.465     7.762
 330   8 O     -0.478  1.725  4.753  0.000    23.297     6.471
 331   6 C     -0.090  1.071  3.019  0.000    22.220     6.711
 332   6 C      0.375  1.020  2.604  0.000    20.641     7.435
 333   8 O     -0.619  1.759  4.860  0.000    26.585     6.913
 334   8 O     -0.639  1.777  4.862  0.000    27.096     6.979
 335   1 H      0.195  0.805  0.000  0.000     1.131     1.666
 336   1 H      0.074  0.926  0.000  0.000     2.040     2.234
 337   1 H      0.023  0.977  0.000  0.000     2.692     2.566
 338   1 H      0.009  0.991  0.000  0.000     2.903     2.664
 339   7 N     -0.178  1.245  3.932  0.000    24.848     7.403
 340   6 C      0.024  1.063  2.914  0.000    20.178     6.396
 341   6 C      0.283  1.043  2.674  0.000    22.206     7.717
 342   8 O     -0.461  1.733  4.728  0.000    22.941     6.422
 343   6 C     -0.124  1.039  3.086  0.000    22.939     6.829
 344   1 H      0.209  0.791  0.000  0.000     1.060     1.613
 345   1 H      0.105  0.895  0.000  0.000     1.739     2.062
 346   1 H      0.073  0.927  0.000  0.000     2.048     2.238
 347   1 H      0.082  0.918  0.000  0.000     1.955     2.186
 348   1 H      0.042  0.958  0.000  0.000     2.422     2.434
 349   7 N     -0.190  1.239  3.951  0.000    25.126     7.445
 350   6 C      0.031  1.058  2.912  0.000    20.062     6.377
 351   6 C      0.279  1.042  2.679  0.000    22.275     7.729
 352   8 O     -0.500  1.733  4.767  0.000    23.789     6.539
 353   6 C     -0.069  1.057  3.013  0.000    21.816     6.648
 354   6 C     -0.003  1.055  2.948  0.000    20.603     6.456
 355   6 C     -0.117  1.042  3.075  0.000    22.794     6.807
 356   6 C     -0.113  1.038  3.075  0.000    22.720     6.796
 357   1 H      0.180  0.820  0.000  0.000     1.213     1.725
 358   1 H      0.080  0.920  0.000  0.000     1.978     2.200
 359   1 H      0.026  0.974  0.000  0.000     2.637     2.540
 360   1 H      0.068  0.932  0.000  0.000     2.104     2.269
 361   1 H      0.014  0.986  0.000  0.000     2.828     2.630
 362   1 H      0.052  0.948  0.000  0.000     2.296     2.369
 363   1 H      0.035  0.965  0.000  0.000     2.522     2.483
 364   1 H      0.056  0.944  0.000  0.000     2.244     2.342
 365   1 H      0.041  0.959  0.000  0.000     2.432     2.439
 366   1 H      0.055  0.945  0.000  0.000     2.254     2.348
 367   1 H      0.038  0.962  0.000  0.000     2.482     2.464
 368   7 N     -0.169  1.247  3.923  0.000    24.666     7.376
 369   6 C      0.047  1.053  2.900  0.000    19.791     6.335
 370   6 C      0.269  1.042  2.689  0.000    22.457     7.760
 371   8 O     -0.495  1.727  4.767  0.000    23.666     6.522
 372   6 C     -0.100  1.069  3.031  0.000    22.402     6.738
 373   6 C      0.376  1.020  2.603  0.000    20.623     7.432
 374   8 O     -0.635  1.776  4.858  0.000    26.984     6.965
 375   8 O     -0.644  1.778  4.866  0.000    27.226     6.996
 376   1 H      0.192  0.808  0.000  0.000     1.150     1.679
 377   1 H      0.049  0.951  0.000  0.000     2.330     2.387
 378   1 H      0.040  0.960  0.000  0.000     2.445     2.445
 379   1 H      0.062  0.938  0.000  0.000     2.178     2.308
 380   7 N     -0.186  1.251  3.935  0.000    25.024     7.430
 381   6 C      0.021  1.061  2.918  0.000    20.223     6.403
 382   6 C      0.273  1.043  2.684  0.000    22.392     7.750
 383   8 O     -0.459  1.725  4.735  0.000    22.904     6.417
 384   6 C     -0.084  1.061  3.023  0.000    22.093     6.691
 385   6 C     -0.017  1.055  2.961  0.000    20.842     6.494
 386   6 C     -0.131  1.043  3.087  0.000    23.069     6.849
 387   6 C     -0.125  1.044  3.081  0.000    22.952     6.830
 388   1 H      0.226  0.774  0.000  0.000     0.981     1.552
 389   1 H      0.099  0.901  0.000  0.000     1.796     2.096
 390   1 H      0.071  0.929  0.000  0.000     2.076     2.253
 391   1 H      0.050  0.950  0.000  0.000     2.316     2.380
 392   1 H      0.038  0.962  0.000  0.000     2.472     2.459
 393   1 H      0.061  0.939  0.000  0.000     2.187     2.313
 394   1 H      0.046  0.954  0.000  0.000     2.369     2.407
 395   1 H      0.067  0.933  0.000  0.000     2.114     2.274
 396   1 H      0.058  0.942  0.000  0.000     2.224     2.332
 397   1 H      0.056  0.944  0.000  0.000     2.248     2.345
 398   1 H      0.030  0.970  0.000  0.000     2.589     2.516
 399   7 N     -0.186  1.242  3.945  0.000    25.041     7.432
 400   6 C      0.007  1.065  2.928  0.000    20.446     6.436
 401   6 C      0.275  1.042  2.683  0.000    22.349     7.742
 402   8 O     -0.486  1.727  4.759  0.000    23.471     6.495
 403   6 C      0.111  1.046  2.843  0.000    18.853     6.200
 404   8 O     -0.485  1.719  4.766  0.000    22.565     6.413
 405   6 C     -0.136  1.042  3.094  0.000    23.182     6.866
 406   1 H      0.188  0.812  0.000  0.000     1.169     1.694
 407   1 H      0.096  0.904  0.000  0.000     1.821     2.110
 408   1 H      0.053  0.947  0.000  0.000     2.278     2.360
 409   1 H      0.315  0.685  0.000  0.000     0.678     1.293
 410   1 H      0.057  0.943  0.000  0.000     2.234     2.337
 411   1 H      0.057  0.943  0.000  0.000     2.230     2.335
 412   1 H      0.064  0.936  0.000  0.000     2.158     2.297
 413   7 N     -0.183  1.254  3.929  0.000    24.966     7.421
 414   6 C      0.043  1.055  2.902  0.000    19.854     6.344
 415   6 C      0.288  1.040  2.672  0.000    22.118     7.702
 416   8 O     -0.501  1.738  4.762  0.000    23.804     6.541
 417   6 C     -0.095  1.067  3.028  0.000    22.308     6.724
[...]
   260  C   3.987    C  261 1.004    H  264 0.975    H  265 0.973    C  257 0.963
   261  C   3.988    C  262 1.006    C  260 1.004    H  266 0.973    H  267 0.972
   262  C   3.960    C  261 1.006    N  256 0.972    H  269 0.963    H  268 0.959
   263  H   0.995    C  257 0.958
   264  H   0.996    C  260 0.975
   265  H   0.995    C  260 0.973
   266  H   0.993    C  261 0.973
   267  H   0.994    C  261 0.972
   268  H   0.994    C  262 0.959
   269  H   0.996    C  262 0.963
   270  N   2.991    C  271 1.013    H  591 0.959    H  275 0.950
   271  C   3.986    N  270 1.013    C  274 0.988    H  276 0.966    C  272 0.940
   272  C   3.937    O  273 1.538    N  280 1.358    C  271 0.940
   273  O   1.969    C  272 1.538    N  280 0.190
   274  C   3.987    C  271 0.988    H  277 0.982    H  278 0.980    H  279 0.979
   275  H   0.968    N  270 0.950
   276  H   0.999    C  271 0.966
   277  H   0.998    C  274 0.982
   278  H   0.995    C  274 0.980
   279  H   0.993    C  274 0.979
   280  N   3.506    C  272 1.358    C  281 0.973    H  288 0.902    O  273 0.190
   281  C   3.960    N  280 0.973    C  282 0.971    C  284 0.964    H  289 0.939    O  283 0.058
   282  C   3.905    O  283 1.888    C  281 0.971    H  592 0.950
   283  O   2.053    C  282 1.888    C  281 0.058
   284  C   3.976    C  285 0.988    H  290 0.970    H  291 0.966    C  281 0.964
   285  C   3.991    C  287 1.009    C  286 1.006    C  284 0.988    H  292 0.955
   286  C   3.991    C  285 1.006    H  295 0.986    H  294 0.985    H  293 0.972
   287  C   3.992    C  285 1.009    H  297 0.985    H  298 0.983    H  296 0.977
   288  H   0.940    N  280 0.902
   289  H   0.992    C  281 0.939
   290  H   0.995    C  284 0.970
   291  H   0.994    C  284 0.966
   292  H   0.996    C  285 0.955
   293  H   0.996    C  286 0.972
   294  H   0.999    C  286 0.985
   295  H   0.998    C  286 0.986
   296  H   0.995    C  287 0.977
   297  H   0.997    C  287 0.985
   298  H   0.998    C  287 0.983
   299  N   2.994    C  300 1.029    H  593 0.950    H  305 0.924
   300  C   3.991    N  299 1.029    C  303 0.967    H  306 0.964    C  301 0.929    O  302 0.050
   301  C   3.937    O  302 1.607    N  310 1.330    C  300 0.929
   302  O   1.927    C  301 1.607    N  310 0.199    C  300 0.050
   303  C   3.962    O  304 1.004    H  308 0.969    C  300 0.967    H  307 0.962
   304  O   1.926    C  303 1.004    H  309 0.865
   305  H   0.967    N  299 0.924
   306  H   0.997    C  300 0.964
   307  H   0.998    C  303 0.962
   308  H   1.000    C  303 0.969
   309  H   0.879    O  304 0.865
   310  N   3.468    C  301 1.330    C  311 0.980    H  318 0.856    O  302 0.199
   311  C   3.970    C  314 0.981    N  310 0.980    H  319 0.951    C  312 0.934    O  313 0.051
   312  C   3.941    O  313 1.609    N  327 1.309    C  311 0.934
   313  O   1.943    C  312 1.609    N  327 0.190    C  311 0.051
   314  C   3.983    C  315 1.014    C  311 0.981    H  321 0.971    H  320 0.950
   315  C   3.963    C  314 1.014    S  316 0.974    H  323 0.964    H  322 0.956
   316  S   2.088    C  317 1.005    C  315 0.974
   317  C   3.965    S  316 1.005    H  324 0.981    H  326 0.979    H  325 0.974
   318  H   0.933    N  310 0.856
   319  H   0.999    C  311 0.951
   320  H   0.987    C  314 0.950
   321  H   0.997    C  314 0.971
   322  H   0.992    C  315 0.956
   323  H   0.989    C  315 0.964
   324  H   0.997    C  317 0.981
   325  H   0.989    C  317 0.974
   326  H   0.996    C  317 0.979
   327  N   3.481    C  312 1.309    C  328 0.992    H  335 0.891    O  313 0.190
   328  C   3.973    N  327 0.992    C  331 0.976    C  329 0.950    H  336 0.934
   329  C   3.950    O  330 1.588    N  339 1.304    C  328 0.950
   330  O   1.978    C  329 1.588    N  339 0.185
   331  C   3.980    C  328 0.976    H  337 0.974    H  338 0.966    C  332 0.889    O  333 0.056    O  334 0.054
   332  C   3.936    O  334 1.517    O  333 1.510    C  331 0.889
   333  O   1.815    C  332 1.510    O  334 0.220    C  331 0.056
   334  O   1.815    C  332 1.517    O  333 0.220    C  331 0.054
   335  H   0.962    N  327 0.891
   336  H   0.994    C  328 0.934
   337  H   0.999    C  331 0.974
   338  H   0.999    C  331 0.966
   339  N   3.461    C  329 1.304    C  340 0.966    H  344 0.924    O  330 0.185
   340  C   3.956    C  343 0.997    N  339 0.966    H  345 0.946    C  341 0.940    O  342 0.050
   341  C   3.944    O  342 1.642    N  349 1.267    C  340 0.940
   342  O   1.973    C  341 1.642    N  349 0.183    C  340 0.050
   343  C   3.982    C  340 0.997    H  348 0.984    H  347 0.975    H  346 0.974
   344  H   0.956    N  339 0.924
   345  H   0.988    C  340 0.946
   346  H   0.994    C  343 0.974
   347  H   0.993    C  343 0.975
   348  H   0.998    C  343 0.984
   349  N   3.444    C  341 1.267    C  350 0.979    H  357 0.925    O  342 0.183
   350  C   3.965    N  349 0.979    C  353 0.976    H  358 0.950    C  351 0.941
   351  C   3.944    O  352 1.553    N  368 1.347    C  350 0.941
   352  O   1.948    C  351 1.553    N  368 0.187
   353  C   3.987    C  354 0.989    H  359 0.976    C  350 0.976    H  360 0.970
   354  C   3.994    C  356 1.010    C  355 1.005    C  353 0.989    H  361 0.963
   355  C   3.992    C  354 1.005    H  363 0.987    H  362 0.985    H  364 0.985
   356  C   3.993    C  354 1.010    H  365 0.986    H  367 0.982    H  366 0.977
   357  H   0.967    N  349 0.925
   358  H   0.993    C  350 0.950
   359  H   0.999    C  353 0.976
   360  H   0.995    C  353 0.970
   361  H   1.000    C  354 0.963
   362  H   0.996    C  355 0.985
   363  H   0.999    C  355 0.987
   364  H   0.997    C  355 0.985
   365  H   0.998    C  356 0.986
   366  H   0.997    C  356 0.977
   367  H   0.999    C  356 0.982
   368  N   3.502    C  351 1.347    C  369 0.962    H  376 0.920    O  352 0.187
   369  C   3.952    C  372 0.984    N  368 0.962    H  377 0.953    C  370 0.932
   370  C   3.958    O  371 1.582    N  380 1.345    C  369 0.932
   371  O   1.943    C  370 1.582    N  380 0.200
   372  C   3.984    C  369 0.984    H  378 0.966    H  379 0.949    C  373 0.906    O  374 0.055    O  375 0.051
   373  C   3.929    O  374 1.523    O  375 1.473    C  372 0.906
   374  O   1.817    C  373 1.523    O  375 0.214    C  372 0.055
   375  O   1.821    C  373 1.473    O  374 0.214    C  372 0.051
   376  H   0.963    N  368 0.920
   377  H   0.997    C  369 0.953
   378  H   0.998    C  372 0.966
   379  H   0.996    C  372 0.949
   380  N   3.489    C  370 1.345    C  381 0.966    H  388 0.882    O  371 0.200
   381  C   3.946    C  384 0.969    N  380 0.966    C  382 0.948    H  389 0.939
   382  C   3.946    O  383 1.631    N  399 1.281    C  381 0.948
   383  O   1.966    C  382 1.631    N  399 0.188
   384  C   3.975    C  385 0.989    C  381 0.969    H  390 0.968    H  391 0.967
   385  C   3.987    C  386 1.008    C  387 1.007    C  384 0.989    H  392 0.966
   386  C   3.991    C  385 1.008    H  395 0.984    H  393 0.983    H  394 0.982
   387  C   3.993    C  385 1.007    H  398 0.985    H  397 0.983    H  396 0.977
   388  H   0.948    N  380 0.882
   389  H   0.990    C  381 0.939
   390  H   0.994    C  384 0.968
   391  H   0.997    C  384 0.967
   392  H   0.998    C  385 0.966
   393  H   0.996    C  386 0.983
   394  H   0.998    C  386 0.982
   395  H   0.995    C  386 0.984
   396  H   0.996    C  387 0.977
   397  H   0.997    C  387 0.983
   398  H   0.999    C  387 0.985
   399  N   3.461    C  382 1.281    C  400 0.981    H  406 0.907    O  383 0.188
   400  C   3.963    N  399 0.981    C  403 0.955    H  407 0.948    C  401 0.936
   401  C   3.945    O  402 1.592    N  413 1.328    C  400 0.936
   402  O   1.961    C  401 1.592    N  413 0.196
   403  C   3.954    O  404 0.998    C  405 0.995    H  408 0.961    C  400 0.955
   404  O   1.951    C  403 0.998    H  409 0.848
   405  C   3.989    C  403 0.995    H  411 0.984    H  412 0.975    H  410 0.974
   406  H   0.964    N  399 0.907
   407  H   0.990    C  400 0.948
   408  H   0.996    C  403 0.961
   409  H   0.901    O  404 0.848
   410  H   0.996    C  405 0.974
   411  H   0.997    C  405 0.984
   412  H   0.996    C  405 0.975
   413  N   3.487    C  401 1.328    C  414 0.969    H  421 0.906    O  402 0.196
   414  C   3.964    C  417 0.987    N  413 0.969    H  422 0.952    C  415 0.936
   415  C   3.952    O  416 1.617    N  425 1.314    C  414 0.936
   416  O   1.937    C  415 1.617    N  425 0.192
   417  C   3.980    C  414 0.987    H  424 0.978    H  423 0.968    C  418 0.894    O  419 0.055    O  420 0.053
   418  C   3.939    O  419 1.519    O  420 1.506    C  417 0.894
   419  O   1.815    C  418 1.519    O  420 0.222    C  417 0.055
   420  O   1.801    C  418 1.506    O  419 0.222    C  417 0.053
   421  H   0.955    N  413 0.906
   422  H   0.996    C  414 0.952
   423  H   0.999    C  417 0.968
   424  H   1.000    C  417 0.978
   425  N   3.457    C  415 1.314    C  426 0.966    H  434 0.887    O  416 0.192
   426  C   3.947    C  429 0.976    N  425 0.966    H  435 0.952    C  427 0.933
   427  C   3.949    O  428 1.605    N  447 1.324    C  426 0.933
   428  O   1.957    C  427 1.605    N  447 0.196
   429  C   3.978    C  430 1.001    C  426 0.976    H  437 0.972    H  436 0.969
   430  C   3.985    C  431 1.005    C  429 1.001    H  439 0.974    H  438 0.971
   431  C   3.983    C  432 1.014    C  430 1.005    H  441 0.966    H  440 0.962
   432  C   3.909    C  431 1.014    H  442 0.963    H  443 0.958    N  433 0.952
   433  N   3.673    C  432 0.952    H  446 0.904    H  444 0.894    H  445 0.888
   434  H   0.952    N  425 0.887
   435  H   0.995    C  426 0.952
   436  H   0.997    C  429 0.969
   437  H   0.995    C  429 0.972
   438  H   0.995    C  430 0.971
   439  H   0.996    C  430 0.974
   440  H   0.994    C  431 0.962
   441  H   0.991    C  431 0.966
   442  H   0.984    C  432 0.963
   443  H   0.980    C  432 0.958
   444  H   0.907    N  433 0.894
   445  H   0.919    N  433 0.888
   446  H   0.922    N  433 0.904
   447  N   3.481    C  427 1.324    C  448 0.962    H  455 0.919    O  428 0.196
   448  C   3.953    C  451 0.975    N  447 0.962    H  456 0.949    C  449 0.943    O  450 0.051
   449  C   3.942    O  450 1.596    N  466 1.310    C  448 0.943
   450  O   1.960    C  449 1.596    N  466 0.190    C  448 0.051
   451  C   3.977    C  452 0.992    C  448 0.975    H  458 0.966    H  457 0.955
   452  C   3.991    C  454 1.009    C  453 1.009    C  451 0.992    H  459 0.965
   453  C   3.996    C  452 1.009    H  461 0.987    H  460 0.985    H  462 0.981
   454  C   3.991    C  452 1.009    H  463 0.985    H  465 0.984    H  464 0.974
   455  H   0.960    N  447 0.919
   456  H   0.990    C  448 0.949
   457  H   0.990    C  451 0.955
   458  H   0.997    C  451 0.966
   459  H   0.997    C  452 0.965
   460  H   0.998    C  453 0.985
   461  H   1.000    C  453 0.987
   462  H   0.999    C  453 0.981
   463  H   0.998    C  454 0.985
   464  H   0.996    C  454 0.974
   465  H   0.996    C  454 0.984
   466  N   3.476    C  449 1.310    C  467 0.989    H  473 0.890    O  450 0.190
   467  C   3.969    N  466 0.989    C  470 0.962    H  474 0.947    C  468 0.938    O  469 0.052
   468  C   3.945    O  469 1.649    N  482 1.277    C  467 0.938
   469  O   1.969    C  468 1.649    N  482 0.193    C  467 0.052
   470  C   3.990    C  471 1.010    C  472 1.008    H  475 0.964    C  467 0.962
   471  C   3.990    C  470 1.010    H  476 0.980    H  478 0.975    H  477 0.965
   472  C   3.991    C  470 1.008    H  481 0.984    H  480 0.979    H  479 0.968
   473  H   0.949    N  466 0.890
   474  H   0.995    C  467 0.947
   475  H   0.997    C  470 0.964
   476  H   0.997    C  471 0.980
   477  H   0.996    C  471 0.965
   478  H   0.998    C  471 0.975
   479  H   0.997    C  472 0.968
   480  H   0.997    C  472 0.979
   481  H   0.998    C  472 0.984
   482  N   3.456    C  468 1.277    C  483 0.985    H  488 0.917    O  469 0.193
   483  C   3.962    N  482 0.985    C  486 0.977    H  489 0.954    C  484 0.922    O  485 0.051
   484  C   3.951    O  485 1.637    N  493 1.318    C  483 0.922
   485  O   1.950    C  484 1.637    N  493 0.202    C  483 0.051
   486  C   3.960    O  487 1.008    C  483 0.977    H  490 0.968    H  491 0.965
   487  O   1.922    C  486 1.008    H  492 0.860
   488  H   0.959    N  482 0.917
   489  H   0.994    C  483 0.954
   490  H   0.998    C  486 0.968
   491  H   0.998    C  486 0.965
   492  H   0.872    O  487 0.860
   493  N   3.469    C  484 1.318    C  494 0.970    H  504 0.887    O  485 0.202
   494  C   3.956    N  493 0.970    C  497 0.962    H  505 0.955    C  495 0.934    O  496 0.051
   495  C   3.946    O  496 1.634    N  513 1.303    C  494 0.934
   496  O   1.942    C  495 1.634    N  513 0.194    C  494 0.051
   497  C   3.978    C  498 1.007    H  507 0.964    C  494 0.962    H  506 0.961
   498  C   3.984    C  500 1.413    C  499 1.410    C  497 1.007    C  503 0.110
   499  C   3.986    C  501 1.442    C  498 1.410    H  508 0.966    C  502 0.110
   500  C   3.991    C  502 1.444    C  498 1.413    H  509 0.962    C  501 0.111
   501  C   3.989    C  499 1.442    C  503 1.435    H  510 0.968    C  500 0.111
   502  C   3.991    C  500 1.444    C  503 1.439    H  511 0.967    C  499 0.110
   503  C   3.991    C  502 1.439    C  501 1.435    H  512 0.969    C  498 0.110
   504  H   0.947    N  493 0.887
   505  H   0.995    C  494 0.955
   506  H   0.992    C  497 0.961
   507  H   0.996    C  497 0.964
   508  H   0.997    C  499 0.966
   509  H   0.999    C  500 0.962
   510  H   0.996    C  501 0.968
   511  H   0.998    C  502 0.967
   512  H   0.999    C  503 0.969
   513  N   3.466    C  495 1.303    C  514 0.994    H  525 0.880    O  496 0.194
   514  C   3.968    N  513 0.994    C  515 0.970    H  526 0.943    C  517 0.940    O  516 0.064
   515  C   3.893    O  516 1.899    C  514 0.970    H  594 0.952
   516  O   2.044    C  515 1.899    C  514 0.064
   517  C   3.982    C  518 1.003    H  527 0.969    H  528 0.968    C  514 0.940
   518  C   3.984    C  520 1.407    C  519 1.399    C  517 1.003    C  523 0.094
   519  C   3.990    C  521 1.456    C  518 1.399    H  529 0.957    C  522 0.104
   520  C   3.990    C  522 1.456    C  518 1.407    H  530 0.969    C  521 0.106
   521  C   3.985    C  519 1.456    C  523 1.359    H  531 0.963    C  520 0.106
   522  C   3.987    C  520 1.456    C  523 1.365    H  532 0.965    C  519 0.104    O  524 0.061
   523  C   3.946    C  522 1.365    C  521 1.359    O  524 1.091    C  518 0.094
   524  O   2.118    C  523 1.091    H  533 0.863    C  522 0.061
   525  H   0.947    N  513 0.880
   526  H   0.992    C  514 0.943
   527  H   0.997    C  517 0.969
   528  H   0.996    C  517 0.968
   529  H   0.998    C  519 0.957
   530  H   0.999    C  520 0.969
   531  H   0.995    C  521 0.963
   532  H   0.997    C  522 0.965
   533  H   0.885    O  524 0.863
   534  N   2.997    C  535 1.005    H  595 0.956    H  543 0.954
   535  C   3.985    N  534 1.005    C  538 0.970    C  536 0.967    H  544 0.966    O  537 0.054
   536  C   3.896    O  537 1.913    C  535 0.967    H  596 0.954
   537  O   2.047    C  536 1.913    C  535 0.054
   538  C   3.995    C  539 1.001    H  546 0.975    H  545 0.974    C  535 0.970
   539  C   3.988    C  538 1.001    H  548 0.982    H  547 0.973    C  540 0.909    O  541 0.053    O  542 0.052
   540  C   3.936    O  542 1.507    O  541 1.499    C  539 0.909
   541  O   1.788    C  540 1.499    O  542 0.218    C  539 0.053
   542  O   1.801    C  540 1.507    O  541 0.218    C  539 0.052
   543  H   0.972    N  534 0.954
   544  H   0.998    C  535 0.966
   545  H   0.999    C  538 0.974
   546  H   0.998    C  538 0.975
   547  H   1.000    C  539 0.973
   548  H   1.000    C  539 0.982
   549  N   2.997    C  550 1.021    H  553 0.964    H  597 0.954
   550  C   3.987    N  549 1.021    C  551 0.995    H  554 0.965    H  555 0.943    O  552 0.058
   551  C   3.898    O  552 1.896    C  550 0.995    H  598 0.955
   552  O   2.034    C  551 1.896    C  550 0.058
   553  H   0.978    N  549 0.964
   554  H   0.996    C  550 0.965
   555  H   0.996    C  550 0.943
   556  N   2.997    C  557 1.008    H  599 0.956    H  564 0.955
   557  C   3.983    N  556 1.008    C  558 0.977    C  560 0.963    H  565 0.955    O  559 0.056
   558  C   3.888    O  559 1.887    C  557 0.977    H  600 0.955
   559  O   2.025    C  558 1.887    C  557 0.056
   560  C   3.989    C  561 0.994    H  567 0.971    H  566 0.967    C  557 0.963
   561  C   3.995    C  562 1.010    C  563 1.007    C  560 0.994    H  568 0.970
   562  C   3.995    C  561 1.010    H  571 0.986    H  569 0.985    H  570 0.982
   563  C   3.995    C  561 1.007    H  574 0.986    H  573 0.985    H  572 0.984
   564  H   0.975    N  556 0.955
   565  H   0.998    C  557 0.955
   566  H   0.998    C  560 0.967
   567  H   0.997    C  560 0.971
   568  H   0.999    C  561 0.970
   569  H   0.997    C  562 0.985
   570  H   0.999    C  562 0.982
   571  H   0.998    C  562 0.986
   572  H   0.997    C  563 0.984
   573  H   0.998    C  563 0.985
   574  H   0.999    C  563 0.986
   575  H   0.971    N    1 0.959
   576  H   0.993    C    3 0.952
   577  H   0.966    N   25 0.953
   578  H   0.995    C   46 0.952
   579  H   0.968    N   63 0.958
   580  H   0.993    C   94 0.947
   581  H   0.966    N  107 0.953
   582  H   0.995    C  109 0.953
   583  H   0.968    N  126 0.958
   584  H   0.994    C  128 0.954
   585  H   0.968    N  145 0.957
   586  H   0.996    C  167 0.955
   587  H   0.972    N  187 0.961
   588  H   0.994    C  189 0.953
   589  H   0.967    N  206 0.955
   590  H   0.995    C  258 0.955
   591  H   0.969    N  270 0.959
   592  H   0.994    C  282 0.950
   593  H   0.962    N  299 0.950
   594  H   0.994    C  515 0.952
   595  H   0.969    N  534 0.956
   596  H   0.995    C  536 0.954
   597  H   0.964    N  549 0.954
   598  H   0.995    C  551 0.955
   599  H   0.967    N  556 0.956
   600  H   0.995    C  558 0.955
 MOs/occ written to file <molden.input>
 
molecular dipole:
                 x           y           z       tot (Debye)
 q only:      -21.516      41.435     -37.580
   full:      -22.461      36.936     -36.727     144.182
molecular quadrupole (traceless):
                xx          xy          yy          xz          yz          zz
 q only:    -1060.113    5413.424    4497.601    -600.491    3016.211   -3437.488
  q+dip:    -1025.812    4992.834    4219.605    -565.270    2743.271   -3193.793
   full:    -1027.395    4996.721    4219.385    -562.100    2739.818   -3191.990
speedup  0.87
cpu  time for grad   24.34 s
wall time for grad   28.04 s

SCC energy    :    -897.0455592
rep           :      11.1615247
ES            :       2.9960717
AES           :      -0.1510973
AXC           :       0.3233365
disp          :      -0.7599686
XB            :       0.0000000
fix           :       0.0000000
Gborn         :       0.0000000
Gsasa         :       0.0000000
Ghb           :       0.0000000
Gshift        :       0.0000000
Gsolv         :      -0.9450079     -593.00
Etot ala COSMO:    -897.0455592
grad norm     :       0.7959622
total E       :    -885.8127825
atomizationE  :     164.8498488   103444.84
(atE without considering molecular charge,
 total energy contains solvation terms)
H-L gap (eV)  :          1.4243

------------------------------------------------------------------------
 * finished run on 2019/03/14 at 16:03:47.227     
------------------------------------------------------------------------
 total:
 * wall-time:     0 d,  0 h,  0 min, 29.262 sec
 *  cpu-time:     0 d,  0 h,  0 min, 25.520 sec
 * ratio c/w:     0.872 speedup
 SCF:
 * wall-time:     0 d,  0 h,  0 min, 28.930 sec
 *  cpu-time:     0 d,  0 h,  0 min, 25.229 sec
 * ratio c/w:     0.872 speedup

