      -----------------------------------------------------------      
     |                   =====================                   |     
     |                           x T B                           |     
     |                   =====================                   |     
     |                         S. Grimme                         |     
     |          Mulliken Center for Theoretical Chemistry        |     
     |                    University of Bonn                     |     
     |                Version 6.1 RC1 (SAW190329)                |     
      -----------------------------------------------------------      

   This program is distributed in the hope that it will be useful,
   but WITHOUT ANY WARRANTY; without even the implied warranty of
   MERCHANTABILITY or FITNESS FOR A PARTICULAR PURPOSE.
   
   FOR NON-COMMERCIAL, ACADEMIA USE ONLY.
   
   Cite this work as:
   S. Grimme, C. Bannwarth, P. Shushkov, J. Comput. Theory Chem., 2017,
   13, 1989-2009. DOI: 10.1021/acs.jctc.7b00118
   C. Bannwarth, S. Ehlert and S. Grimme., J. Comput. Theory Chem., 2019,
   just accepted. DOI: 10.1021/acs.jctc.8b01176
   
   for sTDA-xTB:
   S. Grimme and C. Bannwarth, J. Chem. Phys., 2016, 145, 054103.
   DOI: 10.1063/1.4959605
   
   in the mass-spec context:
   V. Asgeirsson, C. Bauer and S. Grimme, Chem. Sci., 2017, 8, 4879.
   DOI: 10.1039/c7sc00601b
   
   for metadynamics refer to:
   S. Grimme, ChemRxiv, Preprint. DOI: 10.26434/chemrxiv.7660532.v1
   
   with help from (in alphabetical order)
   C. Bannwarth, F. Bohle, G. Brandenburg, E. Caldeweyher, M. Checinski,
   S. Dohm, S. Ehlert, S. Ehrlich, F. März, H. Neugebauer, J. Pisarek,
   P. Pracht, P. Shushkov, and S. Spicher.
   
 * started run on 2019/05/31 at 02:07:07.369     

           -------------------------------------------------
          |                Calculation Setup                |
           -------------------------------------------------

          program call               : /home/lum/qr/xtb-190329/bin/xtb xtb_tmp.xyz --chrg 1 --grad --gfn 2 --etemp 500 --acc 0.1 --gbsa h2o --parallel 4
          hostname                   : cu39
          coordinate file            : xtb_tmp.xyz
          omp threads                :                     4
          number of atoms            :                   634
          number of electrons        :                  1708
          charge                     :                     1
          spin                       :                   0.0
          first test random number   :      0.66563008752584


molecular fragmentation (1/2 indicates fragments):
111111111111111111111111111111111111111111111111111111111111111111111111
111111111111111111111111111111111111111111111111122222222222222222222222
222222222222222222222222222222222222222222222222222222222222222222222222
222222222222222222222222222222222222222222222222222222222222222222222222
222222222222222222222222222222222222222222222222222222222222222222222222
222222222222222222222222222222222222222222222222222222222222222222222222
222222222222222222222222222222222222222222222222222222222222222222222222
222222222222222222222222222222222222222222222222222222222222222222222222
2222222222222222222222222222222222112222222222222222222222
# atoms in fragment 1/2:   123   511
 fragment masses (1/2) :      864.01     3470.17
CMA distance (Bohr)    :  10.160
constraining FC (au)   :  0.0500

########################################################################
# WARNING! Please study the warnings concerning your input carefully
#  - XTBPATH is not set, using XTBHOME instead
#  - Process number higher than OMP_NUM_THREADS, I hope you know what you are doing.
########################################################################

           ------------------------------------------------- 
          |                 G F N 2 - x T B                 |
          | Geometry, Frequencies, Noncovalent interactions |
          |            JCTC 2018 parametrisation            |
           ------------------------------------------------- 
 
             k(s)              :                1.8500
             k(p)              :                2.2300
             k(d)              :                2.2300
             k(f)              :                2.0000
             kEN (H0ij)        :               -2.0000
             D4 a1             :                0.5200
             D4 a2             :                5.0000
             D4 s6             :                1.0000
             D4 s8             :                2.7000
             D4 s9             :                5.0000
             alphaj            :                2.0000

  Z AO/shell   Hii/eV     exponent
  1     Wed Apr 25 08:07:45 CEST 2018   EN: 2.200 GM2: 0.406  GM3: 0.0800  RAES: 1.40
     1s    -10.707211    1.230000
  6     Wed Apr 25 08:07:45 CEST 2018   EN: 2.550 GM2: 0.538  GM3: 0.1500  RAES: 3.00
     2s    -13.970922    2.096432
     2p    -10.063292    1.800000
  7     Wed Apr 25 08:07:45 CEST 2018   EN: 3.040 GM2: 0.461  GM3:-0.0640  RAES: 1.90
     2s    -16.686243    2.339881
     2p    -12.523956    2.014332
  8     Wed Apr 25 08:07:45 CEST 2018   EN: 3.440 GM2: 0.452  GM3:-0.0517  RAES: 1.80
     2s    -20.229985    2.439742
     2p    -15.503117    2.137023

 Solvent             : h2o
 Using internal parameter file: .param_gbsa2_h2o
 Gsolv ref. state (COSMO-RS): gsolv [1 M gas/solution]
 temperature (mdtemp)       :    298.150000000000     
 dielectric constant        :    80.2000000000000     
 rho                        :    1.00000000000000     
 mass                       :    18.0000000000000     
 surface tension            :    15.5689454083859     
 probe radius               :   0.975313790000000     
 vdW radii scaling          :    1.00000000000000     
 Gshift (Eh)                :   1.857443126794793E-003
 c1                         :    1.55243817000000     
 soset                      :   0.130326360000000     
 HB correction              :  T
 Number of grid points      :          230

            Z     q(EN)     CN     RAES       Cart. coordinates
     1  N   5.0   -0.73    3.00    1.93    23.26521    43.11211    53.31949
     2  C   4.0    0.08    3.98    3.59    25.56555    44.50391    52.77396
     3  C   4.0    0.28    3.01    3.02    27.80780    42.76867    52.24304
     4  O   6.0   -0.48    1.00    1.80    29.45943    43.36021    50.71569
     5  C   4.0   -0.09    3.98    3.58    26.15118    46.37899    54.92642
     6  C   4.0   -0.21    3.98    3.59    26.65611    45.03321    57.42329
     7  C   4.0   -0.21    3.98    3.59    28.40244    48.04124    54.22806
     8  H   1.0    0.26    1.00    1.43    22.36904    43.48240    54.96257
     9  H   1.0    0.10    0.99    1.43    25.26196    45.58326    51.02387
    10  H   1.0    0.11    0.99    1.43    24.47467    47.57735    55.12425
    11  H   1.0    0.10    0.99    1.43    27.03783    46.43371    58.87420
    12  H   1.0    0.11    0.99    1.43    25.05968    43.90895    58.04550
    13  H   1.0    0.14    0.99    1.43    28.29058    43.80607    57.25320
    14  H   1.0    0.11    0.99    1.43    28.65338    49.51630    55.63280
    15  H   1.0    0.14    0.99    1.43    30.11971    46.91817    54.17164
    16  H   1.0    0.11    0.99    1.43    28.14172    48.92327    52.39244
    17  N   5.0   -0.48    3.01    1.93    27.91868    40.61911    53.54981
    18  C   4.0    0.08    4.00    3.62    29.99595    38.88312    53.20375
    19  C   4.0    0.27    3.01    3.02    30.23767    37.90913    50.48339
    20  O   6.0   -0.47    1.00    1.80    32.25123    37.04184    49.73224
    21  C   4.0   -0.14    3.99    3.60    29.69817    36.62336    54.99289
    22  C   4.0   -0.03    3.03    3.02    30.35622    37.33617    57.66281
    23  C   4.0   -0.08    3.03    3.02    32.85590    37.61735    58.41356
    24  C   4.0   -0.09    3.03    3.02    28.45813    37.76863    59.41863
    25  C   4.0   -0.09    3.03    3.02    33.44027    38.26786    60.87704
    26  C   4.0   -0.10    3.03    3.02    29.03499    38.43586    61.87998
    27  C   4.0   -0.09    3.03    3.02    31.53252    38.67458    62.62103
    28  H   1.0    0.24    1.00    1.43    26.42664    40.00703    54.58146
    29  H   1.0    0.14    0.99    1.43    31.76777    39.88048    53.62651
    30  H   1.0    0.10    0.99    1.43    27.74829    35.96226    54.88736
    31  H   1.0    0.10    0.99    1.43    30.93006    35.10852    54.33284
    32  H   1.0    0.11    1.00    1.43    34.36543    37.33726    57.06906
    33  H   1.0    0.11    1.00    1.43    26.51758    37.57504    58.82871
    34  H   1.0    0.12    1.00    1.43    35.39276    38.47147    61.42838
    35  H   1.0    0.12    1.00    1.43    27.53994    38.77633    63.22342
    36  H   1.0    0.12    1.00    1.43    31.98855    39.17589    64.54583
    37  N   5.0   -0.48    3.01    1.93    28.14287    37.99945    49.09130
    38  C   4.0    0.07    3.99    3.60    27.95428    37.07129    46.53702
    39  C   4.0    0.28    3.01    3.02    28.06585    39.19979    44.57364
    40  O   6.0   -0.42    1.00    1.80    27.26139    38.91461    42.42923
    41  C   4.0   -0.13    3.99    3.60    25.48687    35.58693    46.22693
    42  C   4.0   -0.10    3.98    3.58    25.10761    33.50661    48.21065
    43  C   4.0   -0.22    3.98    3.59    22.67777    32.05309    47.64779
    44  C   4.0   -0.21    3.98    3.59    27.34313    31.68714    48.30439
    45  H   1.0    0.25    1.00    1.43    26.54722    38.84111    49.74658
    46  H   1.0    0.16    0.99    1.43    29.58921    35.85098    46.16024
    47  H   1.0    0.11    0.99    1.43    23.92532    36.93128    46.35395
    48  H   1.0    0.12    0.99    1.43    25.48947    34.78296    44.33103
    49  H   1.0    0.12    0.99    1.43    24.91881    34.40657    50.06617
    50  H   1.0    0.11    0.99    1.43    22.26088    30.74216    49.17453
    51  H   1.0    0.11    0.99    1.43    21.10055    33.35061    47.43640
    52  H   1.0    0.11    0.99    1.43    22.88179    30.97218    45.91277
    53  H   1.0    0.10    0.99    1.43    26.92940    30.08942    49.52862
    54  H   1.0    0.13    0.99    1.43    27.76244    30.95136    46.43255
    55  H   1.0    0.12    0.99    1.43    29.02672    32.62421    49.01909
    56  N   5.0   -0.46    3.01    1.93    29.06027    41.39363    45.37405
    57  C   4.0    0.08    3.99    3.60    29.38402    43.52249    43.69286
    58  C   4.0    0.29    3.00    3.02    32.05694    43.51204    42.55792
    59  O   6.0   -0.42    1.00    1.80    33.54646    41.79284    42.94533
    60  C   4.0   -0.02    3.98    3.58    28.76045    46.00493    45.09709
    61  O   6.0   -0.49    1.99    1.82    30.61660    46.72308    46.84014
    62  H   1.0    0.30    1.00    1.43    29.81251    41.55598    47.12484
    63  H   1.0    0.13    0.99    1.43    28.04242    43.24109    42.13601
    64  H   1.0    0.11    0.99    1.43    28.57151    47.55076    43.73914
    65  H   1.0    0.11    0.99    1.43    26.92596    45.75101    46.02269
    66  H   1.0    0.30    0.99    1.43    30.42399    45.69663    48.36335
    67  N   5.0   -0.51    3.01    1.93    32.56550    45.47213    41.02889
    68  C   4.0    0.08    3.99    3.60    35.01191    45.84055    39.82212
    69  C   4.0    0.29    3.01    3.02    36.78201    46.98268    41.82703
    70  O   6.0   -0.42    1.00    1.80    37.15079    49.24680    42.01441
    71  C   4.0   -0.00    3.98    3.58    34.72866    47.54999    37.48874
    72  O   6.0   -0.50    1.99    1.82    36.71098    47.24728    35.76825
    73  H   1.0    0.23    1.00    1.43    31.34543    46.93274    40.92823
    74  H   1.0    0.15    0.99    1.43    35.73787    43.99560    39.24695
    75  H   1.0    0.12    0.99    1.43    32.99844    47.02260    36.48545
    76  H   1.0    0.13    0.99    1.43    34.57683    49.51552    38.12382
    77  H   1.0    0.32    0.99    1.43    38.22166    48.12934    36.38157
    78  N   5.0   -0.47    3.01    1.93    37.76725    45.24429    43.39602
    79  C   4.0    0.07    3.99    3.61    38.76502    45.95553    45.83812
    80  C   4.0    0.26    3.01    3.02    41.23520    44.63839    46.54038
    81  O   6.0   -0.49    1.00    1.80    42.01017    44.80864    48.72662
    82  C   4.0   -0.19    3.98    3.59    36.79615    45.42072    47.89286
    83  H   1.0    0.28    1.00    1.43    37.14617    43.43821    43.23394
    84  H   1.0    0.13    0.99    1.43    39.13158    47.99422    45.76034
    85  H   1.0    0.11    0.99    1.43    37.53672    45.96057    49.72760
    86  H   1.0    0.14    0.99    1.43    35.07603    46.47845    47.51642
    87  H   1.0    0.14    0.99    1.43    36.35510    43.41234    47.91226
    88  N   5.0   -0.47    3.01    1.93    42.49266    43.41667    44.74118
    89  C   4.0    0.08    4.00    3.62    44.57674    41.76188    45.39892
    90  C   4.0    0.26    3.01    3.02    46.89263    42.24747    43.73833
    91  O   6.0   -0.43    1.00    1.80    46.71646    42.49410    41.44848
    92  C   4.0   -0.13    3.99    3.60    43.69169    39.00363    45.02533
    93  C   4.0   -0.02    3.12    3.03    41.53236    38.45007    46.75449
    94  C   4.0    0.03    3.22    3.04    39.00711    38.52228    46.20092
    95  C   4.0    0.01    3.18    3.03    41.71798    37.83732    49.37632
    96  N   5.0   -0.48    3.10    1.94    37.61431    37.96564    48.30164
    97  C   4.0    0.12    3.23    3.04    39.21545    37.51626    50.26482
    98  C   4.0   -0.10    3.02    3.02    43.72741    37.51730    51.04965
    99  C   4.0   -0.10    3.02    3.02    38.71555    36.85547    52.75545
   100  C   4.0   -0.11    3.03    3.02    43.22007    36.80748    53.49858
   101  C   4.0   -0.12    3.03    3.02    40.73793    36.48030    54.34975
   102  H   1.0    0.30    1.00    1.43    41.70881    43.13444    43.00622
   103  H   1.0    0.17    0.99    1.43    45.01922    42.10166    47.38661
   104  H   1.0    0.14    0.99    1.43    43.10246    38.78652    43.06066
   105  H   1.0    0.10    0.99    1.43    45.26438    37.74199    45.44379
   106  H   1.0    0.14    1.00    1.43    38.10681    38.93101    44.42812
   107  H   1.0    0.29    1.00    1.43    35.71564    37.81851    48.40479
   108  H   1.0    0.13    1.00    1.43    45.64295    37.85157    50.45349
   109  H   1.0    0.12    1.00    1.43    36.79051    36.65088    53.38744
   110  H   1.0    0.12    0.99    1.43    44.77254    36.49971    54.79144
   111  H   1.0    0.11    0.99    1.43    40.41671    35.96375    56.29891
   112  N   5.0   -0.48    3.01    1.93    49.11375    42.18902    44.97968
   113  C   4.0    0.07    3.99    3.60    51.49028    42.62986    43.70762
   114  C   4.0    0.05    3.00    3.02    53.31948    40.46970    44.25716
   115  O   6.0   -0.46    1.00    1.80    53.13524    39.14597    46.14851
   116  C   4.0   -0.21    3.98    3.59    52.70692    45.11755    44.55390
   117  H   1.0    0.28    1.00    1.43    49.09568    42.18758    46.89631
   118  H   1.0    0.15    0.99    1.43    51.07882    42.73918    41.68031
   119  H   1.0    0.09    0.99    1.43    54.49782    45.39430    43.58320
   120  H   1.0    0.12    0.99    1.43    51.46380    46.67961    44.07294
   121  H   1.0    0.10    0.99    1.43    53.05039    45.10740    46.58123
   122  N   5.0   -0.71    3.00    1.93    63.13534    46.46398    42.82331
   123  C   4.0    0.06    3.98    3.58    62.51441    48.75045    44.19818
   124  C   4.0    0.08    3.00    3.02    64.87192    49.87182    45.44599
   125  O   6.0   -0.41    1.00    1.80    65.42255    52.10803    45.16307
   126  C   4.0   -0.15    3.99    3.60    60.45537    48.18578    46.13694
   127  C   4.0   -0.10    3.98    3.58    59.70408    50.46517    47.76414
   128  C   4.0   -0.23    3.98    3.59    58.80015    52.68886    46.16473
   129  C   4.0   -0.24    3.99    3.59    57.63792    49.65809    49.61010
   130  H   1.0    0.25    1.00    1.43    62.25694    44.83884    43.31504
   131  H   1.0    0.12    0.99    1.43    61.86440    50.15992    42.81847
   132  H   1.0    0.09    0.99    1.43    58.80598    47.48428    45.10946
   133  H   1.0    0.11    0.99    1.43    61.14188    46.65726    47.34405
   134  H   1.0    0.12    0.99    1.43    61.37029    51.07968    48.82408
   135  H   1.0    0.10    0.99    1.43    58.02967    54.15806    47.37402
   136  H   1.0    0.12    0.99    1.43    60.35654    53.50056    45.09801
   137  H   1.0    0.09    0.99    1.43    57.33817    52.08807    44.85025
   138  H   1.0    0.09    0.99    1.43    57.11904    51.23104    50.82140
   139  H   1.0    0.09    0.99    1.43    55.97581    49.04509    48.57001
   140  H   1.0    0.09    0.99    1.43    58.29700    48.10626    50.78125
   141  N   5.0   -0.71    3.00    1.93    55.67740    61.24328    36.36633
   142  C   4.0    0.07    3.98    3.59    54.57020    60.23628    38.66183
   143  C   4.0    0.27    3.01    3.02    51.86058    59.36663    38.18013
   144  O   6.0   -0.47    1.00    1.80    51.16787    57.21180    38.66400
   145  C   4.0   -0.13    3.99    3.60    54.61249    62.17973    40.81304
   146  C   4.0   -0.04    3.03    3.02    57.10028    62.16255    42.18817
   147  C   4.0   -0.10    3.03    3.02    57.63118    60.24333    43.90211
   148  C   4.0   -0.09    3.03    3.02    58.90181    64.01628    41.75320
   149  C   4.0   -0.10    3.03    3.02    59.92013    60.18048    45.16073
   150  C   4.0   -0.09    3.03    3.02    61.19363    63.96138    43.01591
   151  C   4.0   -0.09    3.03    3.02    61.70072    62.04637    44.72135
   152  H   1.0    0.26    1.00    1.43    56.26135    63.06717    36.32828
   153  H   1.0    0.11    0.99    1.43    55.61859    58.52852    39.20496
   154  H   1.0    0.10    0.99    1.43    54.22085    64.03752    40.00952
   155  H   1.0    0.10    0.99    1.43    53.10397    61.69009    42.13388
   156  H   1.0    0.10    0.99    1.43    56.24114    58.78453    44.23053
   157  H   1.0    0.11    1.00    1.43    58.50480    65.48715    40.39638
   158  H   1.0    0.11    1.00    1.43    60.31691    58.67544    46.47632
   159  H   1.0    0.12    1.00    1.43    62.59012    65.40488    42.66293
   160  H   1.0    0.12    1.00    1.43    63.48578    62.01306    45.70805
   161  N   5.0   -0.50    3.01    1.93    50.26826    61.14392    37.35760
   162  C   4.0    0.07    3.99    3.61    47.61434    60.56072    37.02689
   163  C   4.0    0.31    3.01    3.02    47.21301    57.99378    35.73488
   164  O   6.0   -0.41    1.00    1.80    45.49654    56.57964    36.37894
   165  C   4.0   -0.02    3.98    3.58    46.28811    62.68394    35.55325
   166  O   6.0   -0.45    1.99    1.82    46.74081    62.67893    32.94741
   167  H   1.0    0.23    1.00    1.43    50.90827    62.88092    36.85670
   168  H   1.0    0.11    0.99    1.43    46.71236    60.41614    38.89322
   169  H   1.0    0.13    0.99    1.43    44.24546    62.48050    35.77692
   170  H   1.0    0.10    0.99    1.43    46.89053    64.49246    36.38938
   171  H   1.0    0.26    0.99    1.43    48.56803    62.53330    32.65765
   172  N   5.0   -0.47    3.01    1.93    48.79345    57.49818    33.83621
   173  C   4.0    0.07    3.99    3.60    48.53159    55.37601    32.15393
   174  C   4.0    0.28    3.01    3.02    49.18531    52.79700    33.28517
   175  O   6.0   -0.44    1.00    1.80    48.74751    50.88937    32.03444
   176  C   4.0   -0.13    3.99    3.60    50.21184    55.83295    29.83654
   177  C   4.0   -0.11    3.97    3.58    49.24409    57.96571    28.15971
   178  C   4.0    0.32    2.99    3.02    51.27737    58.65157    26.13564
   179  O   6.0   -0.36    1.00    1.80    51.93624    56.93603    24.65974
   180  O   6.0   -0.36    1.00    1.80    52.08733    60.86569    26.14118
   181  H   1.0    0.25    1.00    1.43    50.21046    58.70928    33.42494
   182  H   1.0    0.14    0.99    1.43    46.54128    55.24226    31.56483
   183  H   1.0    0.13    0.99    1.43    52.11439    56.28413    30.51337
   184  H   1.0    0.14    0.99    1.43    50.35099    54.10604    28.72081
   185  H   1.0    0.13    0.99    1.43    47.52315    57.37429    27.18534
   186  H   1.0    0.14    0.99    1.43    48.83985    59.65576    29.26420
   187  N   5.0   -0.48    3.00    1.93    50.17763    52.69530    35.59984
   188  C   4.0    0.08    4.00    3.62    51.01087    50.29992    36.62111
   189  C   4.0    0.27    3.01    3.02    48.92598    48.84112    37.98773
   190  O   6.0   -0.43    1.00    1.80    49.16776    46.58717    38.45636
   191  C   4.0   -0.09    3.98    3.59    53.29358    50.51780    38.41568
   192  C   4.0   -0.22    3.98    3.59    55.49689    51.83699    37.10703
   193  C   4.0   -0.21    3.98    3.59    52.59603    51.82368    40.88803
   194  H   1.0    0.30    1.00    1.43    50.58997    54.29283    36.57264
   195  H   1.0    0.14    0.99    1.43    51.58836    49.11802    35.01494
   196  H   1.0    0.11    0.99    1.43    53.86248    48.56462    38.81432
   197  H   1.0    0.10    0.99    1.43    57.08454    52.00741    38.39988
   198  H   1.0    0.11    0.99    1.43    56.12195    50.74462    35.47816
   199  H   1.0    0.13    0.99    1.43    54.97698    53.71882    36.46509
   200  H   1.0    0.09    0.99    1.43    54.22680    51.85364    42.13396
   201  H   1.0    0.15    0.99    1.43    51.99837    53.75585    40.55694
   202  H   1.0    0.13    0.99    1.43    51.06991    50.82617    41.83052
   203  N   5.0   -0.47    3.01    1.93    46.88674    50.14971    38.71339
   204  C   4.0    0.08    4.00    3.63    44.91987    48.94390    40.19816
   205  C   4.0    0.29    3.01    3.02    42.96595    47.75286    38.42353
   206  O   6.0   -0.43    1.00    1.80    41.30929    49.00736    37.38205
   207  C   4.0   -0.12    3.98    3.59    43.74489    50.84476    42.03190
   208  C   4.0   -0.04    3.12    3.03    45.60164    51.44629    44.07117
   209  C   4.0    0.01    3.21    3.04    46.40909    49.85139    45.94011
   210  C   4.0    0.01    3.18    3.03    47.02377    53.72547    44.34321
   211  N   5.0   -0.49    3.10    1.94    48.23951    50.99835    47.35976
   212  C   4.0    0.10    3.22    3.04    48.66173    53.36421    46.43179
   213  C   4.0   -0.10    3.02    3.02    47.05785    56.02646    43.05374
   214  C   4.0   -0.12    3.02    3.02    50.35183    55.22096    47.19880
   215  C   4.0   -0.10    3.03    3.02    48.70298    57.87138    43.85944
   216  C   4.0   -0.13    3.03    3.02    50.35108    57.46609    45.88427
   217  H   1.0    0.28    1.00    1.43    46.65026    51.97421    38.20659
   218  H   1.0    0.15    0.99    1.43    45.83964    47.41481    41.24949
   219  H   1.0    0.14    0.99    1.43    43.21742    52.54441    40.99244
   220  H   1.0    0.13    0.99    1.43    42.01511    50.02656    42.80126
   221  H   1.0    0.14    1.00    1.43    45.80831    47.96070    46.36156
   222  H   1.0    0.23    1.00    1.43    49.11363    50.23511    48.86435
   223  H   1.0    0.14    1.00    1.43    45.83534    56.33787    41.44987
   224  H   1.0    0.10    1.00    1.43    51.61592    54.91704    48.76754
   225  H   1.0    0.11    0.99    1.43    48.74979    59.67865    42.90796
   226  H   1.0    0.10    1.00    1.43    51.64449    58.95074    46.42178
   227  N   5.0   -0.47    3.01    1.93    43.30059    45.28429    38.06916
   228  C   4.0    0.08    3.99    3.61    41.84860    43.78524    36.30274
   229  C   4.0    0.27    3.02    3.02    40.04232    42.04369    37.72139
   230  O   6.0   -0.43    1.00    1.80    40.31940    41.56309    39.98083
   231  C   4.0   -0.14    3.98    3.59    43.66479    42.19096    34.69456
   232  C   4.0   -0.15    3.98    3.58    45.26332    43.78795    32.89017
   233  C   4.0   -0.15    3.98    3.58    43.70147    44.96283    30.75692
   234  C   4.0   -0.05    3.98    3.58    45.18732    46.87186    29.19395
   235  N   5.0   -0.73    3.98    2.82    47.26159    45.62250    27.74889
   236  H   1.0    0.30    1.00    1.43    44.66906    44.34275    39.04637
   237  H   1.0    0.13    0.99    1.43    40.74713    45.08875    35.14396
   238  H   1.0    0.14    0.99    1.43    44.90954    41.19110    35.99872
   239  H   1.0    0.12    0.99    1.43    42.59035    40.78984    33.63962
   240  H   1.0    0.15    0.99    1.43    46.19397    45.27635    33.97214
   241  H   1.0    0.11    0.99    1.43    46.70545    42.53868    32.11437
   242  H   1.0    0.10    0.99    1.43    42.93491    43.48056    29.54598
   243  H   1.0    0.11    0.99    1.43    42.10491    45.98595    31.55743
   244  H   1.0    0.12    0.99    1.43    43.92962    47.80806    27.85883
   245  H   1.0    0.16    0.99    1.43    46.02883    48.30846    30.41287
   246  H   1.0    0.25    1.00    1.43    48.20382    46.93872    26.67113
   247  H   1.0    0.25    1.00    1.43    48.53183    44.83473    28.99398
   248  H   1.0    0.24    1.00    1.43    46.53822    44.22903    26.59579
   249  N   5.0   -0.34    3.03    1.93    38.14902    41.02639    36.39529
   250  C   4.0    0.07    4.03    3.67    36.67984    38.99169    37.52441
   251  C   4.0    0.28    3.01    3.02    38.44404    36.77122    38.04753
   252  O   6.0   -0.41    1.00    1.80    40.34364    36.40462    36.80513
   253  C   4.0   -0.13    4.01    3.63    34.73714    38.26083    35.49431
   254  C   4.0   -0.14    4.01    3.64    34.62247    40.59566    33.79951
   255  C   4.0   -0.05    4.02    3.65    37.34635    41.54513    33.82449
   256  H   1.0    0.14    0.99    1.43    35.78108    39.61776    39.28232
   257  H   1.0    0.13    0.99    1.43    35.41718    36.63179    34.42657
   258  H   1.0    0.11    0.99    1.43    32.92302    37.77909    36.32747
   259  H   1.0    0.10    0.99    1.43    33.96342    40.15820    31.90539
   260  H   1.0    0.12    0.99    1.43    33.38185    42.01526    34.62726
   261  H   1.0    0.11    0.99    1.43    38.49206    40.46773    32.48419
   262  H   1.0    0.12    0.99    1.43    37.46112    43.55992    33.42196
   263  N   5.0   -0.51    3.01    1.93    37.71023    35.21993    39.92267
   264  C   4.0    0.10    3.99    3.61    38.91834    32.76897    40.20633
   265  C   4.0    0.27    3.02    3.02    36.88291    30.89943    41.04653
   266  O   6.0   -0.43    1.01    1.80    35.82148    29.62326    39.41530
   267  C   4.0   -0.02    3.97    3.58    41.34373    32.95218    41.80038
   268  O   6.0   -0.50    1.99    1.82    41.83767    30.58412    42.91906
   269  H   1.0    0.26    1.00    1.43    36.07442    35.53201    40.85042
   270  H   1.0    0.15    0.99    1.43    39.44939    32.13981    38.30137
   271  H   1.0    0.12    0.99    1.43    42.87246    33.49832    40.51144
   272  H   1.0    0.11    0.99    1.43    41.12003    34.44456    43.22019
   273  H   1.0    0.23    0.99    1.43    43.28009    30.74839    44.02570
   274  N   5.0   -0.32    3.04    1.93    36.20026    30.72883    43.46238
   275  C   4.0    0.07    4.05    3.70    34.04996    29.11479    44.04514
   276  C   4.0    0.27    3.01    3.02    31.70419    30.37171    42.92003
   277  O   6.0   -0.42    1.00    1.80    31.45523    32.67467    42.90388
   278  C   4.0   -0.14    4.01    3.63    33.91661    29.00453    46.94288
   279  C   4.0   -0.14    4.01    3.64    36.32200    30.34303    47.81572
   280  C   4.0   -0.03    4.03    3.67    36.83758    32.19967    45.67824
   281  H   1.0    0.14    0.99    1.43    34.31861    27.26318    43.17553
   282  H   1.0    0.11    0.99    1.43    32.25482    30.01538    47.61071
   283  H   1.0    0.10    0.99    1.43    33.81207    27.06595    47.60753
   284  H   1.0    0.11    0.99    1.43    36.08815    31.28730    49.62565
   285  H   1.0    0.11    0.99    1.43    37.88064    29.00580    47.93049
   286  H   1.0    0.14    0.99    1.43    35.54427    33.81068    45.80692
   287  H   1.0    0.12    0.99    1.43    38.77580    32.84774    45.66118
   288  N   5.0   -0.48    3.01    1.93    29.99039    28.75170    42.03764
   289  C   4.0    0.05    3.99    3.60    27.56858    29.50078    41.03332
   290  C   4.0    0.04    3.01    3.02    25.69331    27.45884    41.82064
   291  O   6.0   -0.41    1.00    1.80    26.42540    25.40898    42.60255
   292  C   4.0   -0.14    3.98    3.59    27.59661    29.75764    38.12856
   293  C   4.0   -0.10    3.98    3.59    29.59773    31.67164    37.27933
   294  C   4.0    0.27    3.00    3.02    29.41713    32.09464    34.44613
   295  O   6.0   -0.40    1.00    1.80    30.21411    30.58296    32.90050
   296  N   5.0   -0.65    3.00    1.93    28.22503    34.23152    33.75805
   297  H   1.0    0.30    1.00    1.43    30.32534    26.85371    42.18129
   298  H   1.0    0.12    0.99    1.43    27.07629    31.33781    41.85835
   299  H   1.0    0.12    0.99    1.43    28.00091    27.93283    37.25730
   300  H   1.0    0.11    0.99    1.43    25.74140    30.39054    37.49127
   301  H   1.0    0.13    0.99    1.43    29.35214    33.44728    38.29680
   302  H   1.0    0.16    0.99    1.43    31.47797    30.93174    37.70100
   303  H   1.0    0.26    1.00    1.43    27.66684    35.52515    35.03269
   304  H   1.0    0.29    1.00    1.43    28.08763    34.65591    31.90718
   305  N   5.0   -0.69    3.00    1.93    28.20782    21.95795    38.80872
   306  C   4.0    0.07    3.98    3.59    30.93297    21.66370    38.70125
   307  C   4.0    0.08    3.00    3.02    31.94652    21.74503    41.40661
   308  O   6.0   -0.44    1.00    1.80    31.79012    23.65544    42.70700
   309  C   4.0   -0.08    3.98    3.58    32.18420    23.77680    37.12406
   310  C   4.0   -0.21    3.98    3.59    35.00874    23.24736    36.87374
   311  C   4.0   -0.21    3.98    3.59    30.96346    24.00231    34.52249
   312  H   1.0    0.33    1.00    1.43    27.53887    23.34089    39.95432
   313  H   1.0    0.12    0.99    1.43    31.29817    19.83336    37.81122
   314  H   1.0    0.14    0.99    1.43    31.95657    25.56431    38.14130
   315  H   1.0    0.13    0.99    1.43    35.92000    24.83369    35.94048
   316  H   1.0    0.12    0.99    1.43    35.88733    23.01419    38.71843
   317  H   1.0    0.11    0.99    1.43    35.33322    21.55213    35.75765
   318  H   1.0    0.13    0.99    1.43    31.68966    25.65783    33.54606
   319  H   1.0    0.11    0.99    1.43    31.37324    22.33606    33.39102
   320  H   1.0    0.11    0.99    1.43    28.92155    24.19321    34.66141
   321  N   5.0   -0.68    3.00    1.93    36.84660    21.80062    47.39266
   322  C   4.0    0.07    3.98    3.59    39.32038    22.86983    47.90316
   323  C   4.0    0.28    3.02    3.02    41.28576    20.93022    47.00273
   324  O   6.0   -0.34    1.00    1.80    40.92710    18.67121    47.43845
   325  C   4.0   -0.12    3.99    3.60    39.59468    23.31799    50.76253
   326  C   4.0   -0.04    3.03    3.02    41.70027    25.12966    51.36929
   327  C   4.0   -0.08    3.03    3.02    44.20604    24.33956    51.34073
   328  C   4.0   -0.11    3.03    3.02    41.16824    27.63791    51.92602
   329  C   4.0   -0.10    3.03    3.02    46.13750    26.03237    51.83258
   330  C   4.0   -0.11    3.03    3.02    43.09569    29.32360    52.46321
   331  C   4.0   -0.10    3.03    3.02    45.58617    28.52385    52.41566
   332  H   1.0    0.26    1.00    1.43    35.59039    21.66041    48.83376
   333  H   1.0    0.10    0.99    1.43    39.52887    24.63829    46.85662
   334  H   1.0    0.10    0.99    1.43    37.82269    24.10827    51.45832
   335  H   1.0    0.14    0.99    1.43    39.94563    21.49548    51.66058
   336  H   1.0    0.17    1.00    1.43    44.66824    22.40462    50.90079
   337  H   1.0    0.11    1.00    1.43    39.23614    28.27444    51.98769
   338  H   1.0    0.13    0.99    1.43    48.07810    25.40138    51.73779
   339  H   1.0    0.11    1.00    1.43    42.64798    31.26354    52.91051
   340  H   1.0    0.13    1.00    1.43    47.10880    29.80704    52.85150
   341  N   5.0   -0.34    3.03    1.93    43.37256    21.78077    45.88392
   342  C   4.0    0.06    4.02    3.66    45.46786    20.10641    45.24968
   343  C   4.0    0.08    3.00    3.02    46.06152    18.21520    47.33622
   344  O   6.0   -0.38    1.00    1.80    45.69743    18.64968    49.57004
   345  C   4.0   -0.14    4.01    3.64    47.68272    21.93429    44.90790
   346  C   4.0   -0.15    4.01    3.64    46.40690    24.21766    43.69517
   347  C   4.0   -0.05    4.01    3.65    43.87702    24.36948    45.08642
   348  H   1.0    0.11    0.99    1.43    45.07360    19.09145    43.48451
   349  H   1.0    0.12    0.99    1.43    48.43826    22.42675    46.76677
   350  H   1.0    0.10    0.99    1.43    49.21135    21.12907    43.78765
   351  H   1.0    0.09    0.99    1.43    47.52042    25.92730    43.92229
   352  H   1.0    0.11    0.99    1.43    46.11490    23.86595    41.68776
   353  H   1.0    0.11    0.99    1.43    44.04134    25.59440    46.74187
   354  H   1.0    0.12    0.99    1.43    42.37259    25.04377    43.84400
   355  N   5.0   -0.69    3.00    1.93    52.28427    32.20949    51.58292
   356  C   4.0    0.08    3.98    3.59    51.35629    34.43926    50.30379
   357  C   4.0    0.28    3.01    3.02    51.00228    36.54277    52.26884
   358  O   6.0   -0.44    1.00    1.80    50.42314    36.04483    54.45684
   359  C   4.0   -0.15    3.98    3.59    48.80704    33.92276    48.99439
   360  C   4.0   -0.17    3.98    3.58    48.82928    31.62532    47.24025
   361  C   4.0   -0.15    3.98    3.58    50.41883    31.92512    44.84444
   362  C   4.0   -0.05    3.98    3.58    49.42263    34.00626    43.10845
   363  N   5.0   -0.73    3.98    2.82    50.52057    33.73516    40.52870
   364  H   1.0    0.32    1.00    1.43    51.46210    31.74365    53.25401
   365  H   1.0    0.13    0.99    1.43    52.77788    34.99696    48.91479
   366  H   1.0    0.11    0.99    1.43    47.39401    33.58961    50.45792
   367  H   1.0    0.10    0.99    1.43    48.28036    35.61997    47.95683
   368  H   1.0    0.10    0.99    1.43    49.54357    29.99552    48.28164
   369  H   1.0    0.09    0.99    1.43    46.87701    31.21372    46.72098
   370  H   1.0    0.11    0.99    1.43    52.37932    32.28627    45.36512
   371  H   1.0    0.10    0.99    1.43    50.37911    30.11828    43.84763
   372  H   1.0    0.10    0.99    1.43    47.36792    33.88785    42.96158
   373  H   1.0    0.13    0.99    1.43    49.93033    35.86611    43.83848
   374  H   1.0    0.24    1.00    1.43    49.88469    35.14733    39.34845
   375  H   1.0    0.24    1.00    1.43    52.46365    33.83575    40.61938
   376  H   1.0    0.24    1.00    1.43    50.03573    32.00690    39.75877
   377  N   5.0   -0.50    3.01    1.93    51.32158    38.88379    51.39415
   378  C   4.0    0.08    4.00    3.61    51.05200    41.11817    52.96441
   379  C   4.0    0.27    3.01    3.02    48.45345    42.29065    52.46812
   380  O   6.0   -0.46    1.00    1.80    47.66866    42.54769    50.30592
   381  C   4.0   -0.09    3.98    3.59    53.09586    43.09402    52.36126
   382  C   4.0   -0.23    3.98    3.59    52.86396    45.32804    54.16536
   383  C   4.0   -0.21    3.98    3.59    55.71962    41.92064    52.53566
   384  H   1.0    0.28    1.00    1.43    51.81603    39.15399    49.55726
   385  H   1.0    0.15    0.99    1.43    51.20033    40.52998    54.93854
   386  H   1.0    0.12    0.99    1.43    52.78559    43.75722    50.42411
   387  H   1.0    0.09    0.99    1.43    54.34709    46.69452    53.78365
   388  H   1.0    0.12    0.99    1.43    51.05421    46.27515    53.95703
   389  H   1.0    0.11    0.99    1.43    53.05768    44.68914    56.10689
   390  H   1.0    0.09    0.99    1.43    57.14660    43.38128    52.31337
   391  H   1.0    0.12    0.99    1.43    55.98421    41.02214    54.36531
   392  H   1.0    0.13    0.99    1.43    55.98422    40.53072    51.04936
   393  N   5.0   -0.50    3.01    1.93    47.16489    42.97968    54.52070
   394  C   4.0    0.08    3.99    3.61    44.55361    43.80229    54.45842
   395  C   4.0    0.28    3.01    3.02    44.31910    46.67889    54.78780
   396  O   6.0   -0.45    1.00    1.80    44.92148    47.75838    56.75071
   397  C   4.0   -0.12    3.99    3.61    43.16449    42.49376    56.63241
   398  C   4.0   -0.03    3.03    3.02    40.38153    43.01647    56.79628
   399  C   4.0   -0.10    3.03    3.02    38.83267    43.09509    54.67517
   400  C   4.0   -0.09    3.04    3.02    39.28147    43.29804    59.16297
   401  C   4.0   -0.09    3.03    3.02    36.25294    43.43387    54.91937
   402  C   4.0   -0.09    3.03    3.02    36.71089    43.64949    59.42901
   403  C   4.0    0.09    3.03    3.02    35.17406    43.70067    57.30263
   404  O   6.0   -0.49    1.99    1.83    32.62665    44.00498    57.47894
   405  H   1.0    0.27    1.00    1.43    47.94869    42.70735    56.24439
   406  H   1.0    0.15    0.99    1.43    43.79755    43.26190    52.61357
   407  H   1.0    0.12    0.99    1.43    43.43666    40.45774    56.42742
   408  H   1.0    0.12    0.99    1.43    44.06084    43.09652    58.38964
   409  H   1.0    0.13    1.00    1.43    39.63071    42.85584    52.81568
   410  H   1.0    0.12    1.00    1.43    40.44471    43.20908    60.83407
   411  H   1.0    0.13    1.00    1.43    35.03927    43.48421    53.28065
   412  H   1.0    0.12    1.00    1.43    35.88588    43.88513    61.28066
   413  H   1.0    0.25    0.99    1.43    32.15372    44.23350    59.22771
   414  N   5.0   -0.50    3.01    1.93    43.32541    47.85119    52.78546
   415  C   4.0    0.07    3.99    3.60    42.92982    50.56049    52.61981
   416  C   4.0    0.29    3.01    3.02    41.58593    51.63610    54.93377
   417  O   6.0   -0.47    1.00    1.80    42.00551    53.78466    55.67677
   418  C   4.0   -0.15    3.98    3.59    41.34754    51.11251    50.24231
   419  C   4.0   -0.14    3.98    3.58    40.44055    53.84094    49.98803
   420  C   4.0   -0.04    3.99    3.59    42.61646    55.74996    49.90126
   421  N   5.0   -0.49    3.02    1.93    41.70689    58.31593    49.62883
   422  C   4.0    0.38    3.00    3.02    40.93928    59.80207    51.52662
   423  N   5.0   -0.64    3.01    1.93    40.96645    59.02007    53.89656
   424  N   5.0   -0.64    3.02    1.93    40.15367    62.13103    50.98881
   425  H   1.0    0.28    1.00    1.43    42.87265    46.81415    51.21919
   426  H   1.0    0.12    0.99    1.43    44.76001    51.52590    52.50344
   427  H   1.0    0.11    0.99    1.43    42.48839    50.62460    48.59564
   428  H   1.0    0.11    0.99    1.43    39.68488    49.89615    50.29298
   429  H   1.0    0.12    0.99    1.43    39.35547    53.99270    48.24347
   430  H   1.0    0.15    0.99    1.43    39.17380    54.30959    51.54470
   431  H   1.0    0.12    0.99    1.43    43.73701    55.64230    51.62826
   432  H   1.0    0.11    0.99    1.43    43.84553    55.34609    48.29363
   433  H   1.0    0.23    1.00    1.43    41.42242    58.94217    47.85176
   434  H   1.0    0.30    1.00    1.43    41.38232    57.21050    54.34682
   435  H   1.0    0.32    1.00    1.43    40.29434    60.15120    55.32624
   436  H   1.0    0.26    1.00    1.43    40.29725    62.80979    49.21506
   437  H   1.0    0.31    1.00    1.43    39.89645    63.39535    52.40583
   438  N   5.0   -0.47    3.01    1.93    39.84715    50.12426    55.98501
   439  C   4.0    0.08    4.00    3.61    38.24971    50.96785    58.02169
   440  C   4.0    0.28    3.02    3.02    38.92536    49.82332    60.58103
   441  O   6.0   -0.42    1.00    1.80    37.46964    49.93436    62.37410
   442  C   4.0   -0.12    3.99    3.60    35.45268    50.60944    57.35123
   443  C   4.0   -0.03    3.03    3.02    34.79201    52.16042    55.06428
   444  C   4.0   -0.09    3.03    3.02    34.75387    54.78677    55.20026
   445  C   4.0   -0.11    3.03    3.02    34.29886    51.01707    52.75798
   446  C   4.0   -0.06    3.03    3.02    34.25326    56.23418    53.08971
   447  C   4.0   -0.10    3.02    3.02    33.76642    52.44350    50.63246
   448  C   4.0    0.10    3.03    3.02    33.75259    55.06692    50.78120
   449  O   6.0   -0.45    1.99    1.83    33.28258    56.56384    48.75149
   450  H   1.0    0.25    1.00    1.43    39.53413    48.37693    55.28096
   451  H   1.0    0.14    0.99    1.43    38.62324    52.99940    58.25117
   452  H   1.0    0.12    0.99    1.43    35.09161    48.61265    56.99549
   453  H   1.0    0.12    0.99    1.43    34.34644    51.20205    58.98564
   454  H   1.0    0.13    0.99    1.43    35.11903    55.72351    56.98019
   455  H   1.0    0.11    1.00    1.43    34.29759    48.98250    52.61458
   456  H   1.0    0.15    1.00    1.43    34.23421    58.26908    53.19832
   457  H   1.0    0.12    1.00    1.43    33.35119    51.50702    48.86694
   458  H   1.0    0.26    0.99    1.43    32.92933    55.54250    47.27944
   459  N   5.0   -0.48    3.01    1.93    41.21400    48.74345    60.76760
   460  C   4.0    0.08    4.00    3.63    42.14399    48.17347    63.27870
   461  C   4.0    0.32    3.01    3.02    42.03337    50.62412    64.86056
   462  O   6.0   -0.40    1.00    1.80    42.69261    52.66060    63.99061
   463  C   4.0   -0.11    3.99    3.60    44.84651    47.13961    63.14962
   464  C   4.0    0.27    3.00    3.02    45.98477    47.17583    65.78530
   465  O   6.0   -0.42    1.00    1.80    46.99516    49.08505    66.63789
   466  N   5.0   -0.66    3.00    1.93    45.72637    45.05496    67.11809
   467  H   1.0    0.30    1.00    1.43    42.49101    48.82922    59.33656
   468  H   1.0    0.12    0.99    1.43    40.86337    46.78589    64.13153
   469  H   1.0    0.10    0.99    1.43    44.81153    45.23783    62.36619
   470  H   1.0    0.12    0.99    1.43    45.96688    48.35650    61.91894
   471  H   1.0    0.29    1.00    1.43    46.40583    44.99466    68.89863
   472  H   1.0    0.29    1.00    1.43    44.85062    43.49485    66.43068
   473  N   5.0   -0.47    3.01    1.93    41.23650    50.31441    67.24319
   474  C   4.0    0.07    3.99    3.60    40.65264    52.43248    68.89146
   475  C   4.0    0.11    3.00    3.02    42.77946    54.39165    68.98360
   476  O   6.0   -0.37    1.00    1.80    42.30183    56.64964    69.03014
   477  C   4.0   -0.21    3.99    3.60    40.16639    51.47443    71.56667
   478  H   1.0    0.23    1.00    1.43    40.44959    48.65416    67.76338
   479  H   1.0    0.15    0.99    1.43    38.97818    53.42776    68.17139
   480  H   1.0    0.12    0.99    1.43    39.78853    53.07210    72.79959
   481  H   1.0    0.11    0.99    1.43    38.53835    50.22273    71.58546
   482  H   1.0    0.12    0.99    1.43    41.81847    50.48210    72.27311
   483  N   5.0   -0.68    3.00    1.93    48.14255    54.48137    65.00588
   484  C   4.0    0.08    3.98    3.59    49.07718    55.31045    62.57803
   485  C   4.0    0.29    3.02    3.02    47.43572    57.39904    61.45608
   486  O   6.0   -0.45    1.00    1.80    48.42324    59.21988    60.40511
   487  C   4.0   -0.13    3.99    3.60    49.25614    53.16937    60.65371
   488  C   4.0   -0.10    3.98    3.58    51.09210    51.04385    61.38275
   489  C   4.0   -0.23    3.99    3.60    51.28001    49.19107    59.17718
   490  C   4.0   -0.22    3.98    3.59    53.72857    52.02277    62.02840
   491  H   1.0    0.31    1.00    1.43    47.80577    52.62086    65.31423
   492  H   1.0    0.11    0.99    1.43    50.94850    56.16797    62.85252
   493  H   1.0    0.14    0.99    1.43    47.36528    52.39798    60.35666
   494  H   1.0    0.10    0.99    1.43    49.87838    54.00112    58.87048
   495  H   1.0    0.13    0.99    1.43    50.36766    50.05558    63.05096
   496  H   1.0    0.10    0.99    1.43    52.58057    47.67772    59.65965
   497  H   1.0    0.13    0.99    1.43    49.44230    48.41230    58.68780
   498  H   1.0    0.10    0.99    1.43    52.02861    50.16150    57.53097
   499  H   1.0    0.11    0.99    1.43    55.00010    50.42859    62.29410
   500  H   1.0    0.10    0.99    1.43    54.45926    53.19978    60.51200
   501  H   1.0    0.11    0.99    1.43    53.74278    53.11099    63.77462
   502  N   5.0   -0.47    3.00    1.93    44.94286    57.05865    61.50686
   503  C   4.0    0.08    4.00    3.61    43.31984    58.73808    60.07123
   504  C   4.0    0.13    3.00    3.02    43.89850    61.52220    60.56757
   505  O   6.0   -0.43    1.00    1.80    44.39168    62.92483    58.76628
   506  C   4.0   -0.10    3.98    3.58    40.50840    58.21549    60.45998
   507  C   4.0    0.32    2.99    3.02    39.03697    60.76684    60.13882
   508  O   6.0   -0.45    1.00    1.80    39.05631    61.71158    57.96690
   509  O   6.0   -0.36    1.00    1.80    38.02092    61.67888    62.03108
   510  H   1.0    0.31    1.00    1.43    44.16421    55.57529    62.43152
   511  H   1.0    0.15    0.99    1.43    43.77922    58.47834    58.06041
   512  H   1.0    0.12    0.99    1.43    39.86787    56.85808    59.05000
   513  H   1.0    0.15    0.99    1.43    40.14761    57.46679    62.34470
   514  N   5.0   -0.69    3.00    1.93    49.79363    63.30489    56.94162
   515  C   4.0    0.08    3.99    3.60    49.51029    63.20432    54.21783
   516  C   4.0    0.29    3.01    3.02    48.08661    65.54732    53.30192
   517  O   6.0   -0.46    1.00    1.80    48.86135    66.86133    51.56454
   518  C   4.0   -0.08    3.98    3.59    48.13342    60.79074    53.38512
   519  C   4.0   -0.21    3.98    3.59    47.48883    60.97043    50.57726
   520  C   4.0   -0.23    3.98    3.59    49.76917    58.47520    53.91432
   521  H   1.0    0.33    1.00    1.43    48.93879    61.96197    58.00603
   522  H   1.0    0.11    0.99    1.43    51.39889    63.28131    53.35963
   523  H   1.0    0.15    0.99    1.43    46.38740    60.65309    54.48832
   524  H   1.0    0.11    0.99    1.43    46.80884    59.16585    49.88516
   525  H   1.0    0.13    0.99    1.43    46.05566    62.40270    50.25565
   526  H   1.0    0.10    0.99    1.43    49.16131    61.48792    49.50598
   527  H   1.0    0.10    0.99    1.43    48.75453    56.77371    53.37862
   528  H   1.0    0.09    0.99    1.43    51.51268    58.57555    52.83446
   529  H   1.0    0.12    0.99    1.43    50.22816    58.35215    55.91328
   530  N   5.0   -0.47    3.01    1.93    45.91097    65.95979    54.50439
   531  C   4.0    0.09    3.99    3.60    44.31864    68.10184    53.92306
   532  C   4.0    0.08    3.00    3.02    45.84378    70.55704    54.08649
   533  O   6.0   -0.40    1.00    1.80    45.84026    72.07882    52.33802
   534  C   4.0    0.05    3.98    3.58    41.97879    68.02023    55.65544
   535  O   6.0   -0.50    1.99    1.82    40.57675    65.84969    54.95589
   536  C   4.0   -0.19    3.98    3.59    40.36459    70.39194    55.34737
   537  H   1.0    0.31    1.00    1.43    45.37551    64.83837    55.96003
   538  H   1.0    0.14    0.99    1.43    43.66986    67.95804    51.95485
   539  H   1.0    0.13    0.99    1.43    42.63406    67.86511    57.61586
   540  H   1.0    0.32    0.99    1.43    40.12153    64.81303    56.40249
   541  H   1.0    0.13    0.99    1.43    38.71022    70.25937    56.55631
   542  H   1.0    0.12    0.99    1.43    41.44302    72.05929    55.86329
   543  H   1.0    0.13    0.99    1.43    39.76244    70.56755    53.39287
   544  N   5.0   -0.68    3.00    1.93    50.49583    71.05523    48.41425
   545  C   4.0    0.07    3.98    3.58    49.22873    71.64527    46.06164
   546  C   4.0    0.09    3.00    3.02    48.64615    74.47253    45.90874
   547  O   6.0   -0.38    1.00    1.80    49.04984    75.70979    43.98742
   548  C   4.0   -0.13    3.99    3.60    46.79252    70.11699    45.79243
   549  C   4.0   -0.10    3.98    3.58    47.24009    67.27828    45.37931
   550  C   4.0   -0.23    3.98    3.59    44.71212    65.89268    45.54313
   551  C   4.0   -0.23    3.98    3.59    48.49308    66.74696    42.83416
   552  H   1.0    0.33    1.00    1.43    49.76503    69.68546    49.53638
   553  H   1.0    0.12    0.99    1.43    50.51431    71.23197    44.48734
   554  H   1.0    0.14    0.99    1.43    45.68173    70.40892    47.50707
   555  H   1.0    0.11    0.99    1.43    45.71914    70.88137    44.20369
   556  H   1.0    0.13    0.99    1.43    48.47045    66.58422    46.88753
   557  H   1.0    0.10    0.99    1.43    45.00532    63.87565    45.30502
   558  H   1.0    0.11    0.99    1.43    43.83811    66.24666    47.36784
   559  H   1.0    0.11    0.99    1.43    43.44597    66.55809    44.06798
   560  H   1.0    0.09    0.99    1.43    48.63645    64.72330    42.51951
   561  H   1.0    0.11    0.99    1.43    47.38868    67.56405    41.30513
   562  H   1.0    0.10    0.99    1.43    50.39122    67.52415    42.74740
   563  N   5.0   -0.72    3.00    1.92    52.71994    43.18200    65.09854
   564  C   4.0    0.01    3.98    3.58    50.83303    43.08202    63.13885
   565  C   4.0    0.04    2.99    3.02    51.18898    41.10239    61.06552
   566  O   6.0   -0.48    1.00    1.80    49.91255    41.24247    59.13947
   567  H   1.0    0.27    1.00    1.43    52.52759    42.01103    66.58811
   568  H   1.0    0.13    0.99    1.43    48.99745    42.70472    64.00799
   569  H   1.0    0.12    0.99    1.43    50.76093    44.93016    62.21669
   570  N   5.0   -0.67    3.00    1.93    50.53671    33.38833    59.29050
   571  C   4.0    0.07    3.98    3.59    48.96749    31.25047    59.94606
   572  C   4.0    0.07    3.00    3.02    49.63150    28.98822    58.27254
   573  O   6.0   -0.42    1.00    1.80    50.48341    29.31902    56.14787
   574  C   4.0   -0.14    3.99    3.60    46.14199    31.86876    59.50403
   575  C   4.0   -0.05    3.03    3.02    45.29347    34.02489    61.14446
   576  C   4.0   -0.10    3.03    3.02    45.86485    36.50872    60.51026
   577  C   4.0   -0.11    3.03    3.02    43.97142    33.57625    63.36719
   578  C   4.0   -0.08    3.03    3.02    45.16432    38.48122    62.06614
   579  C   4.0   -0.10    3.02    3.02    43.23274    35.53959    64.92662
   580  C   4.0    0.10    3.03    3.02    43.85067    38.01114    64.28949
   581  O   6.0   -0.51    1.99    1.83    43.20610    40.02582    65.77777
   582  H   1.0    0.33    1.00    1.43    50.48890    33.95333    57.45531
   583  H   1.0    0.12    0.99    1.43    49.29955    30.84267    61.93973
   584  H   1.0    0.11    0.99    1.43    45.90308    32.34575    57.51066
   585  H   1.0    0.09    0.99    1.43    45.05433    30.17415    59.93856
   586  H   1.0    0.13    1.00    1.43    46.88864    36.93622    58.79941
   587  H   1.0    0.11    0.99    1.43    43.50907    31.65959    63.89628
   588  H   1.0    0.13    1.00    1.43    45.64360    40.39355    61.55570
   589  H   1.0    0.12    0.99    1.43    42.17503    35.13077    66.62646
   590  H   1.0    0.26    0.99    1.43    42.22273    39.43552    67.20163
   591  N   5.0   -0.71    3.00    1.93    41.39608    26.39247    62.49446
   592  C   4.0    0.06    3.98    3.59    39.42440    27.68534    61.09860
   593  C   4.0    0.09    3.00    3.02    36.81245    26.66772    61.79382
   594  O   6.0   -0.39    1.00    1.80    35.10461    28.10694    62.46868
   595  C   4.0   -0.13    3.99    3.61    39.83446    27.33074    58.25247
   596  C   4.0   -0.03    3.03    3.02    37.52264    28.11628    56.79920
   597  C   4.0   -0.09    3.03    3.02    36.91166    30.64945    56.51152
   598  C   4.0   -0.09    3.04    3.02    35.94824    26.30939    55.73360
   599  C   4.0   -0.10    3.03    3.02    34.77921    31.34309    55.17150
   600  C   4.0   -0.10    3.03    3.02    33.79662    27.00033    54.41900
   601  C   4.0   -0.10    3.03    3.02    33.20917    29.53058    54.12912
   602  H   1.0    0.25    1.00    1.43    42.77606    25.53062    61.46953
   603  H   1.0    0.12    0.99    1.43    39.42029    29.70051    61.59590
   604  H   1.0    0.10    0.99    1.43    41.46870    28.43751    57.65530
   605  H   1.0    0.11    0.99    1.43    40.23353    25.33989    57.90230
   606  H   1.0    0.11    1.00    1.43    38.12325    32.08087    57.31129
   607  H   1.0    0.11    1.00    1.43    36.44799    24.34118    55.91814
   608  H   1.0    0.11    1.00    1.43    34.35387    33.31785    54.92461
   609  H   1.0    0.11    1.00    1.43    32.58948    25.57433    53.60845
   610  H   1.0    0.11    1.00    1.43    31.55097    30.08591    53.08123
   611  H   1.0    0.29    1.00    1.43    22.11381    43.42059    52.10637
   612  H   1.0    0.12    1.00    1.43    54.72746    40.09461    43.05385
   613  H   1.0    0.30    1.00    1.43    62.76858    46.67477    41.17600
   614  H   1.0    0.14    1.00    1.43    65.98848    48.77926    46.50933
   615  H   1.0    0.30    1.00    1.43    57.06697    60.34804    35.96610
   616  H   1.0    0.12    1.00    1.43    23.83580    27.78531    41.70176
   617  H   1.0    0.29    1.00    1.43    27.61376    22.31586    37.25580
   618  H   1.0    0.13    1.00    1.43    32.76180    20.21404    42.15659
   619  H   1.0    0.30    1.00    1.43    36.05284    22.74116    46.21883
   620  H   1.0    0.13    1.00    1.43    46.78525    16.52462    46.90124
   621  H   1.0    0.29    1.00    1.43    52.07175    30.85100    50.58196
   622  H   1.0    0.16    1.00    1.43    44.58302    53.82798    69.00630
   623  H   1.0    0.30    1.00    1.43    49.25759    54.90491    66.21825
   624  H   1.0    0.16    1.00    1.43    43.87566    62.19158    62.33462
   625  H   1.0    0.30    1.00    1.43    51.44166    63.18938    57.34562
   626  H   1.0    0.15    1.00    1.43    46.86027    70.93672    55.63364
   627  H   1.0    0.30    1.00    1.43    52.08485    70.54277    48.09026
   628  H   1.0    0.16    1.00    1.43    47.91370    75.36846    47.40269
   629  H   1.0    0.30    1.00    1.43    54.24303    42.80969    64.43966
   630  H   1.0    0.13    1.00    1.43    52.45181    39.71474    61.29083
   631  H   1.0    0.31    1.00    1.43    50.06412    34.74142    60.20612
   632  H   1.0    0.12    1.00    1.43    49.36993    27.22982    58.91336
   633  H   1.0    0.29    1.00    1.43    42.20267    27.50333    63.49844
   634  H   1.0    0.14    1.00    1.43    36.46722    24.81189    61.70555

           ------------------------------------------------- 
          |        Self-Consistent Charge Iterations        |
           ------------------------------------------------- 

          ...................................................
          :                      SETUP                      :
          :.................................................:
          :  # basis functions                1561          :
          :  # atomic orbitals                1561          :
          :  # shells                          943          :
          :  # electrons                      1708          :
          :  max. iterations                   250          :
          :  Hamiltonian                  GFN2-xTB          :
          :  restarted?                      false          :
          :  GBSA solvation                   true          :
          :  PC potential                    false          :
          :  electronic temp.          500.0000000     K    :
          :  accuracy                    0.1000000          :
          :  -> integral cutoff          0.3500000E+02      :
          :  -> integral neglect         0.1000000E-08      :
          :  -> SCF convergence          0.1000000E-06 Eh   :
          :  -> wf. convergence          0.1000000E-04 e    :
          :  Broyden damping             0.4000000          :
          ...................................................

 iter      E             dE          RMSdq      gap      omega  full diag
   1   -971.8298057 -0.971830E+03  0.423E+00    1.64       0.0  T
   2   -974.1484672 -0.231866E+01  0.226E+00    1.42       1.0  T
   3   -974.2307490 -0.822819E-01  0.120E+00    1.68       1.0  T
   4   -974.2734578 -0.427088E-01  0.312E-01    1.04       1.0  T
   5   -974.3130824 -0.396246E-01  0.118E-01    1.18       1.0  T
   6   -974.3154199 -0.233745E-02  0.665E-02    1.17       1.0  T
   7   -974.3162234 -0.803594E-03  0.320E-02    1.13       1.0  T
   8   -974.3163641 -0.140662E-03  0.125E-02    1.11       1.0  T
   9   -974.3163894 -0.252976E-04  0.742E-03    1.10       1.0  T
  10   -974.3163990 -0.963984E-05  0.374E-03    1.09       1.1  T
  11   -974.3164016 -0.255660E-05  0.169E-03    1.09       2.4  T
  12   -974.3164022 -0.591680E-06  0.781E-04    1.08       5.1  T
  13   -974.3164023 -0.890225E-07  0.400E-04    1.08       9.9  T
  14   -974.3164023 -0.274649E-07  0.185E-04    1.08      21.5  T
  15   -974.3164023 -0.650232E-08  0.832E-05    1.08      47.7  T
  16   -974.3164023 -0.126090E-08  0.456E-05    1.08      87.0  T

   *** convergence criteria satisfied after 16 iterations ***

         #    Occupation            Energy/Eh            Energy/eV
      -------------------------------------------------------------
         1        2.0000           -0.7474491             -20.3391
       ...           ...                  ...                  ...
       848        2.0000           -0.3583153              -9.7503
       849        2.0000           -0.3581335              -9.7453
       850        2.0000           -0.3543741              -9.6430
       851        2.0000           -0.3516992              -9.5702
       852        2.0000           -0.3489499              -9.4954
       853        2.0000           -0.3475711              -9.4579
       854        2.0000           -0.3432638              -9.3407 (HOMO)
       855        0.0000           -0.3034951              -8.2585 (LUMO)
       856                         -0.2954908              -8.0407
       857                         -0.2931858              -7.9780
       858                         -0.2914569              -7.9309
       859                         -0.2900780              -7.8934
       ...                                ...                  ...
      1561                          0.7264269              19.7671
      -------------------------------------------------------------
                  HL-Gap            0.0397687 Eh            1.0822 eV
             Fermi-level           -0.3233112 Eh           -8.7977 eV

 SCC (total)                   0 d,  0 h,  0 min, 12.772 sec
 SCC setup                      ...        0 min,  0.178 sec (  1.390%)
 Dispersion                     ...        0 min,  0.134 sec (  1.047%)
 integral evaluation            ...        0 min,  0.416 sec (  3.260%)
 zeroth order Hamiltonian       ...        0 min,  0.016 sec (  0.128%)
 iterations                     ...        0 min, 10.641 sec ( 83.317%)
 molecular gradient             ...        0 min,  1.340 sec ( 10.491%)
 printout                       ...        0 min,  0.047 sec (  0.365%)

         :::::::::::::::::::::::::::::::::::::::::::::::::::::
         ::                     SUMMARY                     ::
         :::::::::::::::::::::::::::::::::::::::::::::::::::::
         :: total energy             -961.654544617377 Eh   ::
         :: total w/o Gsasa/hb       -961.558886771679 Eh   ::
         :: gradient norm               0.770294278904 Eh/α ::
         :: HOMO-LUMO gap               1.082161255581 eV   ::
         ::.................................................::
         :: SCC energy               -974.342252345571 Eh   ::
         :: -> isotropic ES             2.470298350246 Eh   ::
         :: -> anisotropic ES          -0.082214594279 Eh   ::
         :: -> anisotropic XC           0.346895316700 Eh   ::
         :: -> dispersion              -0.900686577762 Eh   ::
         :: -> Gsolv                   -0.564097715368 Eh   ::
         ::    -> Gborn                -0.468439869670 Eh   ::
         ::    -> Gsasa                -0.027707472588 Eh   ::
         ::    -> Ghb                  -0.069807816237 Eh   ::
         ::    -> Gshift                0.001857443127 Eh   ::
         :: repulsion energy           12.580670459285 Eh   ::
         :: add. restraining            0.000000000000 Eh   ::
         :::::::::::::::::::::::::::::::::::::::::::::::::::::

           -------------------------------------------------
          |                Property Printout                |
           -------------------------------------------------

    * Orbital Energies and Occupations

         #    Occupation            Energy/Eh            Energy/eV
      -------------------------------------------------------------
         1        2.0000           -0.7474491             -20.3391
       ...           ...                  ...                  ...
       842        2.0000           -0.3743499             -10.1866
       843        2.0000           -0.3700149             -10.0686
       844        2.0000           -0.3684974             -10.0273
       845        2.0000           -0.3650113              -9.9325
       846        2.0000           -0.3610094              -9.8236
       847        2.0000           -0.3583736              -9.7518
       848        2.0000           -0.3583153              -9.7503
       849        2.0000           -0.3581335              -9.7453
       850        2.0000           -0.3543741              -9.6430
       851        2.0000           -0.3516992              -9.5702
       852        2.0000           -0.3489499              -9.4954
       853        2.0000           -0.3475711              -9.4579
       854        2.0000           -0.3432638              -9.3407 (HOMO)
       855        0.0000           -0.3034951              -8.2585 (LUMO)
       856                         -0.2954908              -8.0407
       857                         -0.2931858              -7.9780
       858                         -0.2914569              -7.9309
       859                         -0.2900780              -7.8934
       860                         -0.2887342              -7.8569
       861                         -0.2851609              -7.7596
       862                         -0.2833926              -7.7115
       863                         -0.2821028              -7.6764
       864                         -0.2815932              -7.6625
       865                         -0.2803904              -7.6298
       ...                                ...                  ...
      1561                          0.7264269              19.7671
      -------------------------------------------------------------
                  HL-Gap            0.0397687 Eh            1.0822 eV
             Fermi-level           -0.3233112 Eh           -8.7977 eV

   #   Z        covCN         q      C6AA      α(0)
   1   7 N      2.634    -0.398    30.331     8.179
   2   6 C      3.788     0.027    20.128     6.390
   3   6 C      2.758     0.268    22.473     7.763
   4   8 O      0.859    -0.501    23.812     6.543
   5   6 C      3.852    -0.015    20.803     6.487
   6   6 C      3.756    -0.126    22.969     6.833
   7   6 C      3.757    -0.117    22.798     6.808
   8   1 H      0.860     0.165     1.305     1.789
   9   1 H      0.923     0.034     2.534     2.489
  10   1 H      0.924     0.036     2.502     2.473
  11   1 H      0.925     0.046     2.374     2.409
  12   1 H      0.925     0.044     2.403     2.424
  13   1 H      0.925     0.059     2.216     2.328
  14   1 H      0.925     0.039     2.458     2.452
  15   1 H      0.925     0.053     2.280     2.361
  16   1 H      0.925     0.041     2.442     2.444
  17   7 N      2.689    -0.167    24.606     7.367
  18   6 C      3.801     0.022    20.198     6.399
  19   6 C      2.753     0.272    22.403     7.751
  20   8 O      0.858    -0.476    23.251     6.465
  21   6 C      3.814    -0.073    21.888     6.659
  22   6 C      2.970     0.011    27.769     8.644
  23   6 C      2.925    -0.035    28.880     8.813
  24   6 C      2.926    -0.042    29.035     8.837
  25   6 C      2.920    -0.032    28.794     8.799
  26   6 C      2.919    -0.033    28.823     8.804
  27   6 C      2.920    -0.036    28.897     8.815
  28   1 H      0.860     0.219     1.012     1.576
  29   1 H      0.923     0.088     1.895     2.153
  30   1 H      0.924     0.058     2.225     2.332
  31   1 H      0.924     0.069     2.098     2.265
  32   1 H      0.926     0.038     2.471     2.458
  33   1 H      0.926     0.038     2.470     2.458
  34   1 H      0.926     0.039     2.456     2.451
  35   1 H      0.926     0.035     2.513     2.479
  36   1 H      0.926     0.034     2.532     2.488
  37   7 N      2.690    -0.171    24.705     7.382
  38   6 C      3.793     0.017    20.299     6.416
  39   6 C      2.755     0.272    22.405     7.751
  40   8 O      0.859    -0.482    23.398     6.485
  41   6 C      3.811    -0.071    21.849     6.654
  42   6 C      3.849    -0.014    20.796     6.486
  43   6 C      3.757    -0.119    22.824     6.811
  44   6 C      3.756    -0.107    22.605     6.779
  45   1 H      0.860     0.196     1.125     1.662
  46   1 H      0.924     0.101     1.780     2.086
  47   1 H      0.924     0.047     2.356     2.401
  48   1 H      0.925     0.062     2.173     2.305
  49   1 H      0.924     0.039     2.465     2.456
  50   1 H      0.925     0.047     2.354     2.399
  51   1 H      0.925     0.046     2.370     2.407
  52   1 H      0.925     0.037     2.491     2.468
  53   1 H      0.925     0.044     2.394     2.419
  54   1 H      0.925     0.029     2.602     2.522
  55   1 H      0.925     0.036     2.497     2.471
  56   7 N      2.690    -0.171    24.708     7.383
  57   6 C      3.793     0.002    20.550     6.456
  58   6 C      2.751     0.277    22.312     7.735
  59   8 O      0.858    -0.466    23.048     6.437
  60   6 C      3.676     0.069    19.646     6.350
  61   8 O      1.654    -0.469    22.237     6.366
  62   1 H      0.860     0.208     1.064     1.616
  63   1 H      0.924     0.089     1.890     2.150
  64   1 H      0.924     0.058     2.229     2.335
  65   1 H      0.924     0.043     2.413     2.429
  66   1 H      0.803     0.336     0.621     1.238
  67   7 N      2.692    -0.183    24.972     7.422
  68   6 C      3.792     0.005    20.501     6.448
  69   6 C      2.757     0.273    22.392     7.749
  70   8 O      0.858    -0.465    23.017     6.432
  71   6 C      3.677     0.071    19.603     6.343
  72   8 O      1.654    -0.470    22.266     6.370
  73   1 H      0.860     0.205     1.080     1.628
  74   1 H      0.924     0.078     2.004     2.214
  75   1 H      0.924     0.060     2.198     2.318
  76   1 H      0.924     0.043     2.409     2.427
  77   1 H      0.803     0.333     0.631     1.248
  78   7 N      2.690    -0.190    25.119     7.444
  79   6 C      3.795     0.017    20.290     6.414
  80   6 C      2.761     0.263    22.573     7.780
  81   8 O      0.859    -0.487    23.492     6.498
  82   6 C      3.757    -0.121    22.879     6.820
  83   1 H      0.860     0.215     1.034     1.593
  84   1 H      0.924     0.083     1.951     2.184
  85   1 H      0.925     0.070     2.088     2.260
  86   1 H      0.925     0.063     2.169     2.303
  87   1 H      0.925     0.052     2.295     2.369
  88   7 N      2.689    -0.164    24.557     7.360
  89   6 C      3.804    -0.002    20.608     6.463
  90   6 C      2.755     0.260    22.613     7.787
  91   8 O      0.858    -0.458    22.866     6.411
  92   6 C      3.809    -0.079    21.998     6.676
  93   6 C      3.059    -0.040    28.944     8.823
  94   6 C      3.040    -0.012    28.268     8.721
  95   6 C      3.117    -0.020    28.346     8.721
  96   7 N      2.776    -0.108    23.351     7.177
  97   6 C      3.095     0.044    26.894     8.499
  98   6 C      2.912    -0.042    29.039     8.837
  99   6 C      2.910    -0.051    29.272     8.872
 100   6 C      2.920    -0.046    29.153     8.854
 101   6 C      2.923    -0.040    28.990     8.830
 102   1 H      0.860     0.225     0.988     1.557
 103   1 H      0.924     0.110     1.695     2.036
 104   1 H      0.924     0.072     2.068     2.249
 105   1 H      0.925     0.072     2.061     2.245
 106   1 H      0.926     0.034     2.536     2.490
 107   1 H      0.860     0.189     1.165     1.691
 108   1 H      0.926     0.039     2.467     2.456
 109   1 H      0.926     0.022     2.703     2.571
 110   1 H      0.925     0.020     2.735     2.586
 111   1 H      0.926     0.017     2.778     2.606
 112   7 N      2.690    -0.171    24.695     7.381
 113   6 C      3.791     0.014    20.345     6.424
 114   6 C      2.768     0.189    23.951     8.015
 115   8 O      0.856    -0.352    20.753     6.108
 116   6 C      3.756    -0.122    22.892     6.822
 117   1 H      0.860     0.224     0.993     1.561
 118   1 H      0.924     0.123     1.589     1.971
 119   1 H      0.925     0.070     2.091     2.261
 120   1 H      0.925     0.068     2.108     2.271
 121   1 H      0.925     0.061     2.185     2.311
 122   7 N      2.636    -0.401    30.392     8.188
 123   6 C      3.782     0.041    19.905     6.355
 124   6 C      2.765     0.203    23.675     7.968
 125   8 O      0.856    -0.395    21.578     6.228
 126   6 C      3.810    -0.077    21.970     6.672
 127   6 C      3.849    -0.010    20.721     6.475
 128   6 C      3.755    -0.110    22.655     6.787
 129   6 C      3.758    -0.118    22.811     6.809
 130   1 H      0.860     0.180     1.211     1.724
 131   1 H      0.923     0.047     2.363     2.404
 132   1 H      0.924     0.065     2.138     2.287
 133   1 H      0.924     0.056     2.244     2.343
 134   1 H      0.924     0.014     2.820     2.626
 135   1 H      0.925     0.036     2.505     2.475
 136   1 H      0.925     0.029     2.596     2.520
 137   1 H      0.925     0.046     2.369     2.407
 138   1 H      0.925     0.038     2.471     2.458
 139   1 H      0.925     0.056     2.241     2.341
 140   1 H      0.925     0.041     2.432     2.439
 141   7 N      2.635    -0.400    30.375     8.185
 142   6 C      3.788     0.036    19.990     6.368
 143   6 C      2.761     0.267    22.502     7.768
 144   8 O      0.859    -0.468    23.088     6.442
 145   6 C      3.812    -0.072    21.866     6.656
 146   6 C      2.971     0.011    27.776     8.645
 147   6 C      2.926    -0.041    29.014     8.833
 148   6 C      2.924    -0.041    29.020     8.834
 149   6 C      2.919    -0.032    28.788     8.799
 150   6 C      2.919    -0.033    28.831     8.805
 151   6 C      2.921    -0.035    28.863     8.810
 152   1 H      0.860     0.162     1.324     1.803
 153   1 H      0.923     0.053     2.284     2.363
 154   1 H      0.924     0.047     2.356     2.401
 155   1 H      0.924     0.054     2.276     2.359
 156   1 H      0.926     0.046     2.366     2.405
 157   1 H      0.926     0.027     2.631     2.537
 158   1 H      0.926     0.041     2.431     2.438
 159   1 H      0.926     0.029     2.601     2.522
 160   1 H      0.926     0.031     2.574     2.509
 161   7 N      2.689    -0.181    24.920     7.414
 162   6 C      3.798     0.007    20.469     6.442
 163   6 C      2.752     0.289    22.109     7.700
 164   8 O      0.858    -0.478    23.312     6.473
 165   6 C      3.677     0.068    19.650     6.351
 166   8 O      1.654    -0.467    22.188     6.359
 167   1 H      0.860     0.208     1.065     1.617
 168   1 H      0.923     0.087     1.911     2.162
 169   1 H      0.924     0.079     1.992     2.207
 170   1 H      0.923     0.053     2.285     2.364
 171   1 H      0.803     0.315     0.678     1.293
 172   7 N      2.691    -0.172    24.727     7.385
 173   6 C      3.793     0.023    20.203     6.401
 174   6 C      2.761     0.263    22.571     7.780
 175   8 O      0.859    -0.483    23.408     6.487
 176   6 C      3.810    -0.048    21.424     6.589
 177   6 C      3.798    -0.098    22.363     6.733
 178   6 C      2.684     0.371    20.713     7.448
 179   8 O      0.856    -0.646    27.268     7.001
 180   8 O      0.856    -0.660    27.628     7.047
 181   1 H      0.860     0.188     1.170     1.694
 182   1 H      0.923     0.077     2.011     2.218
 183   1 H      0.924     0.025     2.658     2.550
 184   1 H      0.924     0.069     2.100     2.266
 185   1 H      0.924     0.029     2.608     2.525
 186   1 H      0.925     0.022     2.710     2.575
 187   7 N      2.685    -0.174    24.765     7.391
 188   6 C      3.803     0.011    20.384     6.428
 189   6 C      2.759     0.267    22.502     7.768
 190   8 O      0.859    -0.459    22.888     6.414
 191   6 C      3.853    -0.020    20.887     6.500
 192   6 C      3.755    -0.117    22.789     6.807
 193   6 C      3.755    -0.124    22.927     6.827
 194   1 H      0.860     0.213     1.043     1.600
 195   1 H      0.923     0.090     1.875     2.142
 196   1 H      0.924     0.070     2.084     2.258
 197   1 H      0.925     0.052     2.290     2.366
 198   1 H      0.925     0.045     2.380     2.412
 199   1 H      0.925     0.029     2.606     2.525
 200   1 H      0.925     0.049     2.332     2.388
 201   1 H      0.925     0.059     2.207     2.323
 202   1 H      0.925     0.039     2.457     2.451
 203   7 N      2.690    -0.166    24.587     7.364
 204   6 C      3.806     0.020    20.241     6.405
 205   6 C      2.753     0.267    22.501     7.768
 206   8 O      0.858    -0.502    23.832     6.545
 207   6 C      3.808    -0.068    21.789     6.645
 208   6 C      3.058    -0.037    28.865     8.811
 209   6 C      3.032    -0.021    28.492     8.755
 210   6 C      3.115    -0.021    28.372     8.725
 211   7 N      2.776    -0.099    23.183     7.151
 212   6 C      3.088     0.039    27.035     8.523
 213   6 C      2.911    -0.036    28.901     8.815
 214   6 C      2.909    -0.055    29.371     8.887
 215   6 C      2.920    -0.038    28.936     8.821
 216   6 C      2.925    -0.037    28.909     8.817
 217   1 H      0.860     0.193     1.142     1.674
 218   1 H      0.924     0.078     2.001     2.212
 219   1 H      0.924     0.062     2.181     2.309
 220   1 H      0.924     0.053     2.284     2.364
 221   1 H      0.926     0.050     2.321     2.383
 222   1 H      0.860     0.190     1.159     1.687
 223   1 H      0.926     0.028     2.619     2.531
 224   1 H      0.926     0.040     2.447     2.446
 225   1 H      0.926     0.003     3.000     2.708
 226   1 H      0.926     0.021     2.722     2.580
 227   7 N      2.693    -0.165    24.578     7.363
 228   6 C      3.794     0.009    20.441     6.438
 229   6 C      2.766     0.256    22.692     7.801
 230   8 O      0.859    -0.500    23.778     6.538
 231   6 C      3.807    -0.085    22.110     6.694
 232   6 C      3.801    -0.087    22.151     6.701
 233   6 C      3.802    -0.096    22.325     6.727
 234   6 C      3.730    -0.053    21.616     6.637
 235   7 N      3.483    -0.146    24.148     7.298
 236   1 H      0.860     0.244     0.906     1.491
 237   1 H      0.924     0.084     1.939     2.178
 238   1 H      0.924     0.083     1.953     2.185
 239   1 H      0.925     0.074     2.043     2.235
 240   1 H      0.924     0.056     2.250     2.346
 241   1 H      0.925     0.080     1.979     2.200
 242   1 H      0.924     0.085     1.924     2.169
 243   1 H      0.925     0.071     2.076     2.253
 244   1 H      0.925     0.107     1.725     2.054
 245   1 H      0.924     0.118     1.627     1.995
 246   1 H      0.859     0.290     0.745     1.352
 247   1 H      0.859     0.295     0.727     1.336
 248   1 H      0.859     0.303     0.704     1.314
 249   7 N      2.762    -0.078    22.747     7.084
 250   6 C      3.831     0.020    20.219     6.398
 251   6 C      2.761     0.278    22.297     7.733
 252   8 O      0.859    -0.448    22.659     6.382
 253   6 C      3.830    -0.067    21.754     6.636
 254   6 C      3.832    -0.073    21.878     6.655
 255   6 C      3.769    -0.025    21.050     6.539
 256   1 H      0.924     0.054     2.267     2.355
 257   1 H      0.924     0.056     2.241     2.341
 258   1 H      0.925     0.049     2.331     2.387
 259   1 H      0.925     0.076     2.021     2.223
 260   1 H      0.925     0.059     2.216     2.328
 261   1 H      0.924     0.081     1.972     2.196
 262   1 H      0.925     0.092     1.862     2.134
 263   7 N      2.692    -0.185    25.005     7.427
 264   6 C      3.795     0.019    20.262     6.410
 265   6 C      2.770     0.264    22.540     7.776
 266   8 O      0.860    -0.517    24.158     6.590
 267   6 C      3.673     0.060    19.805     6.378
 268   8 O      1.655    -0.468    22.208     6.362
 269   1 H      0.860     0.185     1.188     1.707
 270   1 H      0.923     0.087     1.911     2.162
 271   1 H      0.924     0.070     2.090     2.261
 272   1 H      0.924     0.050     2.326     2.385
 273   1 H      0.805     0.336     0.623     1.240
 274   7 N      2.764    -0.063    22.451     7.037
 275   6 C      3.848     0.019    20.220     6.396
 276   6 C      2.757     0.279    22.285     7.730
 277   8 O      0.858    -0.495    23.676     6.524
 278   6 C      3.828    -0.064    21.712     6.630
 279   6 C      3.833    -0.067    21.758     6.637
 280   6 C      3.780    -0.013    20.830     6.502
 281   1 H      0.924     0.061     2.182     2.310
 282   1 H      0.925     0.051     2.301     2.372
 283   1 H      0.925     0.053     2.279     2.361
 284   1 H      0.925     0.065     2.139     2.287
 285   1 H      0.925     0.066     2.135     2.285
 286   1 H      0.924     0.065     2.139     2.287
 287   1 H      0.925     0.090     1.878     2.143
 288   7 N      2.695    -0.185    25.019     7.429
 289   6 C      3.791     0.032    20.045     6.376
 290   6 C      2.772     0.192    23.890     8.005
 291   8 O      0.856    -0.353    20.755     6.108
 292   6 C      3.805    -0.059    21.634     6.622
 293   6 C      3.806    -0.090    22.204     6.708
 294   6 C      2.745     0.289    22.095     7.697
 295   8 O      0.859    -0.492    23.598     6.513
 296   7 N      2.639    -0.291    27.493     7.787
 297   1 H      0.859     0.230     0.967     1.540
 298   1 H      0.924     0.090     1.883     2.146
 299   1 H      0.924     0.061     2.184     2.311
 300   1 H      0.924     0.066     2.128     2.281
 301   1 H      0.924     0.061     2.187     2.313
 302   1 H      0.924     0.071     2.077     2.254
 303   1 H      0.860     0.224     0.991     1.559
 304   1 H      0.860     0.233     0.951     1.527
 305   7 N      2.636    -0.392    30.155     8.156
 306   6 C      3.785     0.033    20.028     6.374
 307   6 C      2.768     0.206    23.620     7.959
 308   8 O      0.856    -0.363    20.948     6.136
 309   6 C      3.852    -0.014    20.788     6.485
 310   6 C      3.756    -0.116    22.766     6.803
 311   6 C      3.755    -0.112    22.689     6.792
 312   1 H      0.860     0.164     1.310     1.793
 313   1 H      0.924     0.055     2.264     2.353
 314   1 H      0.924     0.040     2.449     2.447
 315   1 H      0.925     0.057     2.240     2.341
 316   1 H      0.925     0.029     2.603     2.523
 317   1 H      0.925     0.046     2.364     2.405
 318   1 H      0.925     0.059     2.216     2.328
 319   1 H      0.925     0.044     2.402     2.424
 320   1 H      0.925     0.032     2.560     2.502
 321   7 N      2.639    -0.385    29.952     8.128
 322   6 C      3.785     0.045    19.833     6.343
 323   6 C      2.762     0.267    22.491     7.767
 324   8 O      0.859    -0.521    24.257     6.603
 325   6 C      3.812    -0.065    21.737     6.636
 326   6 C      2.969     0.004    27.927     8.668
 327   6 C      2.924    -0.045    29.120     8.849
 328   6 C      2.925    -0.045    29.119     8.849
 329   6 C      2.919    -0.033    28.814     8.803
 330   6 C      2.919    -0.036    28.888     8.814
 331   6 C      2.920    -0.037    28.913     8.818
[...]
   299  H   0.996        C  292 0.972
   300  H   0.995        C  292 0.973
   301  H   0.996        C  293 0.972
   302  H   0.995        C  293 0.962
   303  H   0.950        N  296 0.930
   304  H   0.945        N  296 0.924
   305  N   2.994        C  306 1.004    H  617 0.937    H  312 0.926
   306  C   3.981        N  305 1.004    C  307 0.985    H  313 0.962    C  309 0.943
   307  C   3.887        O  308 1.873    C  306 0.985    H  618 0.956
   308  O   2.072        C  307 1.873
   309  C   3.993        C  311 1.010    C  310 1.008    H  314 0.963    C  306 0.943
   310  C   3.995        C  309 1.008    H  317 0.985    H  315 0.985    H  316 0.984
   311  C   3.995        C  309 1.010    H  319 0.985    H  318 0.980    H  320 0.972
   312  H   0.973        N  305 0.926
   313  H   0.995        C  306 0.962
   314  H   0.998        C  309 0.963
   315  H   0.997        C  310 0.985
   316  H   0.999        C  310 0.984
   317  H   0.998        C  310 0.985
   318  H   0.996        C  311 0.980
   319  H   0.998        C  311 0.985
   320  H   0.999        C  311 0.972
   321  N   2.996        C  322 1.012    H  619 0.961    H  332 0.956
   322  C   3.984        N  321 1.012    C  325 0.961    H  333 0.960    C  323 0.934
   323  C   3.944        O  324 1.611    N  341 1.304    C  322 0.934
   324  O   1.940        C  323 1.611    N  341 0.192
   325  C   3.992        C  326 1.010    H  335 0.970    H  334 0.965    C  322 0.961
   326  C   3.988        C  328 1.418    C  327 1.404    C  325 1.010    C  331 0.109
   327  C   3.991        C  329 1.448    C  326 1.404    H  336 0.960    C  330 0.112
   328  C   3.990        C  330 1.437    C  326 1.418    H  337 0.963    C  329 0.110
   329  C   3.991        C  327 1.448    C  331 1.433    H  338 0.970    C  328 0.110
   330  C   3.991        C  331 1.442    C  328 1.437    H  339 0.969    C  327 0.112
   331  C   3.989        C  330 1.442    C  329 1.433    H  340 0.963    C  326 0.109
   332  H   0.975        N  321 0.956
   333  H   0.999        C  322 0.960
   334  H   0.997        C  325 0.965
   335  H   0.998        C  325 0.970
   336  H   0.998        C  327 0.960
   337  H   0.999        C  328 0.963
   338  H   0.998        C  329 0.970
   339  H   0.998        C  330 0.969
   340  H   0.997        C  331 0.963
   341  N   3.518        C  323 1.304    C  342 0.967    C  347 0.966    O  324 0.192
   342  C   3.973        C  343 0.988    N  341 0.967    C  345 0.955    H  348 0.949
   343  C   3.904        O  344 1.881    C  342 0.988    H  620 0.955
   344  O   2.049        C  343 1.881
   345  C   3.980        C  346 1.001    H  349 0.974    H  350 0.974    C  342 0.955
   346  C   3.984        C  347 1.003    C  345 1.001    H  352 0.976    H  351 0.969
   347  C   3.955        C  346 1.003    N  341 0.966    H  354 0.965    H  353 0.962
   348  H   0.995        C  342 0.949
   349  H   0.995        C  345 0.974
   350  H   0.993        C  345 0.974
   351  H   0.990        C  346 0.969
   352  H   0.994        C  346 0.976
   353  H   0.995        C  347 0.962
   354  H   0.995        C  347 0.965
   355  N   2.992        C  356 1.025    H  621 0.941    H  364 0.940
   356  C   3.984        N  355 1.025    C  359 0.962    H  365 0.953    C  357 0.943
   357  C   3.940        O  358 1.620    N  377 1.302    C  356 0.943
   358  O   1.961        C  357 1.620    N  377 0.190
   359  C   3.993        C  360 1.005    H  366 0.972    H  367 0.968    C  356 0.962
   360  C   3.993        C  361 1.006    C  359 1.005    H  369 0.971    H  368 0.963
   361  C   3.985        C  362 1.009    C  360 1.006    H  370 0.970    H  371 0.967
   362  C   3.917        C  361 1.009    H  373 0.965    H  372 0.963    N  363 0.958
   363  N   3.661        C  362 0.958    H  375 0.896    H  374 0.894    H  376 0.893
   364  H   0.975        N  355 0.940
   365  H   0.996        C  356 0.953
   366  H   0.998        C  359 0.972
   367  H   0.998        C  359 0.968
   368  H   0.997        C  360 0.963
   369  H   0.997        C  360 0.971
   370  H   0.993        C  361 0.970
   371  H   0.993        C  361 0.967
   372  H   0.988        C  362 0.963
   373  H   0.989        C  362 0.965
   374  H   0.907        N  363 0.894
   375  H   0.911        N  363 0.896
   376  H   0.908        N  363 0.893
   377  N   3.466        C  357 1.302    C  378 0.985    H  384 0.889    O  358 0.190
   378  C   3.968        N  377 0.985    C  381 0.961    H  385 0.950    C  379 0.934
   379  C   3.947        O  380 1.610    N  393 1.315    C  378 0.934
   380  O   1.974        C  379 1.610    N  393 0.193
   381  C   3.991        C  382 1.009    C  383 1.008    C  378 0.961    H  386 0.959
   382  C   3.993        C  381 1.009    H  388 0.984    H  389 0.984    H  387 0.982
   383  C   3.993        C  381 1.008    H  391 0.986    H  392 0.984    H  390 0.982
   384  H   0.948        N  377 0.889
   385  H   0.994        C  378 0.950
   386  H   0.998        C  381 0.959
   387  H   0.996        C  382 0.982
   388  H   0.999        C  382 0.984
   389  H   0.998        C  382 0.984
   390  H   0.997        C  383 0.982
   391  H   0.998        C  383 0.986
   392  H   0.997        C  383 0.984
   393  N   3.486        C  379 1.315    C  394 0.981    H  405 0.902    O  380 0.193
   394  C   3.963        N  393 0.981    C  397 0.974    H  406 0.946    C  395 0.929
   395  C   3.946        O  396 1.607    N  414 1.323    C  394 0.929
   396  O   1.956        C  395 1.607    N  414 0.199
   397  C   3.988        C  398 1.011    C  394 0.974    H  408 0.963    H  407 0.942
   398  C   3.988        C  400 1.406    C  399 1.402    C  397 1.011
   399  C   3.989        C  401 1.455    C  398 1.402    H  409 0.963    C  402 0.106
   400  C   3.990        C  402 1.453    C  398 1.406    H  410 0.966    C  401 0.106
   401  C   3.987        C  399 1.455    C  403 1.364    H  411 0.966    C  400 0.106
   402  C   3.988        C  400 1.453    C  403 1.369    H  412 0.965    C  399 0.106
   403  C   3.938        C  402 1.369    C  401 1.364    O  404 1.066
   404  O   2.105        C  403 1.066    H  413 0.871
   405  H   0.951        N  393 0.902
   406  H   0.990        C  394 0.946
   407  H   0.992        C  397 0.942
   408  H   0.996        C  397 0.963
   409  H   0.997        C  399 0.963
   410  H   0.998        C  400 0.966
   411  H   0.997        C  401 0.966
   412  H   0.998        C  402 0.965
   413  H   0.895        O  404 0.871
   414  N   3.471        C  395 1.323    C  415 0.985    H  425 0.856    O  396 0.199
   415  C   3.970        N  414 0.985    C  418 0.971    H  426 0.947    C  416 0.944
   416  C   3.943        O  417 1.622    N  438 1.288    C  415 0.944
   417  O   1.970        C  416 1.622    N  438 0.188
   418  C   3.983        C  419 1.007    C  415 0.971    H  428 0.967    H  427 0.961
   419  C   3.990        C  418 1.007    C  420 0.994    H  430 0.972    H  429 0.971
   420  C   3.955        C  419 0.994    N  421 0.988    H  432 0.964    H  431 0.960
   421  N   3.436        C  422 1.280    C  420 0.988    H  433 0.918    N  423 0.102
   422  C   3.976        N  423 1.356    N  424 1.309    N  421 1.280
   423  N   3.420        C  422 1.356    H  434 0.897    H  435 0.859    N  424 0.108    N  421 0.102
   424  N   3.381        C  422 1.309    H  436 0.924    H  437 0.892    N  423 0.108
   425  H   0.936        N  414 0.856
   426  H   0.993        C  415 0.947
   427  H   0.993        C  418 0.961
   428  H   0.994        C  418 0.967
   429  H   0.994        C  419 0.971
   430  H   0.997        C  419 0.972
   431  H   0.994        C  420 0.960
   432  H   0.992        C  420 0.964
   433  H   0.947        N  421 0.918
   434  H   0.946        N  423 0.897
   435  H   0.942        N  423 0.859
   436  H   0.945        N  424 0.924
   437  H   0.939        N  424 0.892
   438  N   3.472        C  416 1.288    C  439 0.990    H  450 0.922    O  417 0.188
   439  C   3.963        N  438 0.990    C  442 0.966    C  440 0.941    H  451 0.923
   440  C   3.947        O  441 1.635    N  459 1.289    C  439 0.941
   441  O   1.951        C  440 1.635    N  459 0.191
   442  C   3.987        C  443 1.008    H  452 0.968    C  439 0.966    H  453 0.961
   443  C   3.987        C  445 1.417    C  444 1.396    C  442 1.008
   444  C   3.992        C  446 1.468    C  443 1.396    H  454 0.969    C  447 0.106
   445  C   3.989        C  447 1.444    C  443 1.417    H  455 0.965    C  446 0.106
   446  C   3.990        C  444 1.468    C  448 1.356    H  456 0.969    C  445 0.106
   447  C   3.985        C  445 1.444    C  448 1.374    H  457 0.964    C  444 0.106
   448  C   3.941        C  447 1.374    C  446 1.356    O  449 1.081
   449  O   2.098        C  448 1.081    H  458 0.854
   450  H   0.959        N  438 0.922
   451  H   0.994        C  439 0.923
   452  H   0.996        C  442 0.968
   453  H   0.994        C  442 0.961
   454  H   1.000        C  444 0.969
   455  H   0.997        C  445 0.965
   456  H   0.998        C  446 0.969
   457  H   0.996        C  447 0.964
   458  H   0.875        O  449 0.854
   459  N   3.449        C  440 1.289    C  460 0.983    H  467 0.890    O  441 0.191
   460  C   3.968        N  459 0.983    C  463 0.970    H  468 0.953    C  461 0.923
   461  C   3.941        O  462 1.642    N  473 1.293    C  460 0.923
   462  O   2.001        C  461 1.642    N  473 0.191
   463  C   3.984        C  460 0.970    H  469 0.963    C  464 0.962    H  470 0.958
   464  C   3.950        O  465 1.627    N  466 1.334    C  463 0.962
   465  O   1.959        C  464 1.627    N  466 0.206
   466  N   3.417        C  464 1.334    H  471 0.921    H  472 0.906    O  465 0.206
   467  H   0.950        N  459 0.890
   468  H   0.994        C  460 0.953
   469  H   0.992        C  463 0.963
   470  H   0.992        C  463 0.958
   471  H   0.942        N  466 0.921
   472  H   0.944        N  466 0.906
   473  N   3.450        C  461 1.293    C  474 0.975    H  478 0.916    O  462 0.191
   474  C   3.967        C  477 0.978    C  475 0.975    N  473 0.975    H  479 0.949
   475  C   3.894        O  476 1.894    C  474 0.975    H  622 0.951
   476  O   2.035        C  475 1.894
   477  C   3.977        H  482 0.981    H  480 0.980    C  474 0.978    H  481 0.974
   478  H   0.949        N  473 0.916
   479  H   0.995        C  474 0.949
   480  H   0.994        C  477 0.980
   481  H   0.992        C  477 0.974
   482  H   0.993        C  477 0.981
   483  N   2.993        C  484 1.018    H  623 0.961    H  491 0.929
   484  C   3.984        N  483 1.018    C  487 0.973    H  492 0.960    C  485 0.937
   485  C   3.934        O  486 1.589    N  502 1.321    C  484 0.937
   486  O   1.950        C  485 1.589    N  502 0.190
   487  C   3.991        C  488 0.991    C  484 0.973    H  494 0.973    H  493 0.972
   488  C   3.994        C  490 1.010    C  489 1.006    C  487 0.991    H  495 0.964
   489  C   3.993        C  488 1.006    H  498 0.984    H  497 0.982    H  496 0.979
   490  C   3.996        C  488 1.010    H  500 0.987    H  501 0.985    H  499 0.984
   491  H   0.967        N  483 0.929
   492  H   0.998        C  484 0.960
   493  H   0.999        C  487 0.972
   494  H   0.999        C  487 0.973
   495  H   0.999        C  488 0.964
   496  H   0.997        C  489 0.979
   497  H   0.998        C  489 0.982
   498  H   0.998        C  489 0.984
   499  H   0.997        C  490 0.984
   500  H   0.998        C  490 0.987
   501  H   0.999        C  490 0.985
   502  N   3.475        C  485 1.321    C  503 0.976    H  510 0.890    O  486 0.190
   503  C   3.970        N  502 0.976    C  504 0.974    C  506 0.965    H  511 0.946
   504  C   3.901        O  505 1.858    C  503 0.974    H  624 0.958
   505  O   2.048        C  504 1.858
   506  C   3.981        H  513 0.977    C  503 0.965    H  512 0.962    C  507 0.904
   507  C   3.935        O  509 1.547    O  508 1.449    C  506 0.904
   508  O   1.861        C  507 1.449    O  509 0.213
   509  O   1.843        C  507 1.547    O  508 0.213
   510  H   0.946        N  502 0.890
   511  H   0.993        C  503 0.946
   512  H   0.997        C  506 0.962
   513  H   0.999        C  506 0.977
   514  N   2.991        C  515 1.013    H  625 0.959    H  521 0.929
   515  C   3.983        N  514 1.013    H  522 0.964    C  518 0.964    C  516 0.935
   516  C   3.939        O  517 1.610    N  530 1.307    C  515 0.935
   517  O   1.959        C  516 1.610    N  530 0.193
   518  C   3.993        C  520 1.008    C  519 1.007    C  515 0.964    H  523 0.963
   519  C   3.993        C  518 1.007    H  526 0.984    H  525 0.983    H  524 0.981
   520  C   3.995        C  518 1.008    H  528 0.986    H  527 0.984    H  529 0.982
   521  H   0.970        N  514 0.929
   522  H   0.998        C  515 0.964
   523  H   0.999        C  518 0.963
   524  H   0.996        C  519 0.981
   525  H   0.999        C  519 0.983
   526  H   0.998        C  519 0.984
   527  H   0.997        C  520 0.984
   528  H   0.998        C  520 0.986
   529  H   0.999        C  520 0.982
   530  N   3.471        C  516 1.307    C  531 0.983    H  537 0.887    O  517 0.193
   531  C   3.971        N  530 0.983    C  532 0.972    C  534 0.948    H  538 0.946
   532  C   3.908        O  533 1.900    C  531 0.972    H  626 0.955
   533  O   2.049        C  532 1.900
   534  C   3.959        C  536 1.000    O  535 0.989    H  539 0.965    C  531 0.948
   535  O   1.977        C  534 0.989    H  540 0.853
   536  C   3.990        C  534 1.000    H  541 0.983    H  543 0.982    H  542 0.981
   537  H   0.945        N  530 0.887
   538  H   0.992        C  531 0.946
   539  H   0.999        C  534 0.965
   540  H   0.893        O  535 0.853
   541  H   0.995        C  536 0.983
   542  H   0.998        C  536 0.981
   543  H   0.995        C  536 0.982
   544  N   2.997        C  545 1.015    H  627 0.959    H  552 0.923
   545  C   3.986        N  544 1.015    C  546 0.976    C  548 0.960    H  553 0.955
   546  C   3.885        O  547 1.876    C  545 0.976    H  628 0.955
   547  O   2.013        C  546 1.876
   548  C   3.990        C  549 0.990    H  555 0.974    H  554 0.971    C  545 0.960
   549  C   3.993        C  551 1.010    C  550 1.006    C  548 0.990    H  556 0.963
   550  C   3.994        C  549 1.006    H  559 0.986    H  558 0.984    H  557 0.984
   551  C   3.997        C  549 1.010    H  561 0.986    H  560 0.984    H  562 0.983
   552  H   0.965        N  544 0.923
   553  H   0.998        C  545 0.955
   554  H   0.997        C  548 0.971
   555  H   0.999        C  548 0.974
   556  H   0.998        C  549 0.963
   557  H   0.996        C  550 0.984
   558  H   0.999        C  550 0.984
   559  H   0.998        C  550 0.986
   560  H   0.998        C  551 0.984
   561  H   0.998        C  551 0.986
   562  H   0.999        C  551 0.983
   563  N   3.008        C  564 1.039    H  567 0.956    H  629 0.954
   564  C   3.985        N  563 1.039    C  565 1.003    H  569 0.931    H  568 0.929
   565  C   3.900        O  566 1.857    C  564 1.003    H  630 0.953
   566  O   2.046        C  565 1.857
   567  H   0.971        N  563 0.956
   568  H   0.992        C  564 0.929
   569  H   0.991        C  564 0.931
   570  N   3.004        C  571 1.034    H  631 0.949    H  582 0.923
   571  C   3.989        N  570 1.034    C  572 0.986    H  583 0.955    C  574 0.920
   572  C   3.906        O  573 1.889    C  571 0.986    H  632 0.956
   573  O   2.057        C  572 1.889
   574  C   3.994        C  575 1.014    H  585 0.970    H  584 0.968    C  571 0.920
   575  C   3.989        C  577 1.407    C  576 1.398    C  574 1.014
   576  C   3.990        C  578 1.453    C  575 1.398    H  586 0.961    C  579 0.105
   577  C   3.990        C  579 1.451    C  575 1.407    H  587 0.966    C  578 0.107
   578  C   3.988        C  576 1.453    C  580 1.373    H  588 0.962    C  577 0.107
   579  C   3.987        C  577 1.451    C  580 1.375    H  589 0.966    C  576 0.105
   580  C   3.937        C  579 1.375    C  578 1.373    O  581 1.056
   581  O   2.090        C  580 1.056    H  590 0.857
   582  H   0.963        N  570 0.923
   583  H   0.997        C  571 0.955
   584  H   0.996        C  574 0.968
   585  H   0.998        C  574 0.970
   586  H   0.997        C  576 0.961
   587  H   0.999        C  577 0.966
   588  H   0.998        C  578 0.962
   589  H   0.998        C  579 0.966
   590  H   0.877        O  581 0.857
   591  N   3.000        C  592 1.010    H  633 0.954    H  602 0.952
   592  C   3.984        N  591 1.010    C  593 0.972    H  603 0.962    C  595 0.953
   593  C   3.887        O  594 1.893    C  592 0.972    H  634 0.955
   594  O   2.024        C  593 1.893
   595  C   3.991        C  596 1.006    H  605 0.971    H  604 0.960    C  592 0.953
   596  C   3.988        C  597 1.412    C  598 1.410    C  595 1.006    C  601 0.109
   597  C   3.991        C  599 1.446    C  596 1.412    H  606 0.966    C  600 0.112
   598  C   3.992        C  600 1.443    C  596 1.410    H  607 0.968    C  599 0.110
   599  C   3.991        C  597 1.446    C  601 1.437    H  608 0.958    C  598 0.110
   600  C   3.992        C  598 1.443    C  601 1.438    H  609 0.971    C  597 0.112
   601  C   3.991        C  600 1.438    C  599 1.437    H  610 0.970    C  596 0.109
   602  H   0.971        N  591 0.952
   603  H   0.997        C  592 0.962
   604  H   0.996        C  595 0.960
   605  H   0.997        C  595 0.971
   606  H   0.998        C  597 0.966
   607  H   0.999        C  598 0.968
   608  H   0.998        C  599 0.958
   609  H   0.999        C  600 0.971
   610  H   0.998        C  601 0.970
   611  H   0.967        N    1 0.957
   612  H   0.989        C  114 0.949
   613  H   0.965        N  122 0.955
   614  H   0.995        C  124 0.954
   615  H   0.967        N  141 0.956
   616  H   0.992        C  290 0.952
   617  H   0.965        N  305 0.937
   618  H   0.995        C  307 0.956
   619  H   0.972        N  321 0.961
   620  H   0.996        C  343 0.955
   621  H   0.966        N  355 0.941
   622  H   0.993        C  475 0.951
   623  H   0.972        N  483 0.961
   624  H   0.997        C  504 0.958
   625  H   0.970        N  514 0.959
   626  H   0.996        C  532 0.955
   627  H   0.970        N  544 0.959
   628  H   0.995        C  546 0.955
   629  H   0.967        N  563 0.954
   630  H   0.995        C  565 0.953
   631  H   0.971        N  570 0.949
   632  H   0.996        C  572 0.956
   633  H   0.967        N  591 0.954
   634  H   0.995        C  593 0.955
 
molecular dipole:
                 x           y           z       tot (Debye)
 q only:       43.526       8.550      42.112
   full:       42.254       9.001      44.528     157.698
molecular quadrupole (traceless):
                xx          xy          yy          xz          yz          zz
 q only:     2070.836     207.396   -3626.173    2846.455     465.561    1555.337
  q+dip:     1876.813     189.439   -3705.896    2906.117     627.567    1829.082
   full:     1881.435     191.158   -3712.170    2902.527     629.521    1830.735


           -------------------------------------------------
          | TOTAL ENERGY             -961.654544617377 Eh   |
          | GRADIENT NORM               0.770294278904 Eh/α |
          | HOMO-LUMO GAP               1.082161255581 eV   |
           -------------------------------------------------

------------------------------------------------------------------------
 * finished run on 2019/05/31 at 02:07:21.401     
------------------------------------------------------------------------
 total:
 * wall-time:     0 d,  0 h,  0 min, 14.031 sec
 *  cpu-time:     0 d,  0 h,  0 min, 52.095 sec
 * ratio c/w:     3.713 speedup
 SCF:
 * wall-time:     0 d,  0 h,  0 min, 12.775 sec
 *  cpu-time:     0 d,  0 h,  0 min, 48.940 sec
 * ratio c/w:     3.831 speedup

