      -----------------------------------------------------------      
     |                   =====================                   |     
     |                           x T B                           |     
     |                   =====================                   |     
     |                         S. Grimme                         |     
     |          Mulliken Center for Theoretical Chemistry        |     
     |                    University of Bonn                     |     
     |                Version 6.1 RC1 (SAW190329)                |     
      -----------------------------------------------------------      

   This program is distributed in the hope that it will be useful,
   but WITHOUT ANY WARRANTY; without even the implied warranty of
   MERCHANTABILITY or FITNESS FOR A PARTICULAR PURPOSE.
   
   FOR NON-COMMERCIAL, ACADEMIA USE ONLY.
   
   Cite this work as:
   S. Grimme, C. Bannwarth, P. Shushkov, J. Comput. Theory Chem., 2017,
   13, 1989-2009. DOI: 10.1021/acs.jctc.7b00118
   C. Bannwarth, S. Ehlert and S. Grimme., J. Comput. Theory Chem., 2019,
   just accepted. DOI: 10.1021/acs.jctc.8b01176
   
   for sTDA-xTB:
   S. Grimme and C. Bannwarth, J. Chem. Phys., 2016, 145, 054103.
   DOI: 10.1063/1.4959605
   
   in the mass-spec context:
   V. Asgeirsson, C. Bauer and S. Grimme, Chem. Sci., 2017, 8, 4879.
   DOI: 10.1039/c7sc00601b
   
   for metadynamics refer to:
   S. Grimme, ChemRxiv, Preprint. DOI: 10.26434/chemrxiv.7660532.v1
   
   with help from (in alphabetical order)
   C. Bannwarth, F. Bohle, G. Brandenburg, E. Caldeweyher, M. Checinski,
   S. Dohm, S. Ehlert, S. Ehrlich, F. März, H. Neugebauer, J. Pisarek,
   P. Pracht, P. Shushkov, and S. Spicher.
   
 * started run on 2019/05/31 at 07:36:06.949     

           -------------------------------------------------
          |                Calculation Setup                |
           -------------------------------------------------

          program call               : /home/lum/install/xtb/xtb-190329/bin/xtb xtb_tmp.xyz --chrg 0 --grad --gfn 2 --etemp 500 --acc 0.1 --gbsa h2o --parallel 1
          hostname                   : cu05
          coordinate file            : xtb_tmp.xyz
          omp threads                :                     1
          number of atoms            :                   529
          number of electrons        :                  1378
          charge                     :                     0
          spin                       :                   0.0
          first test random number   :      0.64973944669024


molecular fragmentation (1/2 indicates fragments):
111111111111111111112222222222222222222222222222222222222222222222222222
222222222222222222222222222222222222222222222222222222222222222222222222
222222222222222222222222222222222222222222222222222222222222222222222222
222222222222222222222222222222222222222222222222222222222222222222222222
222222222222222222222222222222222222222222222222222222222222222222222222
222222222222222222222222222222222222222222222222222222222222222222222222
222222222222222222222222222222222222222222222222222222222222222222222222
2112222222222222222222222
# atoms in fragment 1/2:    22   507
 fragment masses (1/2) :      149.19     3318.18
CMA distance (Bohr)    :  19.031
constraining FC (au)   :  0.0500

########################################################################
# WARNING! Please study the warnings concerning your input carefully
#  - XTBPATH is not set, using XTBHOME instead
########################################################################

           ------------------------------------------------- 
          |                 G F N 2 - x T B                 |
          | Geometry, Frequencies, Noncovalent interactions |
          |            JCTC 2018 parametrisation            |
           ------------------------------------------------- 
 
             k(s)              :                1.8500
             k(p)              :                2.2300
             k(d)              :                2.2300
             k(f)              :                2.0000
             kEN (H0ij)        :               -2.0000
             D4 a1             :                0.5200
             D4 a2             :                5.0000
             D4 s6             :                1.0000
             D4 s8             :                2.7000
             D4 s9             :                5.0000
             alphaj            :                2.0000

  Z AO/shell   Hii/eV     exponent
  1     Wed Apr 25 08:07:45 CEST 2018   EN: 2.200 GM2: 0.406  GM3: 0.0800  RAES: 1.40
     1s    -10.707211    1.230000
  6     Wed Apr 25 08:07:45 CEST 2018   EN: 2.550 GM2: 0.538  GM3: 0.1500  RAES: 3.00
     2s    -13.970922    2.096432
     2p    -10.063292    1.800000
  7     Wed Apr 25 08:07:45 CEST 2018   EN: 3.040 GM2: 0.461  GM3:-0.0640  RAES: 1.90
     2s    -16.686243    2.339881
     2p    -12.523956    2.014332
  8     Wed Apr 25 08:07:45 CEST 2018   EN: 3.440 GM2: 0.452  GM3:-0.0517  RAES: 1.80
     2s    -20.229985    2.439742
     2p    -15.503117    2.137023
 16     Tue Apr 24 11:44:34 CEST 2018   EN: 2.580 GM2: 0.340  GM3:-0.0502  RAES: 3.10
     3s    -20.029654    1.981333
     3p    -11.377694    2.025643
     3d     -0.420282    1.702555

 Solvent             : h2o
 Using internal parameter file: .param_gbsa2_h2o
 Gsolv ref. state (COSMO-RS): gsolv [1 M gas/solution]
 temperature (mdtemp)       :    298.150000000000     
 dielectric constant        :    80.2000000000000     
 rho                        :    1.00000000000000     
 mass                       :    18.0000000000000     
 surface tension            :    15.5689454083859     
 probe radius               :   0.975313790000000     
 vdW radii scaling          :    1.00000000000000     
 Gshift (Eh)                :   1.857443126794793E-003
 c1                         :    1.55243817000000     
 soset                      :   0.130326360000000     
 HB correction              :  T
 Number of grid points      :          230

            Z     q(EN)     CN     RAES       Cart. coordinates
     1  N   5.0   -0.72    3.00    1.93    75.02012    59.09919    57.08124
     2  C   4.0    0.06    3.98    3.59    74.94487    60.18252    54.57179
     3  C   4.0    0.08    3.00    3.02    77.33498    59.43261    53.12334
     4  O   6.0   -0.48    1.00    1.80    77.25037    58.47588    51.01161
     5  C   4.0   -0.14    3.99    3.60    74.75975    63.06880    54.70418
     6  C   4.0   -0.03    3.03    3.02    74.80291    64.13786    52.07185
     7  C   4.0   -0.09    3.03    3.02    77.01302    65.11576    51.05141
     8  C   4.0   -0.11    3.03    3.02    72.63759    64.06470    50.58917
     9  C   4.0   -0.10    3.03    3.02    77.05866    65.99999    48.58924
    10  C   4.0   -0.11    3.03    3.02    72.67947    64.94563    48.12867
    11  C   4.0   -0.11    3.03    3.02    74.89399    65.90987    47.12146
    12  H   1.0    0.25    1.00    1.43    74.81351    60.28781    58.57335
    13  H   1.0    0.10    0.99    1.43    73.32986    59.40871    53.52675
    14  H   1.0    0.09    0.99    1.43    73.01042    63.56448    55.67470
    15  H   1.0    0.10    0.99    1.43    76.34244    63.78707    55.81247
    16  H   1.0    0.11    0.99    1.43    78.70386    65.19122    52.19530
    17  H   1.0    0.09    1.00    1.43    70.90977    63.32474    51.38314
    18  H   1.0    0.11    1.00    1.43    78.78913    66.75574    47.81413
    19  H   1.0    0.10    0.99    1.43    70.98425    64.88352    46.99302
    20  H   1.0    0.10    1.00    1.43    74.93491    66.59141    45.20014
    21  N   5.0   -0.70    3.00    1.93    78.21961    51.30322    53.24785
    22  C   4.0    0.10    3.98    3.59    76.23672    49.53844    52.63371
    23  C   4.0    0.27    3.01    3.02    74.45287    50.46359    50.55940
    24  O   6.0   -0.49    1.00    1.80    73.01262    48.99392    49.49253
    25  C   4.0    0.03    3.98    3.58    74.79662    48.87353    55.09082
    26  O   6.0   -0.48    1.99    1.82    76.66769    48.39964    56.94005
    27  C   4.0   -0.22    3.98    3.59    73.05985    46.60582    54.73664
    28  H   1.0    0.27    1.00    1.43    77.80322    52.61627    54.58185
    29  H   1.0    0.13    0.99    1.43    77.15683    47.82583    51.90491
    30  H   1.0    0.11    0.99    1.43    73.69864    50.55388    55.64997
    31  H   1.0    0.26    0.99    1.43    75.87781    47.58706    58.37148
    32  H   1.0    0.11    0.99    1.43    72.05575    46.20607    56.48547
    33  H   1.0    0.12    0.99    1.43    71.69382    46.99697    53.25991
    34  H   1.0    0.12    0.99    1.43    74.18054    44.96619    54.21487
    35  N   5.0   -0.48    3.01    1.93    74.57557    52.92180    50.01113
    36  C   4.0    0.08    4.00    3.61    73.15742    54.05531    47.96078
    37  C   4.0    0.27    3.00    3.02    74.92258    54.54866    45.70508
    38  O   6.0   -0.45    1.00    1.80    74.70324    53.36980    43.71966
    39  C   4.0   -0.09    3.98    3.58    71.81358    56.48449    48.82043
    40  C   4.0   -0.23    3.98    3.59    70.31242    57.63044    46.63940
    41  C   4.0   -0.23    3.98    3.59    70.09996    55.92739    51.07372
    42  H   1.0    0.27    1.00    1.43    75.72830    54.06007    51.02798
    43  H   1.0    0.13    0.99    1.43    71.76596    52.65344    47.33972
    44  H   1.0    0.13    0.99    1.43    73.25991    57.83908    49.40542
    45  H   1.0    0.09    0.99    1.43    69.65741    59.50841    47.14739
    46  H   1.0    0.12    0.99    1.43    71.47484    57.77528    44.95217
    47  H   1.0    0.11    0.99    1.43    68.67515    56.47734    46.17968
    48  H   1.0    0.08    0.99    1.43    69.11921    57.64239    51.63175
    49  H   1.0    0.10    0.99    1.43    68.70117    54.50736    50.57717
    50  H   1.0    0.11    0.99    1.43    71.20473    55.24182    52.66592
    51  N   5.0   -0.49    3.01    1.93    76.69893    56.29201    46.12192
    52  C   4.0    0.06    3.98    3.59    78.23353    57.45038    44.17009
    53  C   4.0    0.09    3.00    3.02    79.53966    55.57976    42.40485
    54  O   6.0   -0.39    1.00    1.80    79.99565    56.15188    40.21278
    55  C   4.0   -0.21    3.99    3.60    80.20827    59.15693    45.39249
    56  H   1.0    0.29    1.00    1.43    76.83909    57.11828    47.84743
    57  H   1.0    0.13    0.99    1.43    77.00381    58.59129    42.94507
    58  H   1.0    0.11    0.99    1.43    81.36999    60.01925    43.93684
    59  H   1.0    0.12    0.99    1.43    79.26752    60.62008    46.48859
    60  H   1.0    0.12    0.99    1.43    81.40928    58.05510    46.64430
    61  N   5.0   -0.69    3.00    1.93    77.49895    51.25778    39.37821
    62  C   4.0    0.08    3.98    3.59    75.93746    50.63421    37.21487
    63  C   4.0    0.29    3.02    3.02    74.25273    52.89041    36.57446
    64  O   6.0   -0.43    1.00    1.80    72.67732    53.68200    38.10651
    65  C   4.0   -0.10    3.98    3.59    74.30692    48.34500    37.88248
    66  C   4.0    0.31    2.99    3.02    71.99593    48.04962    36.10242
    67  O   6.0   -0.46    1.00    1.80    72.07402    49.20351    34.04227
    68  O   6.0   -0.45    1.00    1.80    70.24228    46.70054    36.89199
    69  H   1.0    0.33    1.00    1.43    76.58078    52.02127    40.88325
    70  H   1.0    0.12    0.99    1.43    77.20517    50.20111    35.64904
    71  H   1.0    0.11    0.99    1.43    75.43376    46.62003    37.78703
    72  H   1.0    0.12    0.99    1.43    73.59216    48.57853    39.79703
    73  N   5.0   -0.33    3.03    1.93    74.59354    54.06960    34.37331
    74  C   4.0    0.07    4.03    3.67    73.15247    56.34696    33.83963
    75  C   4.0    0.28    3.01    3.02    70.29480    55.94073    33.88007
    76  O   6.0   -0.48    1.00    1.80    68.87239    57.72107    34.34794
    77  C   4.0   -0.14    4.01    3.63    74.06100    57.18658    31.21938
    78  C   4.0   -0.14    4.01    3.63    74.91783    54.71789    30.00022
    79  C   4.0   -0.05    4.01    3.64    76.06982    53.25346    32.20591
    80  H   1.0    0.12    0.99    1.43    73.55182    57.77306    35.28936
    81  H   1.0    0.10    0.99    1.43    72.56355    58.12591    30.16995
    82  H   1.0    0.10    0.99    1.43    75.65222    58.47615    31.42615
    83  H   1.0    0.12    0.99    1.43    73.29717    53.68496    29.26100
    84  H   1.0    0.10    0.99    1.43    76.27174    55.01733    28.48590
    85  H   1.0    0.12    0.99    1.43    75.88630    51.21774    31.94819
    86  H   1.0    0.11    0.99    1.43    78.06050    53.73959    32.49283
    87  N   5.0   -0.49    3.01    1.93    69.44007    53.65494    33.26508
    88  C   4.0    0.07    4.00    3.62    66.74743    53.14993    33.33995
    89  C   4.0    0.29    3.01    3.02    65.71164    53.46843    36.01209
    90  O   6.0   -0.48    1.00    1.80    63.61732    54.38790    36.39682
    91  C   4.0   -0.14    3.99    3.60    66.25213    50.51243    32.26846
    92  C   4.0   -0.10    3.98    3.58    63.48658    49.65673    32.28421
    93  C   4.0   -0.23    3.98    3.59    61.73426    51.55243    30.99546
    94  C   4.0   -0.23    3.99    3.60    63.33143    47.09427    30.96493
    95  H   1.0    0.30    1.00    1.43    70.61016    52.11513    33.24559
    96  H   1.0    0.12    0.99    1.43    65.80689    54.59015    32.18026
    97  H   1.0    0.11    0.99    1.43    66.94928    50.49874    30.32542
    98  H   1.0    0.15    0.99    1.43    67.38468    49.15900    33.34162
    99  H   1.0    0.12    0.99    1.43    62.88369    49.44077    34.25241
   100  H   1.0    0.09    0.99    1.43    59.85414    50.74995    30.79668
   101  H   1.0    0.11    0.99    1.43    61.57578    53.26765    32.11178
   102  H   1.0    0.10    0.99    1.43    62.43504    52.02704    29.12269
   103  H   1.0    0.09    0.99    1.43    61.42694    46.33690    31.07323
   104  H   1.0    0.11    0.99    1.43    63.83832    47.28368    28.98138
   105  H   1.0    0.11    0.99    1.43    64.62883    45.76423    31.84152
   106  N   5.0   -0.48    3.01    1.93    67.19690    52.69516    37.90303
   107  C   4.0    0.07    4.00    3.62    66.42611    53.12659    40.49208
   108  C   4.0    0.29    3.02    3.02    66.09557    55.94938    40.99092
   109  O   6.0   -0.47    1.00    1.80    64.31379    56.75079    42.23416
   110  C   4.0   -0.16    3.99    3.60    68.33321    52.06456    42.37417
   111  C   4.0   -0.15    3.98    3.59    68.43561    49.18779    42.30476
   112  C   4.0   -0.03    3.99    3.60    70.59139    48.19560    43.95443
   113  N   5.0   -0.48    3.02    1.93    71.03374    45.56491    43.35364
   114  C   4.0    0.38    3.00    3.02    71.15100    43.66264    44.99366
   115  N   5.0   -0.64    3.02    1.93    71.32031    44.04629    47.46486
   116  N   5.0   -0.64    3.02    1.93    71.12871    41.29342    44.13571
   117  H   1.0    0.29    1.00    1.43    69.01532    52.19954    37.59043
   118  H   1.0    0.12    0.99    1.43    64.56778    52.24455    40.76399
   119  H   1.0    0.15    0.99    1.43    70.19580    52.83406    41.93021
   120  H   1.0    0.10    0.99    1.43    67.79490    52.70032    44.26143
   121  H   1.0    0.11    0.99    1.43    66.64295    48.39342    42.94045
   122  H   1.0    0.15    0.99    1.43    68.74379    48.56833    40.36056
   123  H   1.0    0.14    0.99    1.43    72.29915    49.31414    43.60440
   124  H   1.0    0.13    0.99    1.43    70.12057    48.37294    45.95063
   125  H   1.0    0.25    1.00    1.43    70.96069    45.16591    41.48283
   126  H   1.0    0.30    1.00    1.43    71.78627    45.74789    48.20751
   127  H   1.0    0.30    1.00    1.43    71.29614    42.50830    48.59607
   128  H   1.0    0.27    1.00    1.43    70.77460    40.92122    42.30725
   129  H   1.0    0.32    1.00    1.43    71.01316    39.88488    45.43219
   130  N   5.0   -0.48    3.01    1.93    67.90833    57.43369    40.06783
   131  C   4.0    0.08    4.00    3.62    67.75705    60.15687    40.34133
   132  C   4.0    0.29    3.01    3.02    65.18725    61.05449    39.35498
   133  O   6.0   -0.47    1.00    1.80    63.85342    62.49391    40.58782
   134  C   4.0   -0.09    3.98    3.58    69.95645    61.47501    38.98465
   135  C   4.0   -0.23    3.98    3.59    69.61084    64.33893    39.07127
   136  C   4.0   -0.22    3.98    3.59    72.47390    60.74189    40.19801
   137  H   1.0    0.28    1.00    1.43    69.34565    56.67908    39.06347
   138  H   1.0    0.11    0.99    1.43    67.80009    60.62242    42.36505
   139  H   1.0    0.14    0.99    1.43    69.93917    60.85056    37.01362
   140  H   1.0    0.10    0.99    1.43    71.18882    65.26245    38.13957
   141  H   1.0    0.11    0.99    1.43    67.87831    64.89971    38.12140
   142  H   1.0    0.10    0.99    1.43    69.52276    64.99427    41.01662
   143  H   1.0    0.10    0.99    1.43    74.01792    61.64584    39.18848
   144  H   1.0    0.10    0.99    1.43    72.52435    61.36793    42.15577
   145  H   1.0    0.13    0.99    1.43    72.77860    58.70633    40.14051
   146  N   5.0   -0.48    3.01    1.93    64.50576    60.15508    37.10235
   147  C   4.0    0.08    4.00    3.62    62.10538    60.86906    35.98046
   148  C   4.0    0.30    3.01    3.02    59.94627    60.25206    37.80766
   149  O   6.0   -0.46    1.00    1.80    58.35680    61.84009    38.38385
   150  C   4.0   -0.09    3.98    3.59    61.70663    59.56631    33.41502
   151  C   4.0   -0.16    3.98    3.59    63.66110    60.54396    31.50942
   152  C   4.0   -0.23    3.98    3.59    59.00712    60.01195    32.49315
   153  C   4.0   -0.24    3.98    3.58    63.52093    59.22030    28.95247
   154  H   1.0    0.29    1.00    1.43    65.70215    59.04289    36.10359
   155  H   1.0    0.11    0.99    1.43    62.07027    62.93133    35.72570
   156  H   1.0    0.13    0.99    1.43    61.99699    57.53871    33.70195
   157  H   1.0    0.10    0.99    1.43    63.38762    62.57248    31.24594
   158  H   1.0    0.13    0.99    1.43    65.55159    60.25960    32.28333
   159  H   1.0    0.09    0.99    1.43    58.68062    59.01165    30.73376
   160  H   1.0    0.11    0.99    1.43    57.64300    59.33485    33.87195
   161  H   1.0    0.10    0.99    1.43    58.67937    62.01768    32.18777
   162  H   1.0    0.10    0.99    1.43    65.11371    59.78883    27.78670
   163  H   1.0    0.10    0.99    1.43    63.59268    57.17928    29.18676
   164  H   1.0    0.10    0.99    1.43    61.79324    59.70340    27.95733
   165  N   5.0   -0.48    3.01    1.93    59.89008    57.89025    38.67735
   166  C   4.0    0.08    4.00    3.62    57.89661    57.05669    40.36894
   167  C   4.0    0.30    3.01    3.02    57.76579    58.80695    42.66373
   168  O   6.0   -0.48    1.00    1.80    55.72784    59.46401    43.59167
   169  C   4.0   -0.09    3.98    3.58    58.30447    54.27448    41.12684
   170  C   4.0   -0.16    3.98    3.59    58.01046    52.59715    38.77712
   171  C   4.0   -0.23    3.98    3.59    56.44203    53.49835    43.19104
   172  C   4.0   -0.24    3.98    3.58    58.50587    49.80364    39.28534
   173  H   1.0    0.29    1.00    1.43    61.24828    56.64029    38.16560
   174  H   1.0    0.12    0.99    1.43    56.06842    57.23861    39.39875
   175  H   1.0    0.13    0.99    1.43    60.23763    54.12057    41.85275
   176  H   1.0    0.10    0.99    1.43    56.09877    52.81975    38.03665
   177  H   1.0    0.13    0.99    1.43    59.32793    53.23388    37.32631
   178  H   1.0    0.09    0.99    1.43    56.82542    51.57915    43.79955
   179  H   1.0    0.12    0.99    1.43    56.60283    54.73613    44.82271
   180  H   1.0    0.11    0.99    1.43    54.51684    53.59085    42.48052
   181  H   1.0    0.09    0.99    1.43    58.52385    48.78231    37.50315
   182  H   1.0    0.10    0.99    1.43    60.32818    49.54908    40.20328
   183  H   1.0    0.10    0.99    1.43    57.03074    48.99120    40.45752
   184  N   5.0   -0.47    3.01    1.93    59.96794    59.53102    43.61744
   185  C   4.0    0.07    4.00    3.61    60.11958    61.17922    45.79678
   186  C   4.0    0.30    3.01    3.02    58.84722    63.71723    45.26336
   187  O   6.0   -0.48    1.00    1.80    57.41807    64.70118    46.81679
   188  C   4.0   -0.14    3.99    3.60    62.88484    61.54308    46.55124
   189  C   4.0   -0.10    3.98    3.58    63.20392    63.25372    48.88372
   190  C   4.0   -0.24    3.98    3.59    65.08466    62.09487    50.73906
   191  C   4.0   -0.22    3.98    3.59    64.03919    65.90938    48.12183
   192  H   1.0    0.31    1.00    1.43    61.60939    58.84428    42.89965
   193  H   1.0    0.12    0.99    1.43    59.06316    60.31021    47.35970
   194  H   1.0    0.11    0.99    1.43    63.66452    59.67164    46.92520
   195  H   1.0    0.14    0.99    1.43    63.89107    62.33704    44.93725
   196  H   1.0    0.12    0.99    1.43    61.37550    63.41682    49.83829
   197  H   1.0    0.09    0.99    1.43    65.26394    63.28177    52.40700
   198  H   1.0    0.10    0.99    1.43    64.44886    60.23313    51.33296
   199  H   1.0    0.09    0.99    1.43    66.92848    61.92538    49.84994
   200  H   1.0    0.09    0.99    1.43    64.18688    67.11700    49.77772
   201  H   1.0    0.09    0.99    1.43    65.87041    65.85314    47.19187
   202  H   1.0    0.12    0.99    1.43    62.67932    66.75432    46.83521
   203  N   5.0   -0.48    3.01    1.93    59.44445    64.78206    43.07120
   204  C   4.0    0.08    4.00    3.62    58.42775    67.21182    42.31790
   205  C   4.0    0.29    3.01    3.02    55.55208    67.06349    42.05320
   206  O   6.0   -0.46    1.00    1.80    54.15406    68.68928    42.93920
   207  C   4.0   -0.09    3.98    3.59    59.66526    68.09207    39.84141
   208  C   4.0   -0.23    3.98    3.59    58.35477    70.45333    38.82556
   209  C   4.0   -0.23    3.98    3.59    62.47104    68.61576    40.27003
   210  H   1.0    0.30    1.00    1.43    60.66028    63.89415    41.88173
   211  H   1.0    0.12    0.99    1.43    58.79914    68.59715    43.82121
   212  H   1.0    0.13    0.99    1.43    59.45458    66.55551    38.47257
   213  H   1.0    0.10    0.99    1.43    59.28510    71.09080    37.10964
   214  H   1.0    0.12    0.99    1.43    56.38034    70.08222    38.39634
   215  H   1.0    0.11    0.99    1.43    58.43618    71.96441    40.21591
   216  H   1.0    0.10    0.99    1.43    63.32944    69.28502    38.52907
   217  H   1.0    0.10    0.99    1.43    62.71119    70.06474    41.70698
   218  H   1.0    0.13    0.99    1.43    63.45378    66.91462    40.86389
   219  N   5.0   -0.48    3.01    1.93    54.68559    65.07976    40.76331
   220  C   4.0    0.07    4.00    3.61    51.99169    64.79130    40.35492
   221  C   4.0    0.30    3.01    3.02    50.62851    64.50203    42.89341
   222  O   6.0   -0.47    1.00    1.80    48.61244    65.56954    43.30412
   223  C   4.0   -0.21    3.98    3.59    51.45536    62.58465    38.59386
   224  H   1.0    0.30    1.00    1.43    55.88705    63.78913    40.00703
   225  H   1.0    0.12    0.99    1.43    51.26427    66.54923    39.52003
   226  H   1.0    0.10    0.99    1.43    49.43902    62.48158    38.22236
   227  H   1.0    0.10    0.99    1.43    52.45612    62.85908    36.82131
   228  H   1.0    0.15    0.99    1.43    52.06067    60.81986    39.44653
   229  N   5.0   -0.47    3.00    1.93    51.77166    63.04579    44.60121
   230  C   4.0    0.03    4.00    3.62    50.71346    62.75331    47.10752
   231  C   4.0    0.31    3.01    3.02    50.37130    65.33072    48.35803
   232  O   6.0   -0.39    1.00    1.80    48.37744    65.99017    49.32926
   233  H   1.0    0.30    1.00    1.43    53.35920    62.06634    44.16647
   234  H   1.0    0.13    0.99    1.43    48.87393    61.81037    47.00810
   235  H   1.0    0.13    0.99    1.43    52.02404    61.65982    48.25954
   236  N   5.0   -0.46    3.01    1.93    52.43286    66.77979    48.28436
   237  C   4.0    0.08    4.00    3.61    52.44260    69.29051    49.37409
   238  C   4.0    0.31    3.01    3.02    50.15241    70.75239    48.38933
   239  O   6.0   -0.36    1.00    1.80    48.72048    71.87105    49.82415
   240  C   4.0   -0.20    3.98    3.59    54.88844    70.65722    48.72639
   241  H   1.0    0.30    1.00    1.43    54.08126    66.11795    47.57026
   242  H   1.0    0.15    0.99    1.43    52.22746    69.14539    51.43295
   243  H   1.0    0.11    0.99    1.43    54.85562    72.55583    49.50583
   244  H   1.0    0.12    0.99    1.43    56.48065    69.63276    49.52267
   245  H   1.0    0.14    0.99    1.43    55.10001    70.77322    46.68711
   246  N   5.0   -0.47    3.01    1.93    49.88216    70.71872    45.88390
   247  C   4.0    0.08    3.99    3.61    47.81002    71.98467    44.62128
   248  C   4.0    0.31    3.01    3.02    45.28181    71.23584    45.80893
   249  O   6.0   -0.36    1.00    1.80    43.79976    72.85379    46.56227
   250  C   4.0   -0.13    3.99    3.60    47.82482    71.34144    41.79740
   251  C   4.0   -0.03    3.03    3.02    45.47160    72.30055    40.52214
   252  C   4.0   -0.09    3.03    3.02    45.21743    74.84687    39.93557
   253  C   4.0   -0.08    3.03    3.02    43.50920    70.65684    39.94125
   254  C   4.0   -0.09    3.03    3.02    43.05320    75.73029    38.76508
   255  C   4.0   -0.09    3.03    3.02    41.34604    71.53590    38.76324
   256  C   4.0   -0.09    3.03    3.02    41.11789    74.07357    38.16609
   257  H   1.0    0.30    1.00    1.43    51.19293    69.84261    44.79205
   258  H   1.0    0.13    0.99    1.43    47.97580    74.04028    44.88632
   259  H   1.0    0.11    0.99    1.43    49.50411    72.18830    40.94912
   260  H   1.0    0.14    0.99    1.43    47.93379    69.29324    41.60509
   261  H   1.0    0.11    0.99    1.43    46.73060    76.14310    40.38283
   262  H   1.0    0.12    0.99    1.43    43.68042    68.67355    40.39707
   263  H   1.0    0.12    1.00    1.43    42.87920    77.71358    38.31595
   264  H   1.0    0.12    0.99    1.43    39.83895    70.23411    38.31193
   265  H   1.0    0.12    1.00    1.43    39.43346    74.76343    37.24521
   266  N   5.0   -0.47    3.01    1.93    44.80109    68.77043    45.92857
   267  C   4.0    0.08    3.99    3.60    42.43565    67.85269    46.97476
   268  C   4.0    0.11    3.00    3.02    41.95031    69.13552    49.53448
   269  O   6.0   -0.37    1.00    1.80    39.97213    70.23496    50.01990
   270  C   4.0   -0.13    3.99    3.60    42.48063    64.96119    47.29708
   271  C   4.0   -0.04    3.03    3.02    41.49429    63.60541    44.99662
   272  C   4.0   -0.09    3.03    3.02    42.87884    63.55694    42.76460
   273  C   4.0   -0.10    3.03    3.02    39.15755    62.40546    45.05934
   274  C   4.0   -0.11    3.03    3.02    41.92487    62.38356    40.63304
   275  C   4.0   -0.11    3.03    3.02    38.20821    61.21397    42.93126
   276  C   4.0   -0.11    3.03    3.02    39.58273    61.21778    40.70690
   277  H   1.0    0.29    1.00    1.43    46.09408    67.50294    45.30069
   278  H   1.0    0.15    0.99    1.43    40.87548    68.41681    45.72252
   279  H   1.0    0.14    0.99    1.43    44.42014    64.39834    47.71546
   280  H   1.0    0.11    0.99    1.43    41.30796    64.46755    48.91989
   281  H   1.0    0.15    1.00    1.43    44.72698    64.41188    42.70206
   282  H   1.0    0.11    0.99    1.43    38.07453    62.36574    46.79031
   283  H   1.0    0.11    1.00    1.43    43.01465    62.36734    38.90762
   284  H   1.0    0.11    0.99    1.43    36.39684    60.27583    43.01131
   285  H   1.0    0.11    0.99    1.43    38.84060    60.29817    39.04210
   286  N   5.0   -0.72    3.00    1.93    37.48821    55.61563    46.57796
   287  C   4.0    0.07    3.98    3.59    39.92879    55.26083    45.40494
   288  C   4.0    0.09    3.00    3.02    40.44865    52.44006    45.08321
   289  O   6.0   -0.48    1.00    1.80    41.18706    51.61189    43.04592
   290  C   4.0   -0.13    3.99    3.60    42.01358    56.60151    46.88181
   291  C   4.0   -0.03    3.02    3.02    44.49680    56.74502    45.48900
   292  C   4.0   -0.09    3.03    3.02    44.63428    57.06966    42.88613
   293  C   4.0   -0.11    3.04    3.02    46.75278    56.65825    46.82872
   294  C   4.0   -0.09    3.03    3.02    46.92685    57.26375    41.66342
   295  C   4.0   -0.11    3.03    3.02    49.06732    56.87930    45.62854
   296  C   4.0    0.10    3.03    3.02    49.17414    57.17372    43.02164
   297  O   6.0   -0.51    1.99    1.83    51.37899    57.32629    41.71694
   298  H   1.0    0.25    1.00    1.43    37.40736    56.56098    48.24307
   299  H   1.0    0.12    0.99    1.43    39.81461    56.03587    43.48395
   300  H   1.0    0.11    0.99    1.43    41.35262    58.52472    47.25771
   301  H   1.0    0.11    0.99    1.43    42.26674    55.65426    48.69760
   302  H   1.0    0.12    1.00    1.43    42.94464    57.18530    41.75789
   303  H   1.0    0.11    1.00    1.43    46.68892    56.42435    48.85440
   304  H   1.0    0.11    1.00    1.43    47.01601    57.48016    39.63895
   305  H   1.0    0.11    0.99    1.43    50.80449    56.81184    46.69906
   306  H   1.0    0.29    0.99    1.43    52.79983    57.80640    42.80656
   307  N   5.0   -0.72    3.00    1.93    42.02165    49.19809    38.50966
   308  C   4.0    0.07    3.98    3.59    44.33559    47.78623    38.24267
   309  C   4.0    0.07    3.00    3.02    43.80138    45.06141    37.45137
   310  O   6.0   -0.43    1.00    1.80    45.36577    43.90881    36.16660
   311  C   4.0   -0.13    3.99    3.60    45.91223    47.80772    40.66020
   312  C   4.0   -0.09    3.98    3.58    47.19406    50.34526    41.22649
   313  C   4.0   -0.22    3.99    3.60    48.47442    50.18286    43.80538
   314  C   4.0   -0.23    3.98    3.59    49.16261    51.06098    39.24302
   315  H   1.0    0.33    1.00    1.43    41.51861    49.77018    40.27130
   316  H   1.0    0.12    0.99    1.43    45.43555    48.58885    36.67722
   317  H   1.0    0.12    0.99    1.43    44.66117    47.30048    42.22283
   318  H   1.0    0.11    0.99    1.43    47.35789    46.34185    40.48628
   319  H   1.0    0.14    0.99    1.43    45.73487    51.80861    41.29777
   320  H   1.0    0.11    0.99    1.43    49.39019    51.96481    44.24607
   321  H   1.0    0.11    0.99    1.43    47.08842    49.78147    45.26618
   322  H   1.0    0.10    0.99    1.43    49.89008    48.69185    43.78707
   323  H   1.0    0.11    0.99    1.43    50.07444    52.82062    39.78179
   324  H   1.0    0.10    0.99    1.43    50.59575    49.59258    39.10340
   325  H   1.0    0.10    0.99    1.43    48.32282    51.32735    37.38734
   326  N   5.0   -0.71    3.00    1.93    49.26077    41.27499    23.12557
   327  C   4.0    0.06    3.98    3.59    51.89017    42.01121    23.32236
   328  C   4.0    0.07    3.00    3.02    53.67092    39.76394    23.16868
   329  O   6.0   -0.48    1.00    1.80    55.41074    39.74120    21.60950
   330  C   4.0   -0.14    3.99    3.61    52.47897    43.38819    25.79804
   331  C   4.0   -0.10    3.97    3.58    51.57074    46.13662    25.95425
   332  C   4.0   -0.23    3.99    3.60    52.50907    47.22413    28.46167
   333  C   4.0   -0.23    3.98    3.59    52.55679    47.74466    23.77022
   334  H   1.0    0.25    1.00    1.43    48.04072    42.06047    24.37757
   335  H   1.0    0.12    0.99    1.43    52.35534    43.22812    21.71026
   336  H   1.0    0.11    0.99    1.43    51.65341    42.30010    27.34737
   337  H   1.0    0.11    0.99    1.43    54.53175    43.38404    26.02735
   338  H   1.0    0.11    0.99    1.43    49.50230    46.15454    25.92549
   339  H   1.0    0.10    0.99    1.43    51.86175    49.15659    28.71106
   340  H   1.0    0.10    0.99    1.43    51.84622    46.08835    30.04153
   341  H   1.0    0.10    0.99    1.43    54.56394    47.22594    28.48144
   342  H   1.0    0.10    0.99    1.43    52.17155    49.72804    24.13576
   343  H   1.0    0.11    0.99    1.43    54.58722    47.49668    23.56773
   344  H   1.0    0.10    0.99    1.43    51.64943    47.24566    21.99767
   345  N   5.0   -0.71    3.00    1.92    60.18804    39.73031    18.58590
   346  C   4.0    0.08    3.98    3.58    61.89693    41.37570    19.94534
   347  C   4.0    0.06    3.00    3.02    64.69238    40.63565    19.81743
   348  O   6.0   -0.42    1.00    1.80    66.27913    41.94082    20.86160
   349  C   4.0   -0.00    3.98    3.58    61.01840    41.85094    22.67450
   350  O   6.0   -0.51    1.99    1.82    58.85753    43.36903    22.77681
   351  H   1.0    0.29    1.00    1.43    59.24171    38.39107    19.57861
   352  H   1.0    0.13    0.99    1.43    61.84356    43.20715    18.95654
   353  H   1.0    0.12    0.99    1.43    60.68994    40.03415    23.62177
   354  H   1.0    0.13    0.99    1.43    62.51916    42.87443    23.65527
   355  H   1.0    0.31    0.99    1.43    57.46674    42.37773    22.08071
   356  N   5.0   -0.72    3.00    1.93    61.07344    37.42088    36.02717
   357  C   4.0    0.07    3.98    3.59    61.83386    38.83456    38.23516
   358  C   4.0    0.06    3.00    3.02    61.13559    37.44018    40.67335
   359  O   6.0   -0.45    1.00    1.80    61.53395    38.38854    42.74832
   360  C   4.0   -0.08    3.98    3.58    60.89000    41.60115    38.28925
   361  C   4.0   -0.16    3.98    3.58    58.18329    41.88543    37.26638
   362  C   4.0   -0.23    3.98    3.59    62.75846    43.33108    36.93847
   363  C   4.0   -0.24    3.98    3.58    57.95154    42.23026    34.40886
   364  H   1.0    0.26    1.00    1.43    59.21434    37.34358    35.60939
   365  H   1.0    0.12    0.99    1.43    63.91248    38.85876    38.17853
   366  H   1.0    0.12    0.99    1.43    60.84690    42.13601    40.28608
   367  H   1.0    0.11    0.99    1.43    57.05055    40.26423    37.86660
   368  H   1.0    0.10    0.99    1.43    57.32147    43.53917    38.14347
   369  H   1.0    0.09    0.99    1.43    62.03012    45.24996    36.89210
   370  H   1.0    0.11    0.99    1.43    64.55485    43.32411    37.92817
   371  H   1.0    0.10    0.99    1.43    63.07323    42.69217    35.01373
   372  H   1.0    0.10    0.99    1.43    55.97157    42.10119    33.86111
   373  H   1.0    0.09    0.99    1.43    58.64269    44.08213    33.85434
   374  H   1.0    0.10    0.99    1.43    58.99077    40.81598    33.34209
   375  N   5.0   -0.72    3.00    1.93    60.76141    37.88650    50.87200
   376  C   4.0    0.06    3.98    3.59    62.46491    40.01628    50.61817
   377  C   4.0    0.28    3.01    3.02    61.03741    42.38633    49.78576
   378  O   6.0   -0.48    1.00    1.80    61.60756    44.45494    50.64215
   379  C   4.0   -0.13    3.98    3.59    64.72686    39.36858    48.94101
   380  C   4.0   -0.12    3.99    3.60    66.00379    36.94258    49.87642
   381  C   4.0    0.27    3.00    3.02    68.81277    36.86281    49.31133
   382  O   6.0   -0.46    1.00    1.80    70.01976    38.70300    48.59826
   383  N   5.0   -0.66    3.00    1.93    69.89859    34.61334    49.68513
   384  H   1.0    0.26    1.00    1.43    60.74791    36.55490    49.48993
   385  H   1.0    0.10    0.99    1.43    63.15696    40.47254    52.52293
   386  H   1.0    0.14    0.99    1.43    64.13098    39.17778    46.97972
   387  H   1.0    0.13    0.99    1.43    66.06965    40.92837    49.04891
   388  H   1.0    0.10    0.99    1.43    65.81966    36.82930    51.92960
   389  H   1.0    0.10    0.99    1.43    65.10575    35.28925    49.04177
   390  H   1.0    0.25    1.00    1.43    68.91004    33.11414    50.30740
   391  H   1.0    0.28    1.00    1.43    71.77887    34.42973    49.44258
   392  N   5.0   -0.48    3.01    1.93    59.09349    42.06193    48.18898
   393  C   4.0    0.06    3.99    3.61    57.37492    44.14626    47.70622
   394  C   4.0    0.09    3.00    3.02    56.35561    45.13486    50.23626
   395  O   6.0   -0.45    1.00    1.80    56.49367    47.36187    50.82748
   396  C   4.0   -0.15    4.01    3.64    55.11268    43.42616    46.06177
   397  C   4.0   -0.14    3.98    3.58    55.75500    43.31684    43.25755
   398  S   6.0   -0.19    2.01    3.10    52.99146    43.92793    41.26308
   399  C   4.0   -0.20    3.98    3.58    51.30817    40.98305    41.68561
   400  H   1.0    0.25    1.00    1.43    58.73996    40.38042    47.36481
   401  H   1.0    0.12    0.99    1.43    58.40571    45.71379    46.82441
   402  H   1.0    0.11    0.99    1.43    54.32558    41.63006    46.70018
   403  H   1.0    0.11    0.99    1.43    53.66936    44.87815    46.33790
   404  H   1.0    0.10    0.99    1.43    57.06726    44.81867    42.75511
   405  H   1.0    0.11    0.99    1.43    56.53261    41.49789    42.69965
   406  H   1.0    0.12    0.99    1.43    49.84050    40.89210    40.25228
   407  H   1.0    0.10    0.99    1.43    52.62128    39.42597    41.43778
   408  H   1.0    0.10    0.99    1.43    50.44632    40.93349    43.54834
   409  N   5.0   -0.69    3.00    1.93    58.24320    44.68099    55.82112
   410  C   4.0    0.08    3.98    3.59    60.26974    45.87300    57.23642
   411  C   4.0    0.29    3.01    3.02    60.70023    48.59079    56.34769
   412  O   6.0   -0.46    1.00    1.80    60.53213    50.38265    57.80643
   413  C   4.0   -0.13    3.99    3.60    62.66374    44.26372    56.92629
   414  C   4.0   -0.04    3.03    3.02    64.78227    45.13099    58.60666
   415  C   4.0   -0.10    3.03    3.02    66.33476    47.12618    57.89966
   416  C   4.0   -0.11    3.03    3.02    65.24000    43.93161    60.89308
   417  C   4.0   -0.09    3.03    3.02    68.30690    47.89656    59.42299
   418  C   4.0   -0.10    3.03    3.02    67.22873    44.66417    62.41866
   419  C   4.0    0.10    3.03    3.02    68.78905    46.64322    61.68442
   420  O   6.0   -0.48    1.99    1.83    70.79774    47.39475    63.09356
   421  H   1.0    0.26    1.00    1.43    58.61565    42.95492    55.06219
   422  H   1.0    0.11    0.99    1.43    59.73571    46.00657    59.23750
   423  H   1.0    0.10    0.99    1.43    62.16474    42.31647    57.39054
   424  H   1.0    0.13    0.99    1.43    63.25531    44.35115    54.95232
   425  H   1.0    0.12    1.00    1.43    66.02686    48.06814    56.11883
   426  H   1.0    0.11    1.00    1.43    64.04838    42.38289    61.47394
   427  H   1.0    0.11    1.00    1.43    69.50905    49.44870    58.87251
   428  H   1.0    0.11    1.00    1.43    67.58304    43.68721    64.17440
   429  H   1.0    0.25    0.99    1.43    70.92042    46.37533    64.60541
   430  N   5.0   -0.49    3.00    1.93    61.32804    48.86441    53.91293
   431  C   4.0    0.08    4.00    3.62    61.99503    51.33058    52.95823
   432  C   4.0    0.28    3.01    3.02    59.74390    53.14483    52.90794
   433  O   6.0   -0.50    1.00    1.80    60.08278    55.42787    52.67607
   434  C   4.0   -0.09    3.98    3.58    63.28221    51.27853    50.34775
   435  C   4.0   -0.22    3.98    3.59    65.62226    49.58959    50.38336
   436  C   4.0   -0.21    3.98    3.59    61.46984    50.43670    48.27103
   437  H   1.0    0.30    1.00    1.43    61.29552    47.36145    52.72421
   438  H   1.0    0.11    0.99    1.43    63.32827    52.17112    54.31470
   439  H   1.0    0.11    0.99    1.43    63.84587    53.23581    49.97492
   440  H   1.0    0.10    0.99    1.43    66.65901    49.81163    48.62525
   441  H   1.0    0.10    0.99    1.43    66.87145    50.07856    51.94046
   442  H   1.0    0.13    0.99    1.43    65.07001    47.62048    50.55324
   443  H   1.0    0.09    0.99    1.43    62.39461    50.58874    46.44260
   444  H   1.0    0.14    0.99    1.43    60.91603    48.48727    48.57787
   445  H   1.0    0.12    0.99    1.43    59.78746    51.61387    48.24428
   446  N   5.0   -0.48    3.01    1.93    57.48541    52.05221    53.13066
   447  C   4.0    0.07    3.98    3.59    55.09861    53.39519    53.07903
   448  C   4.0    0.11    3.00    3.02    54.55078    54.49895    55.70275
   449  O   6.0   -0.39    1.00    1.80    54.10017    56.74459    56.04555
   450  C   4.0   -0.02    3.98    3.59    52.91168    51.62424    52.31798
   451  O   6.0   -0.48    1.99    1.82    50.54381    52.68055    52.85337
   452  H   1.0    0.30    1.00    1.43    57.45187    50.13382    53.02421
   453  H   1.0    0.13    0.99    1.43    55.24440    54.98697    51.75833
   454  H   1.0    0.11    0.99    1.43    53.09792    51.10789    50.32206
   455  H   1.0    0.14    0.99    1.43    53.02793    49.90257    53.44582
   456  H   1.0    0.25    0.99    1.43    50.23803    54.12064    51.77854
   457  N   5.0   -0.68    3.00    1.93    58.74951    55.40205    59.54872
   458  C   4.0    0.08    3.98    3.59    60.86797    57.14182    59.68111
   459  C   4.0    0.29    3.01    3.02    60.18456    59.59309    58.30256
   460  O   6.0   -0.47    1.00    1.80    60.37471    61.63212    59.38789
   461  C   4.0   -0.13    3.99    3.60    63.18839    55.73895    58.67792
   462  C   4.0   -0.11    3.97    3.58    65.76960    57.00265    59.07924
   463  C   4.0   -0.24    3.98    3.59    66.34552    58.82443    56.91973
   464  C   4.0   -0.23    3.98    3.59    65.97560    58.28060    61.65570
   465  H   1.0    0.31    1.00    1.43    59.10952    53.66624    58.81124
   466  H   1.0    0.11    0.99    1.43    61.15412    57.66605    61.66732
   467  H   1.0    0.12    0.99    1.43    63.19253    53.90683    59.62660
   468  H   1.0    0.13    0.99    1.43    62.91367    55.40760    56.66129
   469  H   1.0    0.10    0.99    1.43    67.17990    55.48677    59.00916
   470  H   1.0    0.09    0.99    1.43    68.15471    59.74775    57.21401
   471  H   1.0    0.09    0.99    1.43    66.42841    57.79368    55.14568
   472  H   1.0    0.11    0.99    1.43    64.88537    60.25784    56.75806
   473  H   1.0    0.10    0.99    1.43    67.91550    58.87716    61.96736
   474  H   1.0    0.11    0.99    1.43    64.77341    59.93867    61.75102
   475  H   1.0    0.10    0.99    1.43    65.42397    56.98445    63.15073
   476  N   5.0   -0.47    3.01    1.93    59.25261    59.36207    55.97251
   477  C   4.0    0.07    3.98    3.59    58.37693    61.50855    54.50418
   478  C   4.0    0.12    3.00    3.02    56.76054    63.30112    56.10503
   479  O   6.0   -0.40    1.00    1.80    57.27548    65.54841    56.33280
   480  C   4.0   -0.01    3.98    3.59    56.77318    60.46590    52.30263
   481  O   6.0   -0.48    1.99    1.82    55.35657    62.29213    51.01813
   482  H   1.0    0.30    1.00    1.43    59.42628    57.71954    54.97477
   483  H   1.0    0.11    0.99    1.43    59.98541    62.61561    53.79482
   484  H   1.0    0.11    0.99    1.43    58.02839    59.41002    51.03455
   485  H   1.0    0.17    0.99    1.43    55.39241    59.15526    53.10043
   486  H   1.0    0.30    0.99    1.43    56.41111    63.27794    49.87351
   487  N   5.0   -0.69    3.00    1.93    60.37787    66.67054    61.07306
   488  C   4.0    0.08    3.98    3.59    61.96126    68.73943    60.22184
   489  C   4.0    0.09    3.00    3.02    60.42843    71.16907    60.06802
   490  O   6.0   -0.41    1.00    1.80    61.19665    73.12149    61.04306
   491  C   4.0   -0.08    3.98    3.58    63.24584    68.11434    57.67870
   492  C   4.0   -0.17    3.98    3.59    65.85912    66.94677    58.12505
   493  C   4.0   -0.22    3.98    3.59    63.54400    70.43476    55.97741
   494  C   4.0   -0.24    3.98    3.59    65.80220    64.69347    59.90716
   495  H   1.0    0.33    1.00    1.43    60.21277    65.11514    59.96663
   496  H   1.0    0.12    0.99    1.43    63.40325    69.11046    61.66849
   497  H   1.0    0.14    0.99    1.43    62.03386    66.74420    56.71236
   498  H   1.0    0.09    0.99    1.43    66.61621    66.34543    56.30356
   499  H   1.0    0.10    0.99    1.43    67.11368    68.40933    58.86511
   500  H   1.0    0.09    0.99    1.43    64.73475    69.95877    54.37198
   501  H   1.0    0.11    0.99    1.43    61.73416    71.08254    55.26176
   502  H   1.0    0.12    0.99    1.43    64.42994    71.97735    57.00558
   503  H   1.0    0.09    0.99    1.43    67.60827    63.71938    59.88312
   504  H   1.0    0.10    0.99    1.43    65.38619    65.26865    61.83131
   505  H   1.0    0.13    0.99    1.43    64.33858    63.38472    59.32386
   506  H   1.0    0.28    1.00    1.43    73.76989    57.95778    57.24459
   507  H   1.0    0.13    1.00    1.43    79.03616    59.71829    53.89500
   508  H   1.0    0.32    1.00    1.43    79.57319    50.45544    53.83235
   509  H   1.0    0.15    1.00    1.43    80.03074    53.86826    43.03784
   510  H   1.0    0.30    1.00    1.43    78.26094    49.85010    39.95300
   511  H   1.0    0.17    1.00    1.43    43.27669    69.09188    50.87979
   512  H   1.0    0.29    1.00    1.43    36.47644    56.49273    45.52934
   513  H   1.0    0.13    1.00    1.43    40.18771    51.25952    46.53555
   514  H   1.0    0.30    1.00    1.43    42.11838    50.62573    37.59040
   515  H   1.0    0.14    1.00    1.43    42.19065    44.22375    37.97571
   516  H   1.0    0.30    1.00    1.43    48.66784    41.69281    21.58725
   517  H   1.0    0.13    1.00    1.43    53.43885    38.29319    24.33234
   518  H   1.0    0.31    1.00    1.43    58.97652    40.66185    17.83955
   519  H   1.0    0.14    1.00    1.43    65.21650    39.08219    18.87768
   520  H   1.0    0.29    1.00    1.43    61.80854    38.08693    34.64566
   521  H   1.0    0.13    1.00    1.43    60.34117    35.72767    40.58806
   522  H   1.0    0.28    1.00    1.43    61.13027    37.03092    52.29485
   523  H   1.0    0.14    1.00    1.43    55.54774    43.94289    51.46004
   524  H   1.0    0.29    1.00    1.43    56.89753    44.45608    56.83657
   525  H   1.0    0.15    1.00    1.43    54.55209    53.37315    57.22052
   526  H   1.0    0.30    1.00    1.43    58.14439    55.12421    61.11372
   527  H   1.0    0.16    1.00    1.43    55.23227    62.64710    57.00375
   528  H   1.0    0.30    1.00    1.43    60.96434    66.07981    62.55618
   529  H   1.0    0.15    1.00    1.43    58.77038    71.18442    59.16155

           ------------------------------------------------- 
          |        Self-Consistent Charge Iterations        |
           ------------------------------------------------- 

          ...................................................
          :                      SETUP                      :
          :.................................................:
          :  # basis functions                1267          :
          :  # atomic orbitals                1266          :
          :  # shells                          774          :
          :  # electrons                      1378          :
          :  max. iterations                   250          :
          :  Hamiltonian                  GFN2-xTB          :
          :  restarted?                      false          :
          :  GBSA solvation                   true          :
          :  PC potential                    false          :
          :  electronic temp.          500.0000000     K    :
          :  accuracy                    0.1000000          :
          :  -> integral cutoff          0.3500000E+02      :
          :  -> integral neglect         0.1000000E-08      :
          :  -> SCF convergence          0.1000000E-06 Eh   :
          :  -> wf. convergence          0.1000000E-04 e    :
          :  Broyden damping             0.4000000          :
          ...................................................

 iter      E             dE          RMSdq      gap      omega  full diag
   1   -781.8585290 -0.781859E+03  0.408E+00    1.54       0.0  T
   2   -783.4922781 -0.163375E+01  0.216E+00    1.52       1.0  T
   3   -783.5531398 -0.608617E-01  0.113E+00    1.83       1.0  T
   4   -783.5985116 -0.453718E-01  0.240E-01    1.20       1.0  T
   5   -783.6142687 -0.157571E-01  0.995E-02    1.29       1.0  T
   6   -783.6149456 -0.676888E-03  0.438E-02    1.28       1.0  T
   7   -783.6150515 -0.105927E-03  0.212E-02    1.29       1.0  T
   8   -783.6151131 -0.616501E-04  0.860E-03    1.29       1.0  T
   9   -783.6151198 -0.670791E-05  0.397E-03    1.29       1.1  T
  10   -783.6151213 -0.148431E-05  0.197E-03    1.29       2.2  T
  11   -783.6151217 -0.331911E-06  0.945E-04    1.29       4.6  T
  12   -783.6151218 -0.945467E-07  0.511E-04    1.29       8.5  T
  13   -783.6151218 -0.344074E-07  0.247E-04    1.29      17.6  T
  14   -783.6151218 -0.529303E-08  0.123E-04    1.29      35.5  T
  15   -783.6151218 -0.196746E-08  0.440E-05    1.29      98.9  T
  16   -783.6151218 -0.208843E-09  0.207E-05    1.29     209.8  T

   *** convergence criteria satisfied after 16 iterations ***

         #    Occupation            Energy/Eh            Energy/eV
      -------------------------------------------------------------
         1        2.0000           -0.7370049             -20.0549
       ...           ...                  ...                  ...
       683        2.0000           -0.3682269             -10.0200
       684        2.0000           -0.3653492              -9.9417
       685        2.0000           -0.3578480              -9.7375
       686        2.0000           -0.3564205              -9.6987
       687        2.0000           -0.3554961              -9.6735
       688        2.0000           -0.3478952              -9.4667
       689        2.0000           -0.3457213              -9.4076 (HOMO)
       690        0.0000           -0.2983872              -8.1195 (LUMO)
       691        0.0000           -0.2977525              -8.1023
       692                         -0.2926422              -7.9632
       693                         -0.2894790              -7.8771
       694                         -0.2853964              -7.7660
       ...                                ...                  ...
      1266                          0.6717636              18.2796
      -------------------------------------------------------------
                  HL-Gap            0.0473342 Eh            1.2880 eV
             Fermi-level           -0.3222934 Eh           -8.7700 eV

 SCC (total)                   0 d,  0 h,  0 min, 30.036 sec
 SCC setup                      ...        0 min,  0.212 sec (  0.704%)
 Dispersion                     ...        0 min,  0.242 sec (  0.805%)
 integral evaluation            ...        0 min,  0.967 sec (  3.219%)
 zeroth order Hamiltonian       ...        0 min,  0.012 sec (  0.039%)
 iterations                     ...        0 min, 23.015 sec ( 76.626%)
 molecular gradient             ...        0 min,  5.385 sec ( 17.928%)
 printout                       ...        0 min,  0.203 sec (  0.677%)

         :::::::::::::::::::::::::::::::::::::::::::::::::::::
         ::                     SUMMARY                     ::
         :::::::::::::::::::::::::::::::::::::::::::::::::::::
         :: total energy             -773.496552731926 Eh   ::
         :: total w/o Gsasa/hb       -773.421640497903 Eh   ::
         :: gradient norm               0.770640050793 Eh/α ::
         :: HOMO-LUMO gap               1.288027873173 eV   ::
         ::.................................................::
         :: SCC energy               -783.644818296852 Eh   ::
         :: -> isotropic ES             1.737097890558 Eh   ::
         :: -> anisotropic ES          -0.056112207954 Eh   ::
         :: -> anisotropic XC           0.298205611971 Eh   ::
         :: -> dispersion              -0.705345972103 Eh   ::
         :: -> Gsolv                   -0.273009436734 Eh   ::
         ::    -> Gborn                -0.198097202711 Eh   ::
         ::    -> Gsasa                -0.031553941447 Eh   ::
         ::    -> Ghb                  -0.045215735702 Eh   ::
         ::    -> Gshift                0.001857443127 Eh   ::
         :: repulsion energy           10.076737297529 Eh   ::
         :: add. restraining            0.000000000000 Eh   ::
         :::::::::::::::::::::::::::::::::::::::::::::::::::::

           -------------------------------------------------
          |                Property Printout                |
           -------------------------------------------------

    * Orbital Energies and Occupations

         #    Occupation            Energy/Eh            Energy/eV
      -------------------------------------------------------------
         1        2.0000           -0.7370049             -20.0549
       ...           ...                  ...                  ...
       677        2.0000           -0.3742698             -10.1844
       678        2.0000           -0.3739602             -10.1760
       679        2.0000           -0.3721442             -10.1266
       680        2.0000           -0.3711301             -10.0990
       681        2.0000           -0.3709435             -10.0939
       682        2.0000           -0.3689642             -10.0400
       683        2.0000           -0.3682269             -10.0200
       684        2.0000           -0.3653492              -9.9417
       685        2.0000           -0.3578480              -9.7375
       686        2.0000           -0.3564205              -9.6987
       687        2.0000           -0.3554961              -9.6735
       688        2.0000           -0.3478952              -9.4667
       689        2.0000           -0.3457213              -9.4076 (HOMO)
       690        0.0000           -0.2983872              -8.1195 (LUMO)
       691        0.0000           -0.2977525              -8.1023
       692                         -0.2926422              -7.9632
       693                         -0.2894790              -7.8771
       694                         -0.2853964              -7.7660
       695                         -0.2833710              -7.7109
       696                         -0.2831357              -7.7045
       697                         -0.2817200              -7.6660
       698                         -0.2779170              -7.5625
       699                         -0.2760330              -7.5112
       700                         -0.2748043              -7.4778
       ...                                ...                  ...
      1266                          0.6717636              18.2796
      -------------------------------------------------------------
                  HL-Gap            0.0473342 Eh            1.2880 eV
             Fermi-level           -0.3222934 Eh           -8.7700 eV

   #   Z        covCN         q      C6AA      α(0)
   1   7 N      2.636    -0.382    29.879     8.118
   2   6 C      3.786     0.039    19.928     6.358
   3   6 C      2.767     0.200    23.743     7.980
   4   8 O      0.856    -0.370    21.094     6.158
   5   6 C      3.813    -0.075    21.925     6.665
   6   6 C      2.973     0.005    27.906     8.665
   7   6 C      2.924    -0.044    29.090     8.845
   8   6 C      2.925    -0.043    29.057     8.840
   9   6 C      2.919    -0.034    28.851     8.808
  10   6 C      2.919    -0.032    28.799     8.800
  11   6 C      2.920    -0.037    28.917     8.818
  12   1 H      0.860     0.170     1.272     1.767
  13   1 H      0.924     0.058     2.217     2.329
  14   1 H      0.924     0.062     2.170     2.304
  15   1 H      0.924     0.059     2.210     2.325
  16   1 H      0.926     0.035     2.513     2.479
  17   1 H      0.926     0.043     2.405     2.425
  18   1 H      0.926     0.038     2.479     2.462
  19   1 H      0.926     0.031     2.567     2.505
  20   1 H      0.926     0.038     2.482     2.464
  21   7 N      2.636    -0.386    29.994     8.134
  22   6 C      3.786     0.019    20.274     6.413
  23   6 C      2.753     0.259    22.636     7.791
  24   8 O      0.859    -0.482    23.398     6.485
  25   6 C      3.726     0.121    18.708     6.175
  26   8 O      1.656    -0.488    22.627     6.421
  27   6 C      3.752    -0.142    23.289     6.882
  28   1 H      0.860     0.156     1.360     1.827
  29   1 H      0.923     0.065     2.139     2.287
  30   1 H      0.923     0.005     2.974     2.697
  31   1 H      0.805     0.329     0.641     1.257
  32   1 H      0.925     0.051     2.309     2.376
  33   1 H      0.925     0.065     2.137     2.286
  34   1 H      0.925     0.061     2.191     2.315
  35   7 N      2.689    -0.159    24.436     7.342
  36   6 C      3.799     0.003    20.534     6.452
  37   6 C      2.751     0.269    22.450     7.759
  38   8 O      0.858    -0.492    23.611     6.515
  39   6 C      3.852    -0.033    21.135     6.539
  40   6 C      3.756    -0.113    22.726     6.797
  41   6 C      3.756    -0.119    22.830     6.813
  42   1 H      0.860     0.209     1.062     1.614
  43   1 H      0.924     0.091     1.866     2.136
  44   1 H      0.924     0.062     2.174     2.306
  45   1 H      0.925     0.054     2.270     2.356
  46   1 H      0.925     0.031     2.575     2.509
  47   1 H      0.925     0.041     2.430     2.438
  48   1 H      0.925     0.056     2.244     2.342
  49   1 H      0.925     0.051     2.307     2.375
  50   1 H      0.925     0.044     2.400     2.423
  51   7 N      2.689    -0.186    25.023     7.429
  52   6 C      3.788     0.032    20.042     6.376
  53   6 C      2.766     0.209    23.578     7.952
  54   8 O      0.856    -0.368    21.046     6.151
  55   6 C      3.758    -0.131    23.075     6.849
  56   1 H      0.860     0.246     0.898     1.485
  57   1 H      0.923     0.075     2.036     2.231
  58   1 H      0.925     0.075     2.030     2.228
  59   1 H      0.925     0.081     1.973     2.197
  60   1 H      0.925     0.078     2.000     2.211
  61   7 N      2.638    -0.409    30.612     8.217
  62   6 C      3.786     0.054    19.687     6.320
  63   6 C      2.767     0.274    22.362     7.744
  64   8 O      0.860    -0.532    24.509     6.638
  65   6 C      3.806    -0.102    22.433     6.743
  66   6 C      2.684     0.365    20.813     7.466
  67   8 O      0.856    -0.633    26.953     6.961
  68   8 O      0.856    -0.614    26.460     6.897
  69   1 H      0.860     0.171     1.266     1.762
  70   1 H      0.924     0.018     2.757     2.597
  71   1 H      0.924     0.021     2.725     2.582
  72   1 H      0.925     0.044     2.390     2.418
  73   7 N      2.756    -0.092    23.032     7.128
  74   6 C      3.831     0.027    20.095     6.378
  75   6 C      2.760     0.276    22.324     7.737
  76   8 O      0.859    -0.510    24.015     6.570
  77   6 C      3.830    -0.072    21.851     6.651
  78   6 C      3.830    -0.072    21.860     6.652
  79   6 C      3.766    -0.006    20.730     6.489
  80   1 H      0.924     0.064     2.153     2.295
  81   1 H      0.925     0.066     2.136     2.285
  82   1 H      0.925     0.075     2.031     2.229
  83   1 H      0.925     0.056     2.246     2.344
  84   1 H      0.925     0.078     2.005     2.214
  85   1 H      0.925     0.064     2.158     2.297
  86   1 H      0.924     0.065     2.140     2.288
  87   7 N      2.690    -0.200    25.349     7.478
  88   6 C      3.801     0.035    19.994     6.366
  89   6 C      2.760     0.277    22.322     7.737
  90   8 O      0.859    -0.487    23.499     6.499
  91   6 C      3.811    -0.068    21.788     6.644
  92   6 C      3.849    -0.005    20.628     6.460
  93   6 C      3.755    -0.116    22.784     6.806
  94   6 C      3.759    -0.112    22.697     6.792
  95   1 H      0.859     0.226     0.981     1.552
  96   1 H      0.924     0.070     2.083     2.257
  97   1 H      0.924     0.049     2.333     2.389
  98   1 H      0.924     0.051     2.306     2.375
  99   1 H      0.924     0.030     2.589     2.516
 100   1 H      0.925     0.053     2.281     2.362
 101   1 H      0.925     0.041     2.440     2.443
 102   1 H      0.925     0.038     2.471     2.458
 103   1 H      0.925     0.050     2.321     2.383
 104   1 H      0.925     0.039     2.468     2.457
 105   1 H      0.925     0.037     2.494     2.470
 106   7 N      2.690    -0.179    24.883     7.409
 107   6 C      3.803     0.030    20.067     6.377
 108   6 C      2.762     0.272    22.395     7.750
 109   8 O      0.859    -0.481    23.357     6.480
 110   6 C      3.809    -0.073    21.881     6.659
 111   6 C      3.805    -0.079    21.998     6.677
 112   6 C      3.739    -0.016    20.939     6.529
 113   7 N      2.701    -0.147    24.190     7.305
 114   6 C      2.736     0.234    23.097     7.869
 115   7 N      2.651    -0.246    26.412     7.633
 116   7 N      2.655    -0.272    27.033     7.722
 117   1 H      0.860     0.198     1.114     1.653
 118   1 H      0.923     0.078     2.002     2.213
 119   1 H      0.924     0.069     2.098     2.265
 120   1 H      0.924     0.059     2.209     2.324
 121   1 H      0.924     0.066     2.133     2.284
 122   1 H      0.924     0.062     2.180     2.309
 123   1 H      0.924     0.067     2.114     2.274
 124   1 H      0.925     0.092     1.856     2.131
 125   1 H      0.860     0.208     1.067     1.618
 126   1 H      0.860     0.250     0.885     1.473
 127   1 H      0.860     0.254     0.867     1.459
 128   1 H      0.860     0.230     0.964     1.538
 129   1 H      0.860     0.265     0.827     1.425
 130   7 N      2.691    -0.173    24.753     7.389
 131   6 C      3.803     0.021    20.223     6.402
 132   6 C      2.759     0.278    22.300     7.733
 133   8 O      0.859    -0.487    23.494     6.499
 134   6 C      3.852    -0.023    20.950     6.510
 135   6 C      3.757    -0.119    22.838     6.814
 136   6 C      3.756    -0.114    22.735     6.799
 137   1 H      0.860     0.200     1.104     1.646
 138   1 H      0.923     0.077     2.014     2.219
 139   1 H      0.924     0.054     2.272     2.357
 140   1 H      0.925     0.062     2.175     2.306
 141   1 H      0.925     0.039     2.469     2.457
 142   1 H      0.925     0.054     2.270     2.356
 143   1 H      0.925     0.055     2.254     2.348
 144   1 H      0.925     0.055     2.263     2.353
 145   1 H      0.925     0.031     2.577     2.510
 146   7 N      2.689    -0.183    24.963     7.421
 147   6 C      3.803     0.023    20.190     6.397
 148   6 C      2.758     0.279    22.279     7.729
 149   8 O      0.859    -0.495    23.670     6.523
 150   6 C      3.853    -0.025    20.986     6.516
 151   6 C      3.804    -0.066    21.762     6.641
 152   6 C      3.755    -0.119    22.837     6.814
 153   6 C      3.751    -0.110    22.666     6.789
 154   1 H      0.860     0.214     1.035     1.594
 155   1 H      0.923     0.065     2.147     2.292
 156   1 H      0.924     0.051     2.311     2.377
 157   1 H      0.924     0.042     2.418     2.432
 158   1 H      0.924     0.042     2.421     2.433
 159   1 H      0.925     0.064     2.148     2.292
 160   1 H      0.925     0.038     2.479     2.462
 161   1 H      0.925     0.050     2.324     2.384
 162   1 H      0.925     0.042     2.417     2.431
 163   1 H      0.925     0.035     2.521     2.483
 164   1 H      0.925     0.050     2.323     2.383
 165   7 N      2.690    -0.182    24.945     7.418
 166   6 C      3.802     0.018    20.269     6.410
 167   6 C      2.757     0.278    22.299     7.733
 168   8 O      0.859    -0.507    23.943     6.560
 169   6 C      3.852    -0.024    20.969     6.513
 170   6 C      3.804    -0.070    21.831     6.652
 171   6 C      3.755    -0.121    22.872     6.819
 172   6 C      3.751    -0.107    22.614     6.782
 173   1 H      0.860     0.224     0.991     1.559
 174   1 H      0.923     0.077     2.011     2.218
 175   1 H      0.924     0.049     2.329     2.387
 176   1 H      0.924     0.048     2.340     2.392
 177   1 H      0.924     0.045     2.385     2.415
 178   1 H      0.925     0.069     2.097     2.264
 179   1 H      0.925     0.030     2.589     2.516
 180   1 H      0.925     0.060     2.195     2.317
 181   1 H      0.925     0.043     2.413     2.429
 182   1 H      0.925     0.035     2.523     2.484
 183   1 H      0.925     0.053     2.277     2.360
 184   7 N      2.691    -0.178    24.849     7.403
 185   6 C      3.799     0.027    20.127     6.388
 186   6 C      2.757     0.276    22.326     7.738
 187   8 O      0.858    -0.505    23.897     6.554
 188   6 C      3.809    -0.087    22.159     6.701
 189   6 C      3.849    -0.012    20.750     6.479
 190   6 C      3.756    -0.115    22.756     6.802
 191   6 C      3.755    -0.112    22.702     6.794
 192   1 H      0.860     0.236     0.940     1.519
 193   1 H      0.923     0.063     2.160     2.298
 194   1 H      0.924     0.070     2.083     2.257
 195   1 H      0.924     0.070     2.081     2.256
 196   1 H      0.924     0.023     2.681     2.561
 197   1 H      0.925     0.041     2.430     2.438
 198   1 H      0.925     0.046     2.374     2.410
 199   1 H      0.925     0.051     2.309     2.376
 200   1 H      0.925     0.043     2.411     2.428
 201   1 H      0.925     0.048     2.345     2.395
 202   1 H      0.925     0.028     2.608     2.525
 203   7 N      2.690    -0.171    24.706     7.382
 204   6 C      3.801     0.020    20.232     6.404
 205   6 C      2.760     0.276    22.340     7.740
 206   8 O      0.859    -0.501    23.803     6.541
 207   6 C      3.853    -0.020    20.900     6.502
 208   6 C      3.756    -0.118    22.808     6.809
 209   6 C      3.757    -0.125    22.955     6.831
 210   1 H      0.860     0.234     0.948     1.525
 211   1 H      0.923     0.067     2.115     2.275
 212   1 H      0.924     0.053     2.288     2.366
 213   1 H      0.925     0.061     2.193     2.316
 214   1 H      0.925     0.034     2.526     2.485
 215   1 H      0.925     0.048     2.340     2.392
 216   1 H      0.925     0.056     2.252     2.347
 217   1 H      0.925     0.049     2.329     2.387
 218   1 H      0.925     0.058     2.224     2.332
 219   7 N      2.691    -0.190    25.121     7.444
 220   6 C      3.799     0.028    20.111     6.385
 221   6 C      2.759     0.275    22.346     7.741
 222   8 O      0.859    -0.493    23.635     6.518
 223   6 C      3.756    -0.134    23.132     6.858
 224   1 H      0.860     0.235     0.944     1.522
 225   1 H      0.923     0.067     2.115     2.274
 226   1 H      0.925     0.068     2.107     2.270
 227   1 H      0.925     0.074     2.042     2.235
 228   1 H      0.925     0.078     1.996     2.209
 229   7 N      2.687    -0.174    24.761     7.390
 230   6 C      3.751    -0.030    21.175     6.562
 231   6 C      2.756     0.284    22.191     7.714
 232   8 O      0.858    -0.500    23.780     6.538
 233   1 H      0.860     0.228     0.975     1.547
 234   1 H      0.924     0.080     1.977     2.199
 235   1 H      0.925     0.099     1.791     2.093
 236   7 N      2.694    -0.186    25.026     7.430
 237   6 C      3.798     0.030    20.076     6.380
 238   6 C      2.758     0.288    22.119     7.702
 239   8 O      0.858    -0.516    24.141     6.587
 240   6 C      3.757    -0.133    23.114     6.855
 241   1 H      0.860     0.228     0.975     1.547
 242   1 H      0.923     0.056     2.242     2.341
 243   1 H      0.925     0.061     2.189     2.314
 244   1 H      0.925     0.074     2.047     2.238
 245   1 H      0.925     0.076     2.026     2.226
 246   7 N      2.691    -0.190    25.117     7.443
 247   6 C      3.798     0.036    19.975     6.364
 248   6 C      2.759     0.289    22.104     7.699
 249   8 O      0.859    -0.514    24.086     6.580
 250   6 C      3.813    -0.084    22.089     6.690
 251   6 C      2.971     0.010    27.794     8.648
 252   6 C      2.924    -0.039    28.979     8.828
 253   6 C      2.924    -0.042    29.045     8.838
 254   6 C      2.919    -0.033    28.834     8.806
 255   6 C      2.919    -0.034    28.846     8.807
 256   6 C      2.920    -0.037    28.909     8.817
 257   1 H      0.860     0.229     0.969     1.542
 258   1 H      0.923     0.054     2.277     2.360
 259   1 H      0.924     0.064     2.154     2.295
 260   1 H      0.925     0.073     2.051     2.239
 261   1 H      0.926     0.033     2.549     2.497
 262   1 H      0.926     0.037     2.491     2.468
 263   1 H      0.926     0.040     2.448     2.447
 264   1 H      0.926     0.042     2.418     2.431
 265   1 H      0.926     0.042     2.424     2.435
 266   7 N      2.689    -0.174    24.766     7.391
 267   6 C      3.794     0.042    19.876     6.349
 268   6 C      2.765     0.217    23.408     7.923
 269   8 O      0.856    -0.373    21.155     6.167
 270   6 C      3.810    -0.074    21.914     6.664
 271   6 C      2.968     0.013    27.722     8.636
 272   6 C      2.924    -0.040    28.995     8.830
 273   6 C      2.925    -0.040    28.994     8.830
 274   6 C      2.919    -0.029    28.719     8.788
 275   6 C      2.918    -0.033    28.823     8.804
 276   6 C      2.920    -0.035    28.882     8.813
 277   1 H      0.860     0.232     0.956     1.531
 278   1 H      0.923     0.072     2.059     2.244
 279   1 H      0.924     0.077     2.005     2.214
 280   1 H      0.924     0.057     2.233     2.337
 281   1 H      0.926     0.047     2.353     2.399
 282   1 H      0.926     0.036     2.508     2.476
 283   1 H      0.926     0.040     2.450     2.448
 284   1 H      0.926     0.040     2.451     2.448
 285   1 H      0.926     0.043     2.411     2.428
 286   7 N      2.636    -0.386    29.996     8.134
 287   6 C      3.784     0.042    19.886     6.352
 288   6 C      2.766     0.200    23.745     7.980
 289   8 O      0.856    -0.363    20.957     6.138
 290   6 C      3.810    -0.074    21.904     6.662
 291   6 C      2.965    -0.004    28.110     8.697
 292   6 C      2.926    -0.038    28.954     8.824
 293   6 C      2.928    -0.047    29.163     8.856
 294   6 C      2.920    -0.059    29.462     8.901
 295   6 C      2.917    -0.078    29.947     8.974
 296   6 C      2.846     0.143    24.878     8.175
 297   8 O      1.658    -0.434    21.521     6.262
 298   1 H      0.860     0.166     1.300     1.786
 299   1 H      0.924     0.053     2.281     2.362
 300   1 H      0.924     0.059     2.205     2.322
 301   1 H      0.924     0.058     2.219     2.329
 302   1 H      0.926     0.040     2.443     2.444
 303   1 H      0.926     0.038     2.469     2.457
 304   1 H      0.926     0.049     2.331     2.388
 305   1 H      0.926     0.037     2.492     2.469
 306   1 H      0.803     0.332     0.634     1.251
 307   7 N      2.635    -0.415    30.805     8.243
 308   6 C      3.783     0.044    19.854     6.347
 309   6 C      2.767     0.197    23.801     7.990
 310   8 O      0.856    -0.397    21.615     6.233
 311   6 C      3.810    -0.064    21.712     6.633
 312   6 C      3.849    -0.006    20.649     6.463
 313   6 C      3.759    -0.115    22.753     6.800
 314   6 C      3.756    -0.114    22.729     6.797
 315   1 H      0.860     0.193     1.140     1.673
 316   1 H      0.923     0.052     2.295     2.369
 317   1 H      0.924     0.045     2.390     2.418
 318   1 H      0.924     0.042     2.417     2.431
 319   1 H      0.924     0.031     2.572     2.508
 320   1 H      0.925     0.039     2.465     2.455
 321   1 H      0.925     0.031     2.566     2.505
 322   1 H      0.925     0.051     2.313     2.378
 323   1 H      0.925     0.044     2.391     2.418
 324   1 H      0.925     0.048     2.345     2.395
 325   1 H      0.925     0.029     2.601     2.522
 326   7 N      2.633    -0.389    30.077     8.145
 327   6 C      3.783     0.041    19.897     6.354
 328   6 C      2.771     0.197    23.790     7.988
 329   8 O      0.856    -0.388    21.443     6.208
 330   6 C      3.815    -0.073    21.877     6.657
 331   6 C      3.849    -0.006    20.657     6.465
 332   6 C      3.759    -0.117    22.790     6.806
 333   6 C      3.756    -0.117    22.786     6.806
 334   1 H      0.860     0.170     1.272     1.767
 335   1 H      0.924     0.047     2.360     2.403
 336   1 H      0.924     0.056     2.242     2.341
 337   1 H      0.924     0.050     2.317     2.380
 338   1 H      0.924     0.032     2.553     2.499
 339   1 H      0.925     0.045     2.386     2.416
 340   1 H      0.925     0.042     2.421     2.433
 341   1 H      0.925     0.044     2.399     2.422
 342   1 H      0.925     0.045     2.389     2.417
 343   1 H      0.925     0.046     2.370     2.408
 344   1 H      0.925     0.034     2.531     2.488
 345   7 N      2.632    -0.390    30.097     8.148
 346   6 C      3.780     0.022    20.229     6.407
 347   6 C      2.762     0.195    23.846     7.997
 348   8 O      0.856    -0.384    21.367     6.197
 349   6 C      3.676     0.083    19.414     6.313
 350   8 O      1.655    -0.474    22.335     6.380
 351   1 H      0.860     0.171     1.266     1.763
 352   1 H      0.923     0.084     1.942     2.179
 353   1 H      0.923     0.026     2.649     2.545
 354   1 H      0.924     0.050     2.324     2.384
 355   1 H      0.804     0.325     0.651     1.267
 356   7 N      2.633    -0.389    30.073     8.145
 357   6 C      3.783     0.029    20.105     6.387
 358   6 C      2.764     0.192    23.890     8.004
 359   8 O      0.856    -0.379    21.268     6.183
 360   6 C      3.849    -0.026    21.000     6.518
 361   6 C      3.800    -0.058    21.618     6.620
 362   6 C      3.755    -0.110    22.659     6.787
 363   6 C      3.750    -0.105    22.574     6.776
 364   1 H      0.860     0.163     1.314     1.796
 365   1 H      0.923     0.081     1.971     2.195
 366   1 H      0.924     0.050     2.318     2.381
 367   1 H      0.924     0.027     2.623     2.533
 368   1 H      0.924     0.050     2.322     2.383
 369   1 H      0.925     0.045     2.381     2.413
 370   1 H      0.925     0.037     2.486     2.465
 371   1 H      0.925     0.038     2.480     2.463
 372   1 H      0.925     0.035     2.514     2.480
 373   1 H      0.925     0.036     2.505     2.475
 374   1 H      0.925     0.034     2.524     2.484
 375   7 N      2.634    -0.394    30.211     8.163
 376   6 C      3.787     0.024    20.177     6.398
 377   6 C      2.758     0.263    22.563     7.779
 378   8 O      0.859    -0.480    23.343     6.478
 379   6 C      3.804    -0.075    21.937     6.668
 380   6 C      3.808    -0.100    22.404     6.738
 381   6 C      2.743     0.285    22.167     7.709
 382   8 O      0.859    -0.492    23.609     6.515
 383   7 N      2.640    -0.286    27.387     7.772
 384   1 H      0.860     0.163     1.315     1.796
 385   1 H      0.923     0.053     2.288     2.366
 386   1 H      0.925     0.062     2.173     2.305
 387   1 H      0.924     0.067     2.123     2.279
 388   1 H      0.924     0.075     2.028     2.227
 389   1 H      0.925     0.070     2.088     2.259
 390   1 H      0.860     0.227     0.979     1.550
 391   1 H      0.860     0.234     0.947     1.525
 392   7 N      2.688    -0.158    24.411     7.338
 393   6 C      3.796     0.019    20.253     6.408
 394   6 C      2.769     0.200    23.735     7.979
 395   8 O      0.856    -0.351    20.721     6.103
 396   6 C      3.832    -0.077    21.943     6.665
 397   6 C      3.795    -0.020    20.930     6.515
 398  16 S      1.965    -0.208   149.936    20.609
 399   6 C      3.745    -0.060    21.721     6.648
 400   1 H      0.860     0.220     1.010     1.575
 401   1 H      0.924     0.093     1.855     2.130
 402   1 H      0.924     0.075     2.036     2.231
 403   1 H      0.924     0.076     2.023     2.224
 404   1 H      0.925     0.071     2.078     2.254
 405   1 H      0.925     0.060     2.195     2.317
 406   1 H      0.925     0.052     2.290     2.367
 407   1 H      0.925     0.057     2.233     2.337
 408   1 H      0.925     0.057     2.239     2.340
 409   7 N      2.636    -0.391    30.121     8.151
 410   6 C      3.786     0.035    20.005     6.371
 411   6 C      2.760     0.267    22.490     7.766
 412   8 O      0.859    -0.509    23.995     6.568
 413   6 C      3.813    -0.080    22.021     6.679
 414   6 C      2.969    -0.003    28.099     8.695
 415   6 C      2.925    -0.043    29.068     8.842
 416   6 C      2.926    -0.043    29.072     8.842
 417   6 C      2.918    -0.061    29.517     8.909
 418   6 C      2.918    -0.077    29.927     8.971
 419   6 C      2.847     0.141    24.919     8.181
 420   8 O      1.659    -0.438    21.601     6.274
 421   1 H      0.860     0.160     1.332     1.808
 422   1 H      0.923     0.027     2.627     2.535
 423   1 H      0.924     0.053     2.287     2.365
 424   1 H      0.924     0.070     2.082     2.257
 425   1 H      0.926     0.044     2.400     2.423
 426   1 H      0.926     0.042     2.429     2.437
 427   1 H      0.926     0.046     2.375     2.410
 428   1 H      0.926     0.039     2.465     2.455
 429   1 H      0.805     0.347     0.596     1.212
 430   7 N      2.687    -0.179    24.872     7.407
 431   6 C      3.804     0.018    20.272     6.410
 432   6 C      2.752     0.274    22.375     7.746
 433   8 O      0.858    -0.494    23.642     6.519
 434   6 C      3.852    -0.018    20.859     6.496
 435   6 C      3.756    -0.126    22.965     6.833
 436   6 C      3.756    -0.128    23.021     6.841
 437   1 H      0.860     0.244     0.908     1.492
 438   1 H      0.923     0.072     2.065     2.247
 439   1 H      0.924     0.048     2.351     2.398
 440   1 H      0.925     0.053     2.279     2.361
 441   1 H      0.925     0.042     2.421     2.433
 442   1 H      0.925     0.070     2.083     2.257
 443   1 H      0.925     0.052     2.289     2.366
 444   1 H      0.925     0.070     2.082     2.257
 445   1 H      0.925     0.036     2.497     2.471
 446   7 N      2.689    -0.174    24.777     7.393
 447   6 C      3.786     0.014    20.359     6.427
 448   6 C      2.766     0.207    23.609     7.957
 449   8 O      0.856    -0.353    20.771     6.110
 450   6 C      3.678     0.065    19.703     6.359
 451   8 O      1.656    -0.458    22.008     6.333
 452   1 H      0.860     0.237     0.935     1.515
 453   1 H      0.924     0.079     1.985     2.203
 454   1 H      0.924     0.069     2.101     2.267
 455   1 H      0.924     0.085     1.933     2.174
 456   1 H      0.805     0.322     0.658     1.274
 457   7 N      2.639    -0.410    30.664     8.224
 458   6 C      3.784     0.038    19.944     6.361
 459   6 C      2.753     0.276    22.326     7.737
 460   8 O      0.859    -0.504    23.876     6.551
 461   6 C      3.809    -0.072    21.865     6.656
 462   6 C      3.848    -0.015    20.804     6.488
 463   6 C      3.755    -0.114    22.738     6.799
 464   6 C      3.754    -0.116    22.768     6.804
 465   1 H      0.860     0.176     1.236     1.741
 466   1 H      0.924     0.035     2.519     2.482
 467   1 H      0.924     0.050     2.322     2.383
 468   1 H      0.924     0.043     2.414     2.430
 469   1 H      0.924     0.037     2.484     2.465
 470   1 H      0.925     0.046     2.368     2.406
 471   1 H      0.925     0.043     2.406     2.426
 472   1 H      0.925     0.031     2.574     2.509
 473   1 H      0.925     0.045     2.386     2.416
 474   1 H      0.925     0.040     2.449     2.447
 475   1 H      0.925     0.034     2.537     2.491
 476   7 N      2.690    -0.184    24.989     7.424
 477   6 C      3.788     0.027    20.139     6.392
 478   6 C      2.765     0.216    23.440     7.929
 479   8 O      0.856    -0.362    20.944     6.136
 480   6 C      3.680     0.069    19.624     6.345
 481   8 O      1.655    -0.483    22.525     6.407
 482   1 H      0.860     0.235     0.943     1.521
 483   1 H      0.923     0.066     2.134     2.284
 484   1 H      0.924     0.049     2.337     2.391
[...]
   190  C   3.994        C  189 1.009    H  197 0.984    H  198 0.984    H  199 0.980
   191  C   3.995        C  189 1.010    H  200 0.985    H  202 0.985    H  201 0.985
   192  H   0.944        N  184 0.877
   193  H   0.995        C  185 0.943
   194  H   0.995        C  188 0.968
   195  H   0.995        C  188 0.965
   196  H   0.999        C  189 0.964
   197  H   0.998        C  190 0.984
   198  H   0.998        C  190 0.984
   199  H   0.997        C  190 0.980
   200  H   0.998        C  191 0.985
   201  H   0.998        C  191 0.985
   202  H   0.999        C  191 0.985
   203  N   3.497        C  186 1.345    C  204 0.978    H  210 0.886    O  187 0.193
   204  C   3.962        N  203 0.978    C  207 0.965    H  211 0.951    C  205 0.937
   205  C   3.947        O  206 1.600    N  219 1.324    C  204 0.937
   206  O   1.955        C  205 1.600    N  219 0.196
   207  C   3.987        C  208 1.008    C  209 1.007    C  204 0.965    H  212 0.962
   208  C   3.993        C  207 1.008    H  215 0.986    H  214 0.985    H  213 0.983
   209  C   3.992        C  207 1.007    H  217 0.985    H  216 0.983    H  218 0.978
   210  H   0.945        N  203 0.886
   211  H   0.995        C  204 0.951
   212  H   0.997        C  207 0.962
   213  H   0.996        C  208 0.983
   214  H   0.999        C  208 0.985
   215  H   0.998        C  208 0.986
   216  H   0.996        C  209 0.983
   217  H   0.998        C  209 0.985
   218  H   0.997        C  209 0.978
   219  N   3.476        C  205 1.324    C  220 0.977    H  224 0.884    O  206 0.196
   220  C   3.965        C  223 0.995    N  219 0.977    H  225 0.951    C  221 0.936
   221  C   3.946        O  222 1.598    N  229 1.322    C  220 0.936
   222  O   1.963        C  221 1.598    N  229 0.193
   223  C   3.981        C  220 0.995    H  226 0.981    H  227 0.979    H  228 0.972
   224  H   0.945        N  219 0.884
   225  H   0.995        C  220 0.951
   226  H   0.995        C  223 0.981
   227  H   0.994        C  223 0.979
   228  H   0.994        C  223 0.972
   229  N   3.480        C  221 1.322    C  230 0.992    H  233 0.889    O  222 0.193
   230  C   3.965        N  229 0.992    H  234 0.958    H  235 0.950    C  231 0.946
   231  C   3.948        O  232 1.625    N  236 1.311    C  230 0.946
   232  O   1.953        C  231 1.625    N  236 0.197
   233  H   0.948        N  229 0.889
   234  H   0.993        C  230 0.958
   235  H   0.990        C  230 0.950
   236  N   3.469        C  231 1.311    C  237 0.979    H  241 0.892    O  232 0.197
   237  C   3.969        C  240 0.997    N  236 0.979    H  242 0.955    C  238 0.934
   238  C   3.945        O  239 1.626    N  246 1.308    C  237 0.934
   239  O   1.938        C  238 1.626    N  246 0.196
   240  C   3.984        C  237 0.997    H  243 0.983    H  244 0.980    H  245 0.975
   241  H   0.948        N  236 0.892
   242  H   0.996        C  237 0.955
   243  H   0.996        C  240 0.983
   244  H   0.994        C  240 0.980
   245  H   0.994        C  240 0.975
   246  N   3.461        C  238 1.308    C  247 0.977    H  257 0.889    O  239 0.196
   247  C   3.967        N  246 0.977    C  250 0.968    H  258 0.955    C  248 0.934
   248  C   3.945        O  249 1.615    N  266 1.319    C  247 0.934
   249  O   1.946        C  248 1.615    N  266 0.196
   250  C   3.985        C  251 1.006    C  247 0.968    H  259 0.966    H  260 0.959
   251  C   3.987        C  253 1.415    C  252 1.413    C  250 1.006    C  256 0.110
   252  C   3.991        C  254 1.447    C  251 1.413    H  261 0.969    C  255 0.112
   253  C   3.991        C  255 1.444    C  251 1.415    H  262 0.967    C  254 0.111
   254  C   3.992        C  252 1.447    C  256 1.437    H  263 0.970    C  253 0.111
   255  C   3.991        C  253 1.444    C  256 1.440    H  264 0.970    C  252 0.112
   256  C   3.991        C  255 1.440    C  254 1.437    H  265 0.971    C  251 0.110
   257  H   0.947        N  246 0.889
   258  H   0.997        C  247 0.955
   259  H   0.995        C  250 0.966
   260  H   0.994        C  250 0.959
   261  H   0.999        C  252 0.969
   262  H   0.999        C  253 0.967
   263  H   0.998        C  254 0.970
   264  H   0.998        C  255 0.970
   265  H   0.998        C  256 0.971
   266  N   3.474        C  248 1.319    C  267 0.975    H  277 0.888    O  249 0.196
   267  C   3.965        N  266 0.975    C  268 0.968    C  270 0.956    H  278 0.952
   268  C   3.897        O  269 1.889    C  267 0.968    H  511 0.956
   269  O   2.032        C  268 1.889
   270  C   3.982        C  271 1.007    H  280 0.969    H  279 0.956    C  267 0.956
   271  C   3.986        C  273 1.414    C  272 1.408    C  270 1.007    C  276 0.109
   272  C   3.989        C  274 1.448    C  271 1.408    H  281 0.957    C  275 0.111
   273  C   3.990        C  275 1.439    C  271 1.414    H  282 0.968    C  274 0.110
   274  C   3.991        C  272 1.448    C  276 1.434    H  283 0.970    C  273 0.110
   275  C   3.991        C  276 1.440    C  273 1.439    H  284 0.968    C  272 0.111
   276  C   3.989        C  275 1.440    C  274 1.434    H  285 0.970    C  271 0.109
   277  H   0.946        N  266 0.888
   278  H   0.995        C  267 0.952
   279  H   0.994        C  270 0.956
   280  H   0.996        C  270 0.969
   281  H   0.998        C  272 0.957
   282  H   0.999        C  273 0.968
   283  H   0.998        C  274 0.970
   284  H   0.998        C  275 0.968
   285  H   0.998        C  276 0.970
   286  N   3.001        C  287 1.010    H  512 0.954    H  298 0.953
   287  C   3.984        N  286 1.010    C  288 0.978    C  290 0.961    H  299 0.951
   288  C   3.889        O  289 1.876    C  287 0.978    H  513 0.953
   289  O   2.058        C  288 1.876
   290  C   3.992        C  291 1.008    H  301 0.970    C  287 0.961    H  300 0.947
   291  C   3.988        C  293 1.413    C  292 1.401    C  290 1.008
   292  C   3.992        C  294 1.462    C  291 1.401    H  302 0.960    C  295 0.105
   293  C   3.991        C  295 1.444    C  291 1.413    H  303 0.968    C  294 0.107
   294  C   3.989        C  292 1.462    C  296 1.361    H  304 0.968    C  293 0.107
   295  C   3.987        C  293 1.444    C  296 1.370    H  305 0.966    C  292 0.105
   296  C   3.943        C  295 1.370    C  294 1.361    O  297 1.075
   297  O   2.094        C  296 1.075    H  306 0.823
   298  H   0.972        N  286 0.953
   299  H   0.997        C  287 0.951
   300  H   0.995        C  290 0.947
   301  H   0.996        C  290 0.970
   302  H   0.998        C  292 0.960
   303  H   0.998        C  293 0.968
   304  H   0.997        C  294 0.968
   305  H   0.998        C  295 0.966
   306  H   0.890        O  297 0.823
   307  N   2.990        C  308 1.024    H  514 0.958    H  315 0.913
   308  C   3.987        N  307 1.024    C  309 0.985    C  311 0.953    H  316 0.944
   309  C   3.889        O  310 1.870    C  308 0.985    H  515 0.955
   310  O   2.011        C  309 1.870
   311  C   3.991        C  312 0.990    H  317 0.973    H  318 0.973    C  308 0.953
   312  C   3.995        C  314 1.011    C  313 1.006    C  311 0.990    H  319 0.965
   313  C   3.994        C  312 1.006    H  321 0.987    H  322 0.985    H  320 0.982
   314  C   3.996        C  312 1.011    H  324 0.985    H  323 0.982    H  325 0.982
   315  H   0.963        N  307 0.913
   316  H   0.997        C  308 0.944
   317  H   0.998        C  311 0.973
   318  H   0.998        C  311 0.973
   319  H   0.999        C  312 0.965
   320  H   0.997        C  313 0.982
   321  H   0.999        C  313 0.987
   322  H   0.997        C  313 0.985
   323  H   0.998        C  314 0.982
   324  H   0.998        C  314 0.985
   325  H   0.999        C  314 0.982
   326  N   2.997        C  327 1.011    H  516 0.956    H  334 0.951
   327  C   3.984        N  326 1.011    C  328 0.985    C  330 0.958    H  335 0.956
   328  C   3.882        O  329 1.840    C  327 0.985    H  517 0.954
   329  O   2.032        C  328 1.840
   330  C   3.989        C  331 0.988    H  336 0.972    H  337 0.968    C  327 0.958
   331  C   3.995        C  333 1.010    C  332 1.005    C  330 0.988    H  338 0.968
   332  C   3.993        C  331 1.005    H  340 0.986    H  341 0.986    H  339 0.985
   333  C   3.995        C  331 1.010    H  343 0.986    H  342 0.984    H  344 0.983
   334  H   0.971        N  326 0.951
   335  H   0.998        C  327 0.956
   336  H   0.997        C  330 0.972
   337  H   0.997        C  330 0.968
   338  H   0.999        C  331 0.968
   339  H   0.996        C  332 0.985
   340  H   0.998        C  332 0.986
   341  H   0.998        C  332 0.986
   342  H   0.998        C  333 0.984
   343  H   0.998        C  333 0.986
   344  H   0.999        C  333 0.983
   345  N   3.000        C  346 1.030    H  518 0.953    H  351 0.949
   346  C   3.987        N  345 1.030    C  347 0.986    C  349 0.948    H  352 0.925
   347  C   3.895        O  348 1.882    C  346 0.986    H  519 0.951
   348  O   2.033        C  347 1.882
   349  C   3.961        O  350 1.014    H  354 0.969    H  353 0.968    C  346 0.948
   350  O   1.949        C  349 1.014    H  355 0.838
   351  H   0.971        N  345 0.949
   352  H   0.993        C  346 0.925
   353  H   0.999        C  349 0.968
   354  H   0.997        C  349 0.969
   355  H   0.894        O  350 0.838
   356  N   3.003        C  357 1.028    H  520 0.953    H  364 0.950
   357  C   3.983        N  356 1.028    C  358 0.998    C  360 0.941    H  365 0.920
   358  C   3.901        O  359 1.871    C  357 0.998    H  521 0.954
   359  O   2.028        C  358 1.871
   360  C   3.992        C  362 1.010    C  361 0.994    H  366 0.963    C  357 0.941
   361  C   3.996        C  363 1.019    C  360 0.994    H  367 0.975    H  368 0.972
   362  C   3.995        C  360 1.010    H  370 0.986    H  371 0.983    H  369 0.981
   363  C   3.996        C  361 1.019    H  372 0.987    H  373 0.984    H  374 0.980
   364  H   0.973        N  356 0.950
   365  H   0.993        C  357 0.920
   366  H   0.997        C  360 0.963
   367  H   0.999        C  361 0.975
   368  H   0.998        C  361 0.972
   369  H   0.998        C  362 0.981
   370  H   0.999        C  362 0.986
   371  H   0.999        C  362 0.983
   372  H   0.999        C  363 0.987
   373  H   0.999        C  363 0.984
   374  H   0.999        C  363 0.980
   375  N   2.994        C  376 1.016    H  522 0.955    H  384 0.954
   376  C   3.984        N  375 1.016    C  379 0.975    H  385 0.955    C  377 0.943
   377  C   3.942        O  378 1.614    N  392 1.300    C  376 0.943
   378  O   1.978        C  377 1.614    N  392 0.193
   379  C   3.990        C  380 1.005    C  376 0.975    H  386 0.974    H  387 0.970
   380  C   3.995        C  379 1.005    C  381 0.973    H  389 0.962    H  388 0.949
   381  C   3.941        O  382 1.605    N  383 1.322    C  380 0.973
   382  O   1.960        C  381 1.605    N  383 0.190
   383  N   3.405        C  381 1.322    H  390 0.930    H  391 0.923    O  382 0.190
   384  H   0.973        N  375 0.954
   385  H   0.997        C  376 0.955
   386  H   0.996        C  379 0.974
   387  H   0.996        C  379 0.970
   388  H   0.994        C  380 0.949
   389  H   0.995        C  380 0.962
   390  H   0.948        N  383 0.930
   391  H   0.945        N  383 0.923
   392  N   3.475        C  377 1.300    C  393 0.980    H  400 0.919    O  378 0.193
   393  C   3.968        N  392 0.980    C  396 0.970    C  394 0.964    H  401 0.943
   394  C   3.896        O  395 1.891    C  393 0.964    H  523 0.950
   395  O   2.065        C  394 1.891
   396  C   3.986        C  397 1.008    H  402 0.970    C  393 0.970    H  403 0.965
   397  C   3.979        C  396 1.008    S  398 0.992    H  405 0.971    H  404 0.965
   398  S   2.092        C  399 1.010    C  397 0.992
   399  C   3.979        S  398 1.010    H  408 0.985    H  407 0.983    H  406 0.982
   400  H   0.951        N  392 0.919
   401  H   0.991        C  393 0.943
   402  H   0.994        C  396 0.970
   403  H   0.994        C  396 0.965
   404  H   0.995        C  397 0.965
   405  H   0.996        C  397 0.971
   406  H   0.997        C  399 0.982
   407  H   0.997        C  399 0.983
   408  H   0.997        C  399 0.985
   409  N   2.993        C  410 1.008    H  524 0.957    H  421 0.953
   410  C   3.983        N  409 1.008    C  413 0.967    H  422 0.966    C  411 0.938
   411  C   3.942        O  412 1.614    N  430 1.307    C  410 0.938
   412  O   1.946        C  411 1.614    N  430 0.195
   413  C   3.991        C  414 1.011    H  423 0.969    C  410 0.967    H  424 0.960
   414  C   3.989        C  416 1.414    C  415 1.401    C  413 1.011
   415  C   3.991        C  417 1.461    C  414 1.401    H  425 0.965    C  418 0.106
   416  C   3.991        C  418 1.447    C  414 1.414    H  426 0.968    C  417 0.106
   417  C   3.988        C  415 1.461    C  419 1.361    H  427 0.967    C  416 0.106
   418  C   3.987        C  416 1.447    C  419 1.374    H  428 0.966    C  415 0.106
   419  C   3.938        C  418 1.374    C  417 1.361    O  420 1.071
   420  O   2.088        C  419 1.071    H  429 0.859
   421  H   0.974        N  409 0.953
   422  H   0.999        C  410 0.966
   423  H   0.997        C  413 0.969
   424  H   0.994        C  413 0.960
   425  H   0.998        C  415 0.965
   426  H   0.998        C  416 0.968
   427  H   0.998        C  417 0.967
   428  H   0.998        C  418 0.966
   429  H   0.880        O  420 0.859
   430  N   3.478        C  411 1.307    C  431 0.992    H  437 0.879    O  412 0.195
   431  C   3.965        N  430 0.992    C  434 0.960    C  432 0.938    H  438 0.935
   432  C   3.942        O  433 1.588    N  446 1.317    C  431 0.938
   433  O   1.962        C  432 1.588    N  446 0.185
   434  C   3.985        C  436 1.010    C  435 1.007    H  439 0.964    C  431 0.960
   435  C   3.990        C  434 1.007    H  441 0.983    H  440 0.981    H  442 0.979
   436  C   3.991        C  434 1.010    H  443 0.984    H  445 0.984    H  444 0.972
   437  H   0.940        N  430 0.879
   438  H   0.994        C  431 0.935
   439  H   0.997        C  434 0.964
   440  H   0.997        C  435 0.981
   441  H   0.998        C  435 0.983
   442  H   0.995        C  435 0.979
   443  H   0.997        C  436 0.984
   444  H   0.995        C  436 0.972
   445  H   0.999        C  436 0.984
   446  N   3.478        C  432 1.317    C  447 0.983    H  452 0.881    O  433 0.185
   447  C   3.968        N  446 0.983    C  448 0.963    C  450 0.954    H  453 0.951
   448  C   3.894        O  449 1.908    C  447 0.963    H  525 0.951
   449  O   2.062        C  448 1.908
   450  C   3.948        O  451 1.013    H  455 0.965    H  454 0.963    C  447 0.954
   451  O   1.957        C  450 1.013    H  456 0.881
   452  H   0.944        N  446 0.881
   453  H   0.994        C  447 0.951
   454  H   0.995        C  450 0.963
   455  H   0.993        C  450 0.965
   456  H   0.896        O  451 0.881
   457  N   2.993        C  458 1.007    H  526 0.960    H  465 0.930
   458  C   3.983        N  457 1.007    C  461 0.981    H  466 0.962    C  459 0.936
   459  C   3.935        O  460 1.593    N  476 1.317    C  458 0.936
   460  O   1.962        C  459 1.593    N  476 0.192
   461  C   3.991        C  462 0.992    C  458 0.981    H  467 0.971    H  468 0.965
   462  C   3.996        C  463 1.010    C  464 1.010    C  461 0.992    H  469 0.969
   463  C   3.996        C  462 1.010    H  470 0.984    H  471 0.982    H  472 0.980
   464  C   3.995        C  462 1.010    H  475 0.986    H  473 0.985    H  474 0.981
   465  H   0.969        N  457 0.930
   466  H   0.998        C  458 0.962
   467  H   0.997        C  461 0.971
   468  H   0.998        C  461 0.965
   469  H   0.999        C  462 0.969
   470  H   0.998        C  463 0.984
   471  H   0.998        C  463 0.982
   472  H   0.999        C  463 0.980
   473  H   0.998        C  464 0.985
   474  H   0.998        C  464 0.981
   475  H   0.999        C  464 0.986
   476  N   3.464        C  459 1.317    C  477 0.980    H  482 0.861    O  460 0.192
   477  C   3.972        N  476 0.980    C  478 0.974    C  480 0.950    H  483 0.948
   478  C   3.901        O  479 1.895    C  477 0.974    H  527 0.956
   479  O   2.042        C  478 1.895
   480  C   3.949        O  481 1.014    H  484 0.954    H  485 0.953    C  477 0.950
   481  O   1.948        C  480 1.014    H  486 0.840
   482  H   0.945        N  476 0.861
   483  H   0.996        C  477 0.948
   484  H   0.998        C  480 0.954
   485  H   0.994        C  480 0.953
   486  H   0.895        O  481 0.840
   487  N   2.999        C  488 1.014    H  528 0.957    H  495 0.918
   488  C   3.984        N  487 1.014    C  489 0.978    H  496 0.959    C  491 0.947
   489  C   3.888        O  490 1.877    C  488 0.978    H  529 0.955
   490  O   2.017        C  489 1.877
   491  C   3.991        C  493 1.007    C  492 0.996    H  497 0.961    C  488 0.947
   492  C   3.997        C  494 1.019    C  491 0.996    H  499 0.977    H  498 0.974
   493  C   3.996        C  491 1.007    H  502 0.987    H  501 0.984    H  500 0.983
   494  C   3.996        C  492 1.019    H  504 0.985    H  503 0.984    H  505 0.972
   495  H   0.966        N  487 0.918
   496  H   0.998        C  488 0.959
   497  H   0.998        C  491 0.961
   498  H   0.998        C  492 0.974
   499  H   0.998        C  492 0.977
   500  H   0.997        C  493 0.983
   501  H   0.999        C  493 0.984
   502  H   0.999        C  493 0.987
   503  H   0.998        C  494 0.984
   504  H   0.999        C  494 0.985
   505  H   0.998        C  494 0.972
   506  H   0.967        N    1 0.956
   507  H   0.993        C    3 0.952
   508  H   0.963        N   21 0.949
   509  H   0.994        C   53 0.952
   510  H   0.967        N   61 0.954
   511  H   0.996        C  268 0.956
   512  H   0.967        N  286 0.954
   513  H   0.994        C  288 0.953
   514  H   0.970        N  307 0.958
   515  H   0.995        C  309 0.955
   516  H   0.967        N  326 0.956
   517  H   0.993        C  328 0.954
   518  H   0.965        N  345 0.953
   519  H   0.993        C  347 0.951
   520  H   0.969        N  356 0.953
   521  H   0.995        C  358 0.954
   522  H   0.967        N  375 0.955
   523  H   0.993        C  394 0.950
   524  H   0.967        N  409 0.957
   525  H   0.993        C  448 0.951
   526  H   0.969        N  457 0.960
   527  H   0.995        C  478 0.956
   528  H   0.970        N  487 0.957
   529  H   0.996        C  489 0.955
 
molecular dipole:
                 x           y           z       tot (Debye)
 q only:       14.091     -25.959      -0.414
   full:       16.528     -29.031       0.477      84.919
molecular quadrupole (traceless):
                xx          xy          yy          xz          yz          zz
 q only:     3156.948    -908.620   -3636.656    1210.002   -2162.861     479.708
  q+dip:     3536.024    -972.775   -4156.553    1467.739   -2339.827     620.529
   full:     3535.892    -974.876   -4155.422    1470.812   -2340.173     619.530


           -------------------------------------------------
          | TOTAL ENERGY             -773.496552731926 Eh   |
          | GRADIENT NORM               0.770640050793 Eh/α |
          | HOMO-LUMO GAP               1.288027873173 eV   |
           -------------------------------------------------

------------------------------------------------------------------------
 * finished run on 2019/05/31 at 07:36:38.447     
------------------------------------------------------------------------
 total:
 * wall-time:     0 d,  0 h,  0 min, 31.498 sec
 *  cpu-time:     0 d,  0 h,  0 min, 15.049 sec
 * ratio c/w:     0.478 speedup
 SCF:
 * wall-time:     0 d,  0 h,  0 min, 30.042 sec
 *  cpu-time:     0 d,  0 h,  0 min, 14.419 sec
 * ratio c/w:     0.480 speedup

