      -----------------------------------------------------------      
     |                   =====================                   |     
     |                           x T B                           |     
     |                   =====================                   |     
     |                         S. Grimme                         |     
     |          Mulliken Center for Theoretical Chemistry        |     
     |                    University of Bonn                     |     
     |                Version 6.1 RC1 (SAW190329)                |     
      -----------------------------------------------------------      

   This program is distributed in the hope that it will be useful,
   but WITHOUT ANY WARRANTY; without even the implied warranty of
   MERCHANTABILITY or FITNESS FOR A PARTICULAR PURPOSE.
   
   FOR NON-COMMERCIAL, ACADEMIA USE ONLY.
   
   Cite this work as:
   S. Grimme, C. Bannwarth, P. Shushkov, J. Comput. Theory Chem., 2017,
   13, 1989-2009. DOI: 10.1021/acs.jctc.7b00118
   C. Bannwarth, S. Ehlert and S. Grimme., J. Comput. Theory Chem., 2019,
   just accepted. DOI: 10.1021/acs.jctc.8b01176
   
   for sTDA-xTB:
   S. Grimme and C. Bannwarth, J. Chem. Phys., 2016, 145, 054103.
   DOI: 10.1063/1.4959605
   
   in the mass-spec context:
   V. Asgeirsson, C. Bauer and S. Grimme, Chem. Sci., 2017, 8, 4879.
   DOI: 10.1039/c7sc00601b
   
   for metadynamics refer to:
   S. Grimme, ChemRxiv, Preprint. DOI: 10.26434/chemrxiv.7660532.v1
   
   with help from (in alphabetical order)
   C. Bannwarth, F. Bohle, G. Brandenburg, E. Caldeweyher, M. Checinski,
   S. Dohm, S. Ehlert, S. Ehrlich, F. März, H. Neugebauer, J. Pisarek,
   P. Pracht, P. Shushkov, and S. Spicher.
   
 * started run on 2019/05/31 at 07:36:32.974     

           -------------------------------------------------
          |                Calculation Setup                |
           -------------------------------------------------

          program call               : /home/lum/install/xtb/xtb-190329/bin/xtb xtb_tmp.xyz --chrg 0 --grad --gfn 2 --etemp 500 --acc 0.1 --gbsa h2o --parallel 1
          hostname                   : cu05
          coordinate file            : xtb_tmp.xyz
          omp threads                :                     1
          number of atoms            :                   276
          number of electrons        :                   748
          charge                     :                     0
          spin                       :                   0.0
          first test random number   :      0.05887885065968


molecular fragmentation (1/2 indicates fragments):
111111111111111111111111222222222222222222222222222222222222222222222222
222222222222222222222222222222222222222222222222222222222222222222222222
222222222222222222222222222222222222222222222222222222222222222222222222
222222222222222222222222222222222222222222222222112222222222
# atoms in fragment 1/2:    26   250
 fragment masses (1/2) :      159.21     1749.07
CMA distance (Bohr)    :  18.473
constraining FC (au)   :  0.0500

########################################################################
# WARNING! Please study the warnings concerning your input carefully
#  - XTBPATH is not set, using XTBHOME instead
########################################################################

           ------------------------------------------------- 
          |                 G F N 2 - x T B                 |
          | Geometry, Frequencies, Noncovalent interactions |
          |            JCTC 2018 parametrisation            |
           ------------------------------------------------- 
 
             k(s)              :                1.8500
             k(p)              :                2.2300
             k(d)              :                2.2300
             k(f)              :                2.0000
             kEN (H0ij)        :               -2.0000
             D4 a1             :                0.5200
             D4 a2             :                5.0000
             D4 s6             :                1.0000
             D4 s8             :                2.7000
             D4 s9             :                5.0000
             alphaj            :                2.0000

  Z AO/shell   Hii/eV     exponent
  1     Wed Apr 25 08:07:45 CEST 2018   EN: 2.200 GM2: 0.406  GM3: 0.0800  RAES: 1.40
     1s    -10.707211    1.230000
  6     Wed Apr 25 08:07:45 CEST 2018   EN: 2.550 GM2: 0.538  GM3: 0.1500  RAES: 3.00
     2s    -13.970922    2.096432
     2p    -10.063292    1.800000
  7     Wed Apr 25 08:07:45 CEST 2018   EN: 3.040 GM2: 0.461  GM3:-0.0640  RAES: 1.90
     2s    -16.686243    2.339881
     2p    -12.523956    2.014332
  8     Wed Apr 25 08:07:45 CEST 2018   EN: 3.440 GM2: 0.452  GM3:-0.0517  RAES: 1.80
     2s    -20.229985    2.439742
     2p    -15.503117    2.137023
 16     Tue Apr 24 11:44:34 CEST 2018   EN: 2.580 GM2: 0.340  GM3:-0.0502  RAES: 3.10
     3s    -20.029654    1.981333
     3p    -11.377694    2.025643
     3d     -0.420282    1.702555

 Solvent             : h2o
 Using internal parameter file: .param_gbsa2_h2o
 Gsolv ref. state (COSMO-RS): gsolv [1 M gas/solution]
 temperature (mdtemp)       :    298.150000000000     
 dielectric constant        :    80.2000000000000     
 rho                        :    1.00000000000000     
 mass                       :    18.0000000000000     
 surface tension            :    15.5689454083859     
 probe radius               :   0.975313790000000     
 vdW radii scaling          :    1.00000000000000     
 Gshift (Eh)                :   1.857443126794793E-003
 c1                         :    1.55243817000000     
 soset                      :   0.130326360000000     
 HB correction              :  T
 Number of grid points      :          230

            Z     q(EN)     CN     RAES       Cart. coordinates
     1  N   5.0   -0.71    3.00    1.93    56.58747    34.70300    50.52817
     2  C   4.0    0.06    3.98    3.58    57.59762    35.37224    52.99069
     3  C   4.0    0.08    3.00    3.02    59.15022    37.80069    52.81923
     4  O   6.0   -0.42    1.00    1.80    59.03180    39.45768    54.42621
     5  C   4.0   -0.15    3.99    3.60    59.32128    33.29018    54.02492
     6  C   4.0   -0.16    3.98    3.59    57.89531    30.89749    54.80758
     7  C   4.0   -0.04    3.99    3.60    59.71828    29.06270    56.09241
     8  N   5.0   -0.48    3.02    1.93    58.40479    26.75954    56.80979
     9  C   4.0    0.38    3.01    3.02    59.53815    24.71516    57.73007
    10  N   5.0   -0.63    3.02    1.93    62.03458    24.65834    58.02953
    11  N   5.0   -0.64    3.02    1.93    58.18338    22.64702    58.20369
    12  H   1.0    0.26    1.00    1.43    57.09632    33.01261    49.80975
    13  H   1.0    0.12    0.99    1.43    56.03125    35.73821    54.29838
    14  H   1.0    0.11    0.99    1.43    60.75230    32.84035    52.60962
    15  H   1.0    0.11    0.99    1.43    60.27726    34.05973    55.68114
    16  H   1.0    0.11    0.99    1.43    56.37299    31.39061    56.10897
    17  H   1.0    0.12    0.99    1.43    57.05044    29.98812    53.16407
    18  H   1.0    0.12    0.99    1.43    61.23450    28.57723    54.77397
    19  H   1.0    0.11    0.99    1.43    60.52416    29.97246    57.76847
    20  H   1.0    0.24    1.00    1.43    56.49685    26.80420    56.76499
    21  H   1.0    0.27    1.00    1.43    63.07748    26.24756    57.92972
    22  H   1.0    0.28    1.00    1.43    62.87294    23.11627    58.76383
    23  H   1.0    0.28    1.00    1.43    56.28530    22.65612    58.05783
    24  H   1.0    0.28    1.00    1.43    58.98826    21.11308    58.98935
    25  N   5.0   -0.71    3.00    1.93    56.77935    50.34621    69.12090
    26  C   4.0    0.06    3.98    3.59    55.86711    47.91146    69.97938
    27  C   4.0    0.06    3.00    3.02    53.10617    47.46944    69.22637
    28  O   6.0   -0.48    1.00    1.80    52.42145    45.41579    68.37550
    29  C   4.0   -0.13    3.99    3.60    56.20443    47.73495    72.84350
    30  C   4.0   -0.03    3.03    3.02    58.90948    48.13201    73.64024
    31  C   4.0   -0.10    3.03    3.02    60.88744    46.90045    72.42191
    32  C   4.0   -0.10    3.03    3.02    59.46513    49.69155    75.67637
    33  C   4.0   -0.11    3.03    3.02    63.36004    47.25282    73.19749
    34  C   4.0   -0.11    3.03    3.02    61.93084    50.00755    76.48478
    35  C   4.0   -0.11    3.03    3.02    63.88904    48.80615    75.23593
    36  H   1.0    0.26    1.00    1.43    57.26208    51.65096    70.43899
    37  H   1.0    0.11    0.99    1.43    56.94091    46.41528    69.01988
    38  H   1.0    0.10    0.99    1.43    55.00347    49.15438    73.73636
    39  H   1.0    0.11    0.99    1.43    55.57627    45.86919    73.47094
    40  H   1.0    0.10    1.00    1.43    60.50300    45.63587    70.86700
    41  H   1.0    0.10    1.00    1.43    57.95331    50.65174    76.65180
    42  H   1.0    0.11    1.00    1.43    64.86763    46.29164    72.21607
    43  H   1.0    0.11    1.00    1.43    62.31315    51.17686    78.11143
    44  H   1.0    0.11    1.00    1.43    65.81779    49.04588    75.85247
    45  N   5.0   -0.69    3.00    1.93    52.64477    44.94451    62.64409
    46  C   4.0    0.08    3.99    3.60    53.23406    42.26750    62.58500
    47  C   4.0    0.28    3.01    3.02    50.81666    40.78067    63.19643
    48  O   6.0   -0.43    1.00    1.80    49.97203    39.12366    61.81765
    49  C   4.0   -0.09    3.98    3.58    55.37363    41.60258    64.42811
    50  C   4.0   -0.22    3.98    3.59    55.77406    38.74266    64.44707
    51  C   4.0   -0.23    3.98    3.59    57.81657    42.93851    63.65535
    52  H   1.0    0.27    1.00    1.43    53.81440    46.12649    63.58912
    53  H   1.0    0.12    0.99    1.43    53.80023    41.73430    60.66480
    54  H   1.0    0.13    0.99    1.43    54.81105    42.23931    66.31155
    55  H   1.0    0.11    0.99    1.43    57.31814    38.23747    65.70037
    56  H   1.0    0.13    0.99    1.43    54.09113    37.74140    65.07123
    57  H   1.0    0.11    0.99    1.43    56.23083    38.08275    62.55616
    58  H   1.0    0.10    0.99    1.43    59.33985    42.37253    64.90952
    59  H   1.0    0.11    0.99    1.43    58.32632    42.40711    61.73752
    60  H   1.0    0.10    0.99    1.43    57.63058    44.98314    63.75178
    61  N   5.0   -0.49    3.01    1.93    49.77691    41.45332    65.40097
    62  C   4.0    0.07    3.99    3.61    47.66492    40.07427    66.45230
    63  C   4.0    0.08    3.00    3.02    45.39175    40.25884    64.67172
    64  O   6.0   -0.40    1.00    1.80    44.05984    38.42581    64.17760
    65  C   4.0   -0.09    3.98    3.59    46.97678    41.08494    69.08578
    66  C   4.0   -0.22    3.98    3.59    44.68655    39.67318    70.12130
    67  C   4.0   -0.22    3.98    3.59    49.19475    40.81559    70.91443
    68  H   1.0    0.29    1.00    1.43    50.58300    42.84071    66.44766
    69  H   1.0    0.13    0.99    1.43    48.15945    38.05668    66.55961
    70  H   1.0    0.12    0.99    1.43    46.51220    43.08962    68.86976
    71  H   1.0    0.10    0.99    1.43    44.14125    40.47093    71.92952
    72  H   1.0    0.13    0.99    1.43    43.09860    39.78208    68.82605
    73  H   1.0    0.11    0.99    1.43    45.14754    37.68690    70.38630
    74  H   1.0    0.10    0.99    1.43    48.61127    41.40081    72.79499
    75  H   1.0    0.10    0.99    1.43    49.81171    38.85565    71.00053
    76  H   1.0    0.13    0.99    1.43    50.78653    41.97430    70.33867
    77  N   5.0   -0.69    3.00    1.93    45.28171    36.02096    58.83560
    78  C   4.0    0.08    3.98    3.59    45.05479    33.35078    59.42688
    79  C   4.0    0.11    3.00    3.02    42.34147    32.76326    60.22759
    80  O   6.0   -0.36    1.00    1.80    41.08868    31.08583    59.23399
    81  C   4.0   -0.09    3.98    3.58    46.90683    32.50894    61.45694
    82  C   4.0    0.32    2.99    3.02    47.12863    29.56401    61.27345
    83  O   6.0   -0.37    1.00    1.80    48.31947    28.71069    59.44736
    84  O   6.0   -0.36    1.00    1.80    46.07321    28.30385    62.96411
    85  H   1.0    0.31    1.00    1.43    46.64047    37.05133    59.70202
    86  H   1.0    0.15    0.99    1.43    45.41746    32.26804    57.68687
    87  H   1.0    0.13    0.99    1.43    48.75719    33.33675    61.08089
    88  H   1.0    0.13    0.99    1.43    46.25458    33.06680    63.32756
    89  N   5.0   -0.72    3.00    1.93    54.14167    45.23072    83.34266
    90  C   4.0    0.07    3.98    3.59    53.45767    45.10681    80.69369
    91  C   4.0    0.28    3.01    3.02    55.64745    43.98725    79.17469
    92  O   6.0   -0.47    1.00    1.80    55.32992    42.32780    77.59208
    93  C   4.0   -0.15    4.00    3.62    52.73696    47.73654    79.72566
    94  C   4.0   -0.14    3.98    3.58    50.78618    47.63028    77.61677
    95  S   6.0   -0.16    2.01    3.10    47.78137    46.20001    78.56426
    96  C   4.0   -0.21    3.98    3.58    46.99310    48.10331    81.32336
    97  H   1.0    0.25    1.00    1.43    54.14233    46.95850    84.17856
    98  H   1.0    0.11    0.99    1.43    51.85139    43.80748    80.47623
    99  H   1.0    0.10    0.99    1.43    51.99504    48.83349    81.30772
   100  H   1.0    0.10    0.99    1.43    54.42897    48.69056    79.03164
   101  H   1.0    0.10    0.99    1.43    50.39107    49.52057    76.90117
   102  H   1.0    0.11    0.99    1.43    51.43872    46.44585    76.06373
   103  H   1.0    0.11    0.99    1.43    44.98285    47.85762    81.65966
   104  H   1.0    0.10    0.99    1.43    48.04363    47.43037    82.95243
   105  H   1.0    0.10    0.99    1.43    47.42443    50.07374    80.95126
   106  N   5.0   -0.49    3.00    1.93    57.90715    44.97076    79.71611
   107  C   4.0    0.01    4.00    3.62    60.17633    43.99622    78.55121
   108  C   4.0    0.29    3.01    3.02    60.33889    41.12695    78.79258
   109  O   6.0   -0.46    1.00    1.80    60.84366    39.77570    76.97667
   110  H   1.0    0.23    1.00    1.43    58.07740    46.41687    80.96381
   111  H   1.0    0.13    0.99    1.43    60.23067    44.45402    76.53633
   112  H   1.0    0.10    0.99    1.43    61.80468    44.83918    79.48629
   113  N   5.0   -0.48    3.01    1.93    59.97200    40.26575    81.12678
   114  C   4.0    0.06    3.99    3.61    60.20457    37.61300    81.75599
   115  C   4.0    0.29    3.01    3.02    58.21937    36.05536    80.33959
   116  O   6.0   -0.47    1.00    1.80    58.76308    34.05436    79.29846
   117  C   4.0   -0.15    3.99    3.60    59.97653    37.24659    84.61918
   118  C   4.0   -0.11    3.98    3.58    61.48188    34.96229    85.58272
   119  C   4.0   -0.23    3.98    3.59    64.30056    35.57864    85.70517
   120  C   4.0   -0.23    3.98    3.59    60.53486    34.17669    88.19397
   121  H   1.0    0.23    1.00    1.43    59.63790    41.50065    82.55634
   122  H   1.0    0.12    0.99    1.43    62.05005    36.94165    81.08569
   123  H   1.0    0.10    0.99    1.43    60.68102    38.95276    85.54177
   124  H   1.0    0.10    0.99    1.43    57.98260    37.04827    85.10636
   125  H   1.0    0.12    0.99    1.43    61.18987    33.38839    84.27036
   126  H   1.0    0.10    0.99    1.43    65.36234    33.94210    86.34657
   127  H   1.0    0.10    0.99    1.43    65.02623    36.12085    83.86159
   128  H   1.0    0.10    0.99    1.43    64.62782    37.12565    87.01857
   129  H   1.0    0.10    0.99    1.43    61.62780    32.58619    88.89599
   130  H   1.0    0.10    0.99    1.43    60.72556    35.73452    89.51997
   131  H   1.0    0.10    0.99    1.43    58.55983    33.61752    88.11298
   132  N   5.0   -0.47    3.01    1.93    55.89456    37.01962    80.35971
   133  C   4.0    0.07    4.00    3.61    53.79843    35.72196    79.15659
   134  C   4.0    0.30    3.01    3.02    54.38211    35.39207    76.34083
   135  O   6.0   -0.46    1.00    1.80    54.17413    33.34600    75.26450
   136  C   4.0   -0.14    3.98    3.59    51.31288    37.15724    79.61998
   137  C   4.0   -0.04    3.12    3.03    49.09046    35.44015    79.96517
   138  C   4.0    0.01    3.22    3.04    48.96817    33.38576    81.52665
   139  C   4.0    0.02    3.18    3.03    46.64944    35.67190    78.82634
   140  N   5.0   -0.48    3.10    1.94    46.61842    32.32288    81.43265
   141  C   4.0    0.12    3.22    3.04    45.15757    33.66831    79.79338
   142  C   4.0   -0.11    3.02    3.02    45.55828    37.36230    77.12105
   143  C   4.0   -0.10    3.02    3.02    42.65159    33.32715    79.08662
   144  C   4.0   -0.11    3.03    3.02    43.07316    37.01647    76.43319
   145  C   4.0   -0.11    3.03    3.02    41.63291    35.02132    77.39475
   146  H   1.0    0.24    1.00    1.43    55.52753    38.62374    81.35019
   147  H   1.0    0.12    0.99    1.43    53.67439    33.80422    79.93558
   148  H   1.0    0.10    0.99    1.43    51.56336    38.27958    81.34027
   149  H   1.0    0.12    0.99    1.43    50.95719    38.45383    78.05855
   150  H   1.0    0.10    1.00    1.43    50.39508    32.60421    82.73810
   151  H   1.0    0.23    1.00    1.43    46.08367    30.75315    82.35879
   152  H   1.0    0.11    1.00    1.43    46.64756    38.90906    76.35965
   153  H   1.0    0.12    1.00    1.43    41.54876    31.78588    79.84171
   154  H   1.0    0.11    1.00    1.43    42.20011    38.29932    75.10952
   155  H   1.0    0.12    1.00    1.43    39.69669    34.80092    76.78717
   156  N   5.0   -0.47    3.01    1.93    55.15065    37.49089    75.17536
   157  C   4.0    0.07    3.99    3.61    55.93207    37.47786    72.54653
   158  C   4.0    0.30    3.02    3.02    57.97688    35.46958    72.17233
   159  O   6.0   -0.45    1.00    1.80    57.82584    33.83613    70.51948
   160  C   4.0   -0.21    3.98    3.59    56.92374    40.07793    71.81451
   161  H   1.0    0.30    1.00    1.43    55.24605    39.17042    76.10529
   162  H   1.0    0.12    0.99    1.43    54.33309    36.94108    71.33487
   163  H   1.0    0.09    0.99    1.43    57.62200    40.03071    69.88606
   164  H   1.0    0.11    0.99    1.43    55.40040    41.44949    71.93308
   165  H   1.0    0.14    0.99    1.43    58.45042    40.62716    73.07522
   166  N   5.0   -0.47    3.01    1.93    59.93774    35.62734    73.73541
   167  C   4.0    0.08    4.00    3.62    62.00402    33.84441    73.54574
   168  C   4.0    0.31    3.01    3.02    60.96676    31.15544    73.30011
   169  O   6.0   -0.40    1.00    1.80    61.69603    29.72963    71.63345
   170  C   4.0   -0.13    3.99    3.60    63.75332    34.02122    75.84738
   171  C   4.0   -0.03    3.03    3.02    65.80384    32.06832    75.60690
   172  C   4.0   -0.08    3.03    3.02    65.53547    29.70786    76.72045
   173  C   4.0   -0.09    3.03    3.02    67.94394    32.55744    74.16702
   174  C   4.0   -0.09    3.03    3.02    67.36607    27.86693    76.39825
   175  C   4.0   -0.10    3.03    3.02    69.78253    30.72577    73.84935
   176  C   4.0   -0.10    3.03    3.02    69.49424    28.37191    74.95841
   177  H   1.0    0.30    1.00    1.43    60.09872    37.05709    75.01359
   178  H   1.0    0.13    0.99    1.43    63.07842    34.20697    71.80484
   179  H   1.0    0.11    0.99    1.43    64.54732    35.92358    75.91486
   180  H   1.0    0.14    0.99    1.43    62.62963    33.68398    77.54120
   181  H   1.0    0.12    1.00    1.43    63.88017    29.30271    77.84407
   182  H   1.0    0.11    1.00    1.43    68.16785    34.38816    73.29265
   183  H   1.0    0.14    0.99    1.43    67.10795    26.03995    77.27239
   184  H   1.0    0.12    1.00    1.43    71.43876    31.13282    72.73052
   185  H   1.0    0.12    1.00    1.43    70.93311    26.94531    74.71142
   186  N   5.0   -0.48    3.01    1.93    59.32039    30.47467    75.08871
   187  C   4.0    0.08    4.00    3.62    58.26291    27.94994    75.11669
   188  C   4.0    0.29    3.01    3.02    57.17288    27.31872    72.51435
   189  O   6.0   -0.39    1.00    1.80    57.79299    25.41439    71.35173
   190  C   4.0   -0.09    3.98    3.59    56.24091    27.66531    77.18387
   191  C   4.0   -0.15    3.98    3.59    57.45891    27.90239    79.80487
   192  C   4.0   -0.22    3.98    3.59    54.89081    25.13172    76.88195
   193  C   4.0   -0.23    3.98    3.58    55.52917    27.89002    81.94649
   194  H   1.0    0.30    1.00    1.43    58.72446    31.73742    76.39893
   195  H   1.0    0.14    0.99    1.43    59.79541    26.58074    75.43376
   196  H   1.0    0.14    0.99    1.43    54.87358    29.19793    76.92782
   197  H   1.0    0.11    0.99    1.43    58.79846    26.35379    80.06080
   198  H   1.0    0.13    0.99    1.43    58.50801    29.67324    79.88634
   199  H   1.0    0.10    0.99    1.43    53.38264    24.94668    78.25986
   200  H   1.0    0.13    0.99    1.43    54.07050    24.95609    75.00472
   201  H   1.0    0.12    0.99    1.43    56.22254    23.58500    77.12544
   202  H   1.0    0.10    0.99    1.43    56.45182    28.35549    83.72144
   203  H   1.0    0.10    0.99    1.43    54.05978    29.28011    81.58088
   204  H   1.0    0.10    0.99    1.43    54.64791    26.04736    82.13872
   205  N   5.0   -0.48    3.00    1.93    55.46453    28.97173    71.63600
   206  C   4.0    0.09    4.00    3.61    54.00562    28.38765    69.39822
   207  C   4.0    0.31    3.01    3.02    55.67652    27.55458    67.19318
   208  O   6.0   -0.38    1.00    1.80    54.97293    25.92324    65.71165
   209  C   4.0    0.04    3.98    3.58    52.34955    30.62218    68.49425
   210  O   6.0   -0.48    1.99    1.82    53.77845    32.63920    67.53767
   211  C   4.0   -0.21    3.98    3.58    50.51582    31.47706    70.56333
   212  H   1.0    0.29    1.00    1.43    54.98581    30.49627    72.68876
   213  H   1.0    0.12    0.99    1.43    52.73494    26.78818    69.78965
   214  H   1.0    0.14    0.99    1.43    51.24020    29.91231    66.88295
   215  H   1.0    0.31    0.99    1.43    55.11490    33.08766    68.75069
   216  H   1.0    0.11    0.99    1.43    49.28051    32.92183    69.78508
   217  H   1.0    0.11    0.99    1.43    49.35824    29.89529    71.16470
   218  H   1.0    0.14    0.99    1.43    51.51614    32.24654    72.18425
   219  N   5.0   -0.47    3.01    1.93    57.85459    28.81171    66.94615
   220  C   4.0    0.08    3.99    3.60    59.50997    28.46983    64.80643
   221  C   4.0    0.28    3.01    3.02    62.09428    27.34516    65.52102
   222  O   6.0   -0.42    1.00    1.80    63.87258    27.49878    64.04554
   223  C   4.0   -0.19    3.98    3.59    59.90608    30.99691    63.46265
   224  H   1.0    0.30    1.00    1.43    58.31374    30.16514    68.21437
   225  H   1.0    0.16    0.99    1.43    58.55210    27.12027    63.55690
   226  H   1.0    0.12    0.99    1.43    61.40886    30.80343    62.07980
   227  H   1.0    0.12    0.99    1.43    58.16135    31.61562    62.57443
   228  H   1.0    0.12    0.99    1.43    60.47311    32.40800    64.84456
   229  N   5.0   -0.44    3.00    1.93    62.23567    26.19876    67.76007
   230  C   4.0    0.04    4.00    3.62    64.62512    25.63873    68.94058
   231  C   4.0    0.28    3.00    3.02    64.84290    22.93779    69.92178
   232  O   6.0   -0.36    1.00    1.80    63.79525    21.12854    68.95339
   233  H   1.0    0.32    1.00    1.43    60.69080    26.11543    68.88488
   234  H   1.0    0.14    0.99    1.43    66.08266    25.92871    67.49804
   235  H   1.0    0.14    0.99    1.43    64.91346    26.97873    70.49047
   236  N   5.0   -0.49    3.01    1.93    66.47589    22.73596    71.86499
   237  C   4.0    0.02    3.99    3.60    67.12599    20.36869    73.06034
   238  C   4.0    0.26    3.01    3.02    66.57828    20.38863    75.88947
   239  O   6.0   -0.41    1.00    1.80    64.89608    21.64486    76.84394
   240  H   1.0    0.24    1.00    1.43    67.10865    24.32734    72.70533
   241  H   1.0    0.15    0.99    1.43    65.95662    18.91387    72.16648
   242  H   1.0    0.13    0.99    1.43    69.12226    19.93537    72.73407
   243  N   5.0   -0.48    3.01    1.93    68.08955    18.83861    77.24611
   244  C   4.0    0.07    3.99    3.60    67.87602    18.69240    79.97329
   245  C   4.0    0.07    3.00    3.02    70.49131    18.96708    81.15661
   246  O   6.0   -0.44    1.00    1.80    72.30532    19.75647    79.93973
   247  C   4.0   -0.02    3.98    3.58    66.53031    16.20514    80.70815
   248  O   6.0   -0.46    1.99    1.82    68.03264    14.06929    80.19481
   249  H   1.0    0.27    1.00    1.43    69.71792    18.24435    76.43773
   250  H   1.0    0.13    0.99    1.43    66.68591    20.28550    80.57307
   251  H   1.0    0.11    0.99    1.43    66.08883    16.17482    82.72099
   252  H   1.0    0.12    0.99    1.43    64.74404    16.13998    79.67156
   253  H   1.0    0.27    0.99    1.43    68.04193    13.78278    78.38868
   254  N   5.0   -0.69    3.00    1.93    76.22462    17.34936    77.29020
   255  C   4.0    0.08    3.98    3.58    77.02562    19.19568    75.43528
   256  C   4.0    0.08    3.00    3.02    78.81088    21.13260    76.64120
   257  O   6.0   -0.39    1.00    1.80    80.82199    21.70223    75.64604
   258  C   4.0   -0.01    3.98    3.59    74.67509    20.49101    74.31947
   259  O   6.0   -0.51    1.99    1.82    72.97401    18.71412    73.34556
   260  H   1.0    0.33    1.00    1.43    74.63034    17.81933    78.25901
   261  H   1.0    0.13    0.99    1.43    78.09808    18.23410    73.94623
   262  H   1.0    0.14    0.99    1.43    73.67204    21.49037    75.82383
   263  H   1.0    0.11    0.99    1.43    75.27507    21.87142    72.89960
   264  H   1.0    0.26    0.99    1.43    73.62603    18.00567    71.79059
   265  H   1.0    0.30    1.00    1.43    54.88852    34.67306    50.60050
   266  H   1.0    0.14    1.00    1.43    60.31343    38.07712    51.35581
   267  H   1.0    0.29    1.00    1.43    58.18353    50.12899    68.18621
   268  H   1.0    0.13    1.00    1.43    51.83902    48.85734    69.42421
   269  H   1.0    0.30    1.00    1.43    52.61179    45.55375    61.05654
   270  H   1.0    0.14    1.00    1.43    44.95177    41.91226    63.86942
   271  H   1.0    0.30    1.00    1.43    45.59837    36.20987    57.17530
   272  H   1.0    0.16    1.00    1.43    41.52635    33.76304    61.60856
   273  H   1.0    0.29    1.00    1.43    53.05518    44.29187    84.25407
   274  H   1.0    0.13    1.00    1.43    70.76295    18.49956    82.96732
   275  H   1.0    0.31    1.00    1.43    75.90922    15.86774    76.51696
   276  H   1.0    0.15    1.00    1.43    78.34304    21.96026    78.27435

           ------------------------------------------------- 
          |        Self-Consistent Charge Iterations        |
           ------------------------------------------------- 

          ...................................................
          :                      SETUP                      :
          :.................................................:
          :  # basis functions                 684          :
          :  # atomic orbitals                 683          :
          :  # shells                          411          :
          :  # electrons                       748          :
          :  max. iterations                   250          :
          :  Hamiltonian                  GFN2-xTB          :
          :  restarted?                      false          :
          :  GBSA solvation                   true          :
          :  PC potential                    false          :
          :  electronic temp.          500.0000000     K    :
          :  accuracy                    0.1000000          :
          :  -> integral cutoff          0.3500000E+02      :
          :  -> integral neglect         0.1000000E-08      :
          :  -> SCF convergence          0.1000000E-06 Eh   :
          :  -> wf. convergence          0.1000000E-04 e    :
          :  Broyden damping             0.4000000          :
          ...................................................

 iter      E             dE          RMSdq      gap      omega  full diag
   1   -426.3891773 -0.426389E+03  0.422E+00    1.35       0.0  T
   2   -427.3740356 -0.984858E+00  0.222E+00    1.56       1.0  T
   3   -427.4118921 -0.378566E-01  0.117E+00    1.94       1.0  T
   4   -427.4325135 -0.206214E-01  0.288E-01    1.23       1.0  T
   5   -427.4451215 -0.126080E-01  0.119E-01    1.37       1.0  T
   6   -427.4456558 -0.534290E-03  0.601E-02    1.43       1.0  T
   7   -427.4459745 -0.318703E-03  0.263E-02    1.45       1.0  T
   8   -427.4460131 -0.386291E-04  0.968E-03    1.47       1.0  T
   9   -427.4460181 -0.493836E-05  0.473E-03    1.48       1.3  T
  10   -427.4460194 -0.132608E-05  0.218E-03    1.48       2.8  T
  11   -427.4460196 -0.217382E-06  0.101E-03    1.48       6.0  T
  12   -427.4460197 -0.598794E-07  0.425E-04    1.48      14.2  T
  13   -427.4460197 -0.699140E-08  0.197E-04    1.48      30.6  T
  14   -427.4460197 -0.174816E-08  0.977E-05    1.48      61.6  T
  15   -427.4460197 -0.392447E-09  0.437E-05    1.48     137.9  T

   *** convergence criteria satisfied after 15 iterations ***

         #    Occupation            Energy/Eh            Energy/eV
      -------------------------------------------------------------
         1        2.0000           -0.7397097             -20.1285
       ...           ...                  ...                  ...
       368        2.0000           -0.3695345             -10.0555
       369        2.0000           -0.3691551             -10.0452
       370        2.0000           -0.3655751              -9.9478
       371        2.0000           -0.3637149              -9.8972
       372        2.0000           -0.3630153              -9.8781
       373        2.0000           -0.3609623              -9.8223
       374        2.0000           -0.3525582              -9.5936 (HOMO)
       375                         -0.2982762              -8.1165 (LUMO)
       376                         -0.2952216              -8.0334
       377                         -0.2868236              -7.8049
       378                         -0.2833577              -7.7106
       379                         -0.2819767              -7.6730
       ...                                ...                  ...
       683                          0.7184068              19.5488
      -------------------------------------------------------------
                  HL-Gap            0.0542820 Eh            1.4771 eV
             Fermi-level           -0.3255193 Eh           -8.8578 eV

 SCC (total)                   0 d,  0 h,  0 min,  6.533 sec
 SCC setup                      ...        0 min,  0.077 sec (  1.183%)
 Dispersion                     ...        0 min,  0.061 sec (  0.940%)
 integral evaluation            ...        0 min,  0.405 sec (  6.207%)
 zeroth order Hamiltonian       ...        0 min,  0.002 sec (  0.034%)
 iterations                     ...        0 min,  4.526 sec ( 69.277%)
 molecular gradient             ...        0 min,  1.401 sec ( 21.441%)
 printout                       ...        0 min,  0.060 sec (  0.916%)

         :::::::::::::::::::::::::::::::::::::::::::::::::::::
         ::                     SUMMARY                     ::
         :::::::::::::::::::::::::::::::::::::::::::::::::::::
         :: total energy             -422.030441175702 Eh   ::
         :: total w/o Gsasa/hb       -421.974812576056 Eh   ::
         :: gradient norm               0.541603996658 Eh/α ::
         :: HOMO-LUMO gap               1.477087115185 eV   ::
         ::.................................................::
         :: SCC energy               -427.462671606490 Eh   ::
         :: -> isotropic ES             1.185942781325 Eh   ::
         :: -> anisotropic ES          -0.024965730349 Eh   ::
         :: -> anisotropic XC           0.158206439904 Eh   ::
         :: -> dispersion              -0.338833258857 Eh   ::
         :: -> Gsolv                   -0.302942555943 Eh   ::
         ::    -> Gborn                -0.247313956296 Eh   ::
         ::    -> Gsasa                -0.018509353051 Eh   ::
         ::    -> Ghb                  -0.038976689722 Eh   ::
         ::    -> Gshift                0.001857443127 Eh   ::
         :: repulsion energy            5.405638085970 Eh   ::
         :: add. restraining            0.000000000000 Eh   ::
         :::::::::::::::::::::::::::::::::::::::::::::::::::::

           -------------------------------------------------
          |                Property Printout                |
           -------------------------------------------------

    * Orbital Energies and Occupations

         #    Occupation            Energy/Eh            Energy/eV
      -------------------------------------------------------------
         1        2.0000           -0.7397097             -20.1285
       ...           ...                  ...                  ...
       362        2.0000           -0.3917160             -10.6591
       363        2.0000           -0.3902489             -10.6192
       364        2.0000           -0.3828731             -10.4185
       365        2.0000           -0.3803984             -10.3512
       366        2.0000           -0.3753698             -10.2143
       367        2.0000           -0.3743301             -10.1860
       368        2.0000           -0.3695345             -10.0555
       369        2.0000           -0.3691551             -10.0452
       370        2.0000           -0.3655751              -9.9478
       371        2.0000           -0.3637149              -9.8972
       372        2.0000           -0.3630153              -9.8781
       373        2.0000           -0.3609623              -9.8223
       374        2.0000           -0.3525582              -9.5936 (HOMO)
       375                         -0.2982762              -8.1165 (LUMO)
       376                         -0.2952216              -8.0334
       377                         -0.2868236              -7.8049
       378                         -0.2833577              -7.7106
       379                         -0.2819767              -7.6730
       380                         -0.2801263              -7.6226
       381                         -0.2469080              -6.7187
       382                         -0.2428319              -6.6078
       383                         -0.2389062              -6.5010
       384                         -0.2368059              -6.4438
       385                         -0.2335782              -6.3560
       ...                                ...                  ...
       683                          0.7184068              19.5488
      -------------------------------------------------------------
                  HL-Gap            0.0542820 Eh            1.4771 eV
             Fermi-level           -0.3255193 Eh           -8.8578 eV

   #   Z        covCN         q      C6AA      α(0)
   1   7 N      2.635    -0.392    30.146     8.154
   2   6 C      3.782     0.040    19.927     6.359
   3   6 C      2.769     0.201    23.732     7.978
   4   8 O      0.856    -0.387    21.426     6.206
   5   6 C      3.810    -0.076    21.943     6.668
   6   6 C      3.803    -0.073    21.903     6.663
   7   6 C      3.741    -0.027    21.129     6.558
   8   7 N      2.701    -0.140    24.030     7.280
   9   6 C      2.738     0.232    23.128     7.874
  10   7 N      2.651    -0.239    26.250     7.609
  11   7 N      2.653    -0.258    26.706     7.675
  12   1 H      0.860     0.179     1.218     1.729
  13   1 H      0.924     0.042     2.416     2.431
  14   1 H      0.924     0.076     2.026     2.226
  15   1 H      0.924     0.056     2.250     2.346
  16   1 H      0.924     0.050     2.326     2.385
  17   1 H      0.925     0.069     2.097     2.264
  18   1 H      0.924     0.100     1.782     2.088
  19   1 H      0.924     0.076     2.022     2.224
  20   1 H      0.860     0.218     1.017     1.580
  21   1 H      0.860     0.248     0.890     1.478
  22   1 H      0.860     0.252     0.875     1.465
  23   1 H      0.860     0.238     0.930     1.511
  24   1 H      0.860     0.255     0.864     1.456
  25   7 N      2.636    -0.388    30.041     8.140
  26   6 C      3.783     0.042    19.887     6.352
  27   6 C      2.764     0.192    23.896     8.006
  28   8 O      0.856    -0.370    21.082     6.156
  29   6 C      3.812    -0.070    21.821     6.649
  30   6 C      2.969     0.010    27.785     8.646
  31   6 C      2.924    -0.041    29.022     8.835
  32   6 C      2.925    -0.045    29.109     8.848
  33   6 C      2.919    -0.033    28.822     8.804
  34   6 C      2.919    -0.036    28.885     8.813
  35   6 C      2.920    -0.036    28.891     8.814
  36   1 H      0.860     0.171     1.268     1.764
  37   1 H      0.923     0.053     2.277     2.360
  38   1 H      0.924     0.057     2.233     2.337
  39   1 H      0.924     0.052     2.299     2.371
  40   1 H      0.926     0.036     2.509     2.477
  41   1 H      0.926     0.041     2.440     2.443
  42   1 H      0.926     0.038     2.480     2.463
  43   1 H      0.926     0.048     2.346     2.395
  44   1 H      0.926     0.041     2.434     2.440
  45   7 N      2.636    -0.393    30.177     8.159
  46   6 C      3.793     0.032    20.048     6.376
  47   6 C      2.758     0.275    22.350     7.742
  48   8 O      0.858    -0.525    24.347     6.615
  49   6 C      3.852    -0.023    20.953     6.510
  50   6 C      3.757    -0.107    22.604     6.779
  51   6 C      3.756    -0.112    22.703     6.794
  52   1 H      0.860     0.165     1.306     1.790
  53   1 H      0.924     0.024     2.678     2.559
  54   1 H      0.924     0.056     2.249     2.345
  55   1 H      0.925     0.045     2.389     2.417
  56   1 H      0.925     0.023     2.683     2.562
  57   1 H      0.925     0.036     2.497     2.471
  58   1 H      0.925     0.050     2.321     2.382
  59   1 H      0.925     0.043     2.403     2.424
  60   1 H      0.925     0.045     2.380     2.412
  61   7 N      2.692    -0.182    24.932     7.416
  62   6 C      3.797     0.033    20.015     6.370
  63   6 C      2.766     0.206    23.618     7.959
  64   8 O      0.856    -0.376    21.213     6.175
  65   6 C      3.853    -0.018    20.851     6.495
  66   6 C      3.757    -0.112    22.701     6.793
  67   6 C      3.756    -0.117    22.798     6.808
  68   1 H      0.860     0.246     0.901     1.487
  69   1 H      0.923     0.056     2.247     2.344
  70   1 H      0.924     0.062     2.173     2.305
  71   1 H      0.925     0.066     2.132     2.284
  72   1 H      0.925     0.032     2.554     2.499
  73   1 H      0.925     0.040     2.447     2.446
  74   1 H      0.925     0.063     2.160     2.298
  75   1 H      0.925     0.038     2.476     2.461
  76   1 H      0.925     0.062     2.175     2.306
  77   7 N      2.635    -0.388    30.054     8.142
  78   6 C      3.786     0.061    19.568     6.301
  79   6 C      2.767     0.208    23.585     7.953
  80   8 O      0.856    -0.390    21.474     6.213
  81   6 C      3.801    -0.088    22.169     6.704
  82   6 C      2.686     0.371    20.709     7.447
  83   8 O      0.856    -0.631    26.891     6.953
  84   8 O      0.856    -0.655    27.520     7.033
  85   1 H      0.860     0.166     1.296     1.783
  86   1 H      0.923     0.028     2.620     2.531
  87   1 H      0.924     0.035     2.522     2.483
  88   1 H      0.925     0.017     2.778     2.606
  89   7 N      2.636    -0.393    30.184     8.160
  90   6 C      3.788     0.022    20.209     6.403
  91   6 C      2.759     0.263    22.570     7.780
  92   8 O      0.858    -0.487    23.497     6.499
  93   6 C      3.824    -0.072    21.849     6.652
  94   6 C      3.795    -0.012    20.789     6.493
  95  16 S      1.958    -0.238   151.271    20.701
  96   6 C      3.744    -0.059    21.702     6.646
  97   1 H      0.860     0.168     1.286     1.776
  98   1 H      0.923     0.055     2.260     2.351
  99   1 H      0.924     0.065     2.140     2.288
 100   1 H      0.924     0.054     2.265     2.354
 101   1 H      0.925     0.053     2.285     2.364
 102   1 H      0.925     0.054     2.272     2.357
 103   1 H      0.925     0.059     2.207     2.323
 104   1 H      0.925     0.060     2.204     2.322
 105   1 H      0.925     0.061     2.182     2.310
 106   7 N      2.688    -0.162    24.501     7.352
 107   6 C      3.751    -0.039    21.340     6.588
 108   6 C      2.754     0.279    22.271     7.728
 109   8 O      0.858    -0.485    23.459     6.494
 110   1 H      0.860     0.229     0.971     1.543
 111   1 H      0.924     0.089     1.885     2.147
 112   1 H      0.925     0.099     1.793     2.094
 113   7 N      2.692    -0.178    24.863     7.406
 114   6 C      3.797     0.014    20.347     6.423
 115   6 C      2.757     0.275    22.358     7.743
 116   8 O      0.858    -0.488    23.521     6.502
 117   6 C      3.809    -0.086    22.129     6.696
 118   6 C      3.849    -0.010    20.724     6.475
 119   6 C      3.756    -0.120    22.863     6.818
 120   6 C      3.757    -0.119    22.841     6.814
 121   1 H      0.860     0.226     0.984     1.554
 122   1 H      0.923     0.082     1.961     2.190
 123   1 H      0.924     0.077     2.010     2.217
 124   1 H      0.924     0.059     2.208     2.324
 125   1 H      0.924     0.033     2.547     2.496
 126   1 H      0.925     0.044     2.399     2.422
 127   1 H      0.925     0.038     2.475     2.460
 128   1 H      0.925     0.051     2.302     2.373
 129   1 H      0.925     0.045     2.386     2.416
 130   1 H      0.925     0.050     2.315     2.379
 131   1 H      0.925     0.040     2.453     2.449
 132   7 N      2.691    -0.172    24.725     7.385
 133   6 C      3.798     0.019    20.250     6.407
 134   6 C      2.756     0.279    22.287     7.731
 135   8 O      0.858    -0.510    24.006     6.569
 136   6 C      3.805    -0.072    21.876     6.658
 137   6 C      3.053    -0.036    28.835     8.807
 138   6 C      3.038    -0.011    28.263     8.720
 139   6 C      3.116    -0.021    28.358     8.723
 140   7 N      2.776    -0.111    23.428     7.189
 141   6 C      3.091     0.044    26.916     8.504
 142   6 C      2.912    -0.041    29.008     8.832
 143   6 C      2.909    -0.057    29.421     8.894
 144   6 C      2.920    -0.045    29.128     8.850
 145   6 C      2.924    -0.040    29.005     8.832
 146   1 H      0.860     0.212     1.049     1.604
 147   1 H      0.924     0.077     2.012     2.218
 148   1 H      0.924     0.072     2.060     2.244
 149   1 H      0.924     0.062     2.172     2.304
 150   1 H      0.926     0.047     2.361     2.403
 151   1 H      0.860     0.197     1.123     1.660
 152   1 H      0.926     0.031     2.572     2.508
 153   1 H      0.926     0.028     2.611     2.527
 154   1 H      0.926     0.024     2.677     2.558
 155   1 H      0.926     0.021     2.714     2.576
 156   7 N      2.692    -0.188    25.072     7.437
 157   6 C      3.796     0.028    20.110     6.386
 158   6 C      2.762     0.279    22.286     7.731
 159   8 O      0.859    -0.513    24.076     6.579
 160   6 C      3.757    -0.130    23.056     6.846
 161   1 H      0.860     0.246     0.899     1.485
 162   1 H      0.923     0.061     2.185     2.312
 163   1 H      0.925     0.063     2.164     2.300
 164   1 H      0.925     0.075     2.027     2.226
 165   1 H      0.925     0.081     1.964     2.192
 166   7 N      2.691    -0.182    24.945     7.418
 167   6 C      3.805     0.031    20.056     6.375
 168   6 C      2.760     0.287    22.133     7.704
 169   8 O      0.859    -0.505    23.896     6.554
 170   6 C      3.812    -0.084    22.098     6.691
 171   6 C      2.973     0.010    27.780     8.646
 172   6 C      2.925    -0.039    28.961     8.825
 173   6 C      2.925    -0.041    29.027     8.835
 174   6 C      2.918    -0.036    28.885     8.813
 175   6 C      2.919    -0.035    28.866     8.810
 176   6 C      2.920    -0.041    29.028     8.835
 177   1 H      0.860     0.245     0.904     1.490
 178   1 H      0.923     0.062     2.180     2.309
 179   1 H      0.924     0.074     2.042     2.235
 180   1 H      0.924     0.073     2.056     2.242
 181   1 H      0.926     0.030     2.591     2.517
 182   1 H      0.926     0.045     2.390     2.417
 183   1 H      0.926     0.036     2.507     2.476
 184   1 H      0.926     0.049     2.335     2.390
 185   1 H      0.926     0.040     2.447     2.446
 186   7 N      2.690    -0.189    25.103     7.441
 187   6 C      3.803     0.030    20.076     6.379
 188   6 C      2.759     0.290    22.082     7.695
 189   8 O      0.858    -0.503    23.840     6.546
 190   6 C      3.853    -0.025    20.982     6.515
 191   6 C      3.804    -0.065    21.743     6.638
 192   6 C      3.756    -0.113    22.709     6.795
 193   6 C      3.751    -0.110    22.661     6.789
 194   1 H      0.860     0.228     0.975     1.547
 195   1 H      0.923     0.060     2.202     2.321
 196   1 H      0.924     0.052     2.296     2.370
 197   1 H      0.924     0.041     2.430     2.438
 198   1 H      0.925     0.052     2.295     2.369
 199   1 H      0.925     0.065     2.138     2.287
 200   1 H      0.925     0.017     2.782     2.608
 201   1 H      0.925     0.047     2.355     2.400
 202   1 H      0.925     0.053     2.281     2.362
 203   1 H      0.925     0.036     2.505     2.475
 204   1 H      0.925     0.046     2.375     2.410
 205   7 N      2.688    -0.192    25.166     7.451
 206   6 C      3.798     0.022    20.204     6.400
 207   6 C      2.757     0.288    22.116     7.701
 208   8 O      0.858    -0.509    23.975     6.565
 209   6 C      3.727     0.127    18.613     6.160
 210   8 O      1.653    -0.493    22.733     6.436
 211   6 C      3.752    -0.129    23.043     6.846
 212   1 H      0.860     0.224     0.990     1.559
 213   1 H      0.923     0.043     2.410     2.428
 214   1 H      0.923     0.016     2.793     2.614
 215   1 H      0.802     0.334     0.627     1.244
 216   1 H      0.925     0.049     2.328     2.386
 217   1 H      0.925     0.046     2.372     2.409
 218   1 H      0.925     0.074     2.041     2.234
 219   7 N      2.690    -0.170    24.689     7.380
 220   6 C      3.793     0.019    20.258     6.410
 221   6 C      2.756     0.267    22.500     7.768
 222   8 O      0.858    -0.474    23.226     6.461
 223   6 C      3.757    -0.124    22.933     6.828
 224   1 H      0.860     0.206     1.077     1.626
 225   1 H      0.924     0.081     1.966     2.193
 226   1 H      0.925     0.089     1.884     2.146
 227   1 H      0.925     0.058     2.218     2.329
 228   1 H      0.925     0.055     2.253     2.347
 229   7 N      2.685    -0.148    24.211     7.308
 230   6 C      3.750    -0.033    21.220     6.570
 231   6 C      2.749     0.278    22.294     7.731
 232   8 O      0.858    -0.477    23.290     6.470
 233   1 H      0.860     0.199     1.113     1.652
 234   1 H      0.924     0.111     1.686     2.031
 235   1 H      0.924     0.074     2.047     2.237
 236   7 N      2.689    -0.161    24.488     7.350
 237   6 C      3.743    -0.048    21.507     6.616
 238   6 C      2.752     0.274    22.371     7.745
 239   8 O      0.858    -0.478    23.313     6.474
 240   1 H      0.860     0.193     1.141     1.673
 241   1 H      0.924     0.108     1.711     2.046
 242   1 H      0.924     0.106     1.729     2.056
 243   7 N      2.692    -0.175    24.798     7.396
 244   6 C      3.789     0.012    20.393     6.432
 245   6 C      2.765     0.198    23.788     7.987
 246   8 O      0.856    -0.359    20.884     6.127
 247   6 C      3.676     0.065    19.707     6.360
 248   8 O      1.655    -0.471    22.287     6.373
 249   1 H      0.860     0.223     0.995     1.563
 250   1 H      0.923     0.115     1.656     2.012
 251   1 H      0.924     0.076     2.016     2.221
 252   1 H      0.924     0.053     2.285     2.364
 253   1 H      0.805     0.344     0.603     1.220
 254   7 N      2.636    -0.393    30.176     8.158
 255   6 C      3.780     0.026    20.165     6.397
 256   6 C      2.764     0.198    23.778     7.986
 257   8 O      0.856    -0.375    21.179     6.170
 258   6 C      3.679     0.070    19.611     6.343
 259   8 O      1.656    -0.465    22.152     6.354
 260   1 H      0.860     0.184     1.192     1.711
 261   1 H      0.924     0.062     2.174     2.306
 262   1 H      0.924     0.064     2.155     2.296
 263   1 H      0.924     0.026     2.649     2.545
 264   1 H      0.805     0.343     0.605     1.221
 265   1 H      0.862     0.177     1.231     1.738
 266   1 H      0.930     0.082     1.954     2.186
 267   1 H      0.862     0.180     1.214     1.726
 268   1 H      0.930     0.083     1.948     2.182
 269   1 H      0.862     0.180     1.214     1.726
 270   1 H      0.930     0.074     2.036     2.231
 271   1 H      0.862     0.188     1.168     1.693
 272   1 H      0.930     0.074     2.042     2.235
 273   1 H      0.862     0.182     1.202     1.717
 274   1 H      0.930     0.091     1.871     2.139
 275   1 H      0.862     0.191     1.151     1.680
 276   1 H      0.930     0.079     1.984     2.203

 Mol. C6AA /au·bohr⁶  :     729569.092396
 Mol. C8AA /au·bohr⁸  :   16530260.491894
 Mol. α(0) /au        :       1291.619292


Wiberg/Mayer (AO) data.
largest (>0.10) Wiberg bond orders for each atom
          total WBO             WBO to atom ...
     1  N   2.997        C    2 1.014    H  265 0.958    H   12 0.949
     2  C   3.986        N    1 1.014    C    3 0.974    C    5 0.962    H   13 0.959
     3  C   3.886        O    4 1.891    C    2 0.974    H  266 0.952
     4  O   2.026        C    3 1.891
     5  C   3.989        C    6 1.002    H   15 0.972    H   14 0.971    C    2 0.962
     6  C   3.991        C    7 1.006    C    5 1.002    H   16 0.975    H   17 0.972
     7  C   3.951        C    6 1.006    N    8 0.979    H   18 0.960    H   19 0.958
     8  N   3.467        C    9 1.315    C    7 0.979    H   20 0.920    N   10 0.101    N   11 0.100
     9  C   3.977        N   10 1.323    N    8 1.315    N   11 1.310
    10  N   3.398        C    9 1.323    H   22 0.917    H   21 0.915    N    8 0.101    N   11 0.101
    11  N   3.387        C    9 1.310    H   23 0.924    H   24 0.915    N   10 0.101    N    8 0.100
    12  H   0.968        N    1 0.949
    13  H   0.998        C    2 0.959
    14  H   0.994        C    5 0.971
    15  H   0.997        C    5 0.972
    16  H   0.998        C    6 0.975
    17  H   0.995        C    6 0.972
    18  H   0.990        C    7 0.960
    19  H   0.994        C    7 0.958
    20  H   0.952        N    8 0.920
    21  H   0.938        N   10 0.915
    22  H   0.936        N   10 0.917
    23  H   0.943        N   11 0.924
    24  H   0.935        N   11 0.915
    25  N   2.998        C   26 1.014    H  267 0.956    H   36 0.951
    26  C   3.985        N   25 1.014    C   27 0.976    C   29 0.956    H   37 0.954
    27  C   3.884        O   28 1.873    C   26 0.976    H  268 0.953
    28  O   2.054        C   27 1.873
    29  C   3.991        C   30 1.004    H   38 0.970    H   39 0.956    C   26 0.956
    30  C   3.988        C   32 1.412    C   31 1.406    C   29 1.004    C   35 0.110
    31  C   3.992        C   33 1.446    C   30 1.406    H   40 0.966    C   34 0.112
    32  C   3.989        C   34 1.442    C   30 1.412    H   41 0.966    C   33 0.111
    33  C   3.992        C   31 1.446    C   35 1.436    H   42 0.971    C   32 0.111
    34  C   3.990        C   32 1.442    C   35 1.441    H   43 0.969    C   31 0.112
    35  C   3.991        C   34 1.441    C   33 1.436    H   44 0.971    C   30 0.110
    36  H   0.971        N   25 0.951
    37  H   0.997        C   26 0.954
    38  H   0.996        C   29 0.970
    39  H   0.997        C   29 0.956
    40  H   0.999        C   31 0.966
    41  H   0.998        C   32 0.966
    42  H   0.998        C   33 0.971
    43  H   0.997        C   34 0.969
    44  H   0.998        C   35 0.971
    45  N   2.992        C   46 1.012    H  269 0.958    H   52 0.948
    46  C   3.982        N   45 1.012    C   49 0.969    H   53 0.964    C   47 0.931
    47  C   3.936        O   48 1.620    N   61 1.306    C   46 0.931
    48  O   1.940        C   47 1.620    N   61 0.194
    49  C   3.992        C   50 1.008    C   51 1.008    C   46 0.969    H   54 0.958
    50  C   3.995        C   49 1.008    H   57 0.986    H   56 0.984    H   55 0.983
    51  C   3.995        C   49 1.008    H   59 0.986    H   58 0.984    H   60 0.980
    52  H   0.973        N   45 0.948
    53  H   0.999        C   46 0.964
    54  H   0.997        C   49 0.958
    55  H   0.998        C   50 0.983
    56  H   0.999        C   50 0.984
    57  H   0.999        C   50 0.986
    58  H   0.997        C   51 0.984
    59  H   0.998        C   51 0.986
    60  H   0.998        C   51 0.980
    61  N   3.464        C   47 1.306    C   62 0.984    H   68 0.882    O   48 0.194
    62  C   3.969        N   61 0.984    C   63 0.973    C   65 0.950    H   69 0.950
    63  C   3.897        O   64 1.891    C   62 0.973    H  270 0.953
    64  O   2.034        C   63 1.891
    65  C   3.984        C   66 1.009    C   67 1.006    H   70 0.965    C   62 0.950
    66  C   3.992        C   65 1.009    H   73 0.986    H   72 0.984    H   71 0.979
    67  C   3.992        C   65 1.006    H   75 0.985    H   74 0.979    H   76 0.972
    68  H   0.940        N   61 0.882
    69  H   0.997        C   62 0.950
    70  H   0.996        C   65 0.965
    71  H   0.995        C   66 0.979
    72  H   0.999        C   66 0.984
    73  H   0.998        C   66 0.986
    74  H   0.995        C   67 0.979
    75  H   0.999        C   67 0.985
    76  H   0.996        C   67 0.972
    77  N   2.998        C   78 1.006    H  271 0.954    H   85 0.949
    78  C   3.987        N   77 1.006    C   79 0.976    C   81 0.963    H   86 0.962
    79  C   3.886        O   80 1.887    C   78 0.976    H  272 0.954
    80  O   2.020        C   79 1.887
    81  C   3.986        H   88 0.980    H   87 0.968    C   78 0.963    C   82 0.906
    82  C   3.935        O   83 1.510    O   84 1.498    C   81 0.906
    83  O   1.802        C   82 1.510    O   84 0.217
    84  O   1.788        C   82 1.498    O   83 0.217
    85  H   0.972        N   77 0.949
    86  H   0.999        C   78 0.962
    87  H   0.999        C   81 0.968
    88  H   1.000        C   81 0.980
    89  N   2.991        C   90 1.014    H  273 0.956    H   97 0.951
    90  C   3.985        N   89 1.014    C   93 0.977    H   98 0.959    C   91 0.939
    91  C   3.942        O   92 1.615    N  106 1.305    C   90 0.939
    92  O   1.977        C   91 1.615    N  106 0.195
    93  C   3.992        C   94 1.014    C   90 0.977    H  100 0.965    H   99 0.964
    94  C   3.979        C   93 1.014    S   95 0.988    H  101 0.974    H  102 0.969
    95  S   2.085        C   96 1.009    C   94 0.988
    96  C   3.977        S   95 1.009    H  104 0.984    H  105 0.982    H  103 0.981
    97  H   0.972        N   89 0.951
    98  H   0.997        C   90 0.959
    99  H   0.996        C   93 0.964
   100  H   0.997        C   93 0.965
   101  H   0.997        C   94 0.974
   102  H   0.997        C   94 0.969
   103  H   0.996        C   96 0.981
   104  H   0.996        C   96 0.984
   105  H   0.996        C   96 0.982
   106  N   3.475        C   91 1.305    C  107 0.994    H  110 0.918    O   92 0.195
   107  C   3.965        N  106 0.994    H  112 0.953    C  108 0.951    H  111 0.951
   108  C   3.948        O  109 1.611    N  113 1.309    C  107 0.951
   109  O   1.979        C  108 1.611    N  113 0.192
   110  H   0.947        N  106 0.918
   111  H   0.992        C  107 0.951
   112  H   0.990        C  107 0.953
   113  N   3.470        C  108 1.309    C  114 0.977    H  121 0.913    O  109 0.192
   114  C   3.961        C  117 0.978    N  113 0.977    H  122 0.945    C  115 0.936
   115  C   3.945        O  116 1.613    N  132 1.309    C  114 0.936
   116  O   1.973        C  115 1.613    N  132 0.193
   117  C   3.983        C  118 0.993    C  114 0.978    H  124 0.972    H  123 0.963
   118  C   3.994        C  119 1.010    C  120 1.008    C  117 0.993    H  125 0.969
   119  C   3.994        C  118 1.010    H  126 0.986    H  128 0.985    H  127 0.983
   120  C   3.994        C  118 1.008    H  131 0.986    H  130 0.986    H  129 0.985
   121  H   0.949        N  113 0.913
   122  H   0.993        C  114 0.945
   123  H   0.994        C  117 0.963
   124  H   0.996        C  117 0.972
   125  H   0.999        C  118 0.969
   126  H   0.998        C  119 0.986
   127  H   0.999        C  119 0.983
   128  H   0.997        C  119 0.985
   129  H   0.998        C  120 0.985
   130  H   0.997        C  120 0.986
   131  H   0.998        C  120 0.986
   132  N   3.474        C  115 1.309    C  133 0.976    H  146 0.915    O  116 0.193
   133  C   3.961        N  132 0.976    C  136 0.971    H  147 0.948    C  134 0.936
   134  C   3.945        O  135 1.599    N  156 1.326    C  133 0.936
   135  O   1.953        C  134 1.599    N  156 0.196
   136  C   3.986        C  137 1.014    H  149 0.971    C  133 0.971    H  148 0.952
   137  C   3.972        C  138 1.573    C  139 1.208    C  136 1.014
   138  C   3.951        C  137 1.573    N  140 1.207    H  150 0.966
   139  C   3.984        C  142 1.329    C  141 1.245    C  137 1.208
   140  N   3.551        C  138 1.207    C  141 1.187    H  151 0.934
   141  C   3.963        C  143 1.335    C  139 1.245    N  140 1.187
   142  C   3.992        C  144 1.507    C  139 1.329    H  152 0.966    C  143 0.114
   143  C   3.989        C  145 1.497    C  141 1.335    H  153 0.968    C  142 0.114
   144  C   3.991        C  142 1.507    C  145 1.369    H  154 0.969
   145  C   3.991        C  143 1.497    C  144 1.369    H  155 0.972
   146  H   0.955        N  132 0.915
   147  H   0.994        C  133 0.948
   148  H   0.994        C  136 0.952
   149  H   0.996        C  136 0.971
   150  H   0.997        C  138 0.966
   151  H   0.961        N  140 0.934
   152  H   0.999        C  142 0.966
   153  H   0.999        C  143 0.968
   154  H   0.999        C  144 0.969
   155  H   0.999        C  145 0.972
   156  N   3.474        C  134 1.326    C  157 0.978    H  161 0.875    O  135 0.196
   157  C   3.968        C  160 0.995    N  156 0.978    H  162 0.953    C  158 0.938
   158  C   3.942        O  159 1.573    N  166 1.345    C  157 0.938
   159  O   1.972        C  158 1.573    N  166 0.193
   160  C   3.982        C  157 0.995    H  163 0.979    H  164 0.976    H  165 0.975
   161  H   0.939        N  156 0.875
   162  H   0.996        C  157 0.953
   163  H   0.995        C  160 0.979
   164  H   0.994        C  160 0.976
   165  H   0.993        C  160 0.975
   166  N   3.484        C  158 1.345    C  167 0.977    H  177 0.868    O  159 0.193
   167  C   3.965        N  166 0.977    C  170 0.966    H  178 0.953    C  168 0.935
   168  C   3.945        O  169 1.619    N  186 1.307    C  167 0.935
   169  O   1.947        C  168 1.619    N  186 0.193
   170  C   3.984        C  171 1.006    C  167 0.966    H  179 0.965    H  180 0.961
   171  C   3.987        C  172 1.415    C  173 1.413    C  170 1.006    C  176 0.109
   172  C   3.991        C  174 1.442    C  171 1.415    H  181 0.969    C  175 0.112
   173  C   3.990        C  175 1.447    C  171 1.413    H  182 0.968    C  174 0.111
   174  C   3.992        C  172 1.442    C  176 1.438    H  183 0.968    C  173 0.111
   175  C   3.991        C  173 1.447    C  176 1.436    H  184 0.970    C  172 0.112
   176  C   3.991        C  174 1.438    C  175 1.436    H  185 0.970    C  171 0.109
   177  H   0.940        N  166 0.868
   178  H   0.996        C  167 0.953
   179  H   0.994        C  170 0.965
   180  H   0.994        C  170 0.961
   181  H   0.999        C  172 0.969
   182  H   0.998        C  173 0.968
   183  H   0.998        C  174 0.968
   184  H   0.997        C  175 0.970
   185  H   0.998        C  176 0.970
   186  N   3.464        C  168 1.307    C  187 0.980    H  194 0.889    O  169 0.193
   187  C   3.965        N  186 0.980    C  190 0.966    H  195 0.953    C  188 0.936
   188  C   3.938        O  189 1.618    N  205 1.293    C  187 0.936
   189  O   1.952        C  188 1.618    N  205 0.187
   190  C   3.985        C  192 1.008    C  191 0.993    C  187 0.966    H  196 0.959
   191  C   3.993        C  193 1.018    C  190 0.993    H  197 0.976    H  198 0.968
   192  C   3.993        C  190 1.008    H  201 0.985    H  200 0.983    H  199 0.981
   193  C   3.994        C  191 1.018    H  202 0.986    H  204 0.985    H  203 0.985
   194  H   0.948        N  186 0.889
   195  H   0.996        C  187 0.953
   196  H   0.997        C  190 0.959
   197  H   0.998        C  191 0.976
   198  H   0.997        C  191 0.968
   199  H   0.995        C  192 0.981
   200  H   1.000        C  192 0.983
   201  H   0.998        C  192 0.985
   202  H   0.997        C  193 0.986
   203  H   0.999        C  193 0.985
   204  H   0.998        C  193 0.985
   205  N   3.457        C  188 1.293    C  206 0.987    H  212 0.895    O  189 0.187
   206  C   3.970        N  205 0.987    H  213 0.952    C  209 0.949    C  207 0.940
   207  C   3.952        O  208 1.622    N  219 1.306    C  206 0.940
   208  O   1.936        C  207 1.622    N  219 0.194
   209  C   3.961        O  210 1.010    C  211 0.992    H  214 0.963    C  206 0.949
   210  O   1.934        C  209 1.010    H  215 0.815
   211  C   3.991        C  209 0.992    H  217 0.986    H  216 0.984    H  218 0.970
   212  H   0.950        N  205 0.895
   213  H   0.998        C  206 0.952
   214  H   0.999        C  209 0.963
   215  H   0.888        O  210 0.815
   216  H   0.997        C  211 0.984
   217  H   0.998        C  211 0.986
   218  H   0.994        C  211 0.970
   219  N   3.480        C  207 1.306    C  220 0.979    H  224 0.916    O  208 0.194
   220  C   3.955        C  223 0.991    N  219 0.979    H  225 0.940    C  221 0.934
   221  C   3.954        O  222 1.622    N  229 1.321    C  220 0.934
   222  O   1.945        C  221 1.622    N  229 0.200
   223  C   3.985        C  220 0.991    H  227 0.985    H  228 0.984    H  226 0.973
   224  H   0.958        N  219 0.916
   225  H   0.993        C  220 0.940
   226  H   0.991        C  223 0.973
   227  H   0.996        C  223 0.985
   228  H   0.997        C  223 0.984
   229  N   3.497        C  221 1.321    C  230 0.998    H  233 0.908    O  222 0.200
   230  C   3.964        N  229 0.998    C  231 0.956    H  235 0.951    H  234 0.939
   231  C   3.953        O  232 1.655    N  236 1.278    C  230 0.956
   232  O   1.971        C  231 1.655    N  236 0.198
   233  H   0.960        N  229 0.908
   234  H   0.987        C  230 0.939
   235  H   0.995        C  230 0.951
   236  N   3.459        C  231 1.278    C  237 0.996    H  240 0.926    O  232 0.198
   237  C   3.956        N  236 0.996    C  238 0.959    H  242 0.939    H  241 0.939
   238  C   3.950        O  239 1.657    N  243 1.269    C  237 0.959
   239  O   1.977        C  238 1.657    N  243 0.193
   240  H   0.963        N  236 0.926
   241  H   0.988        C  237 0.939
   242  H   0.989        C  237 0.939
   243  N   3.444        C  238 1.269    C  244 0.991    H  249 0.912    O  239 0.193
   244  C   3.970        C  245 0.998    N  243 0.991    C  247 0.949    H  250 0.910
   245  C   3.906        O  246 1.859    C  244 0.998    H  274 0.952
   246  O   2.056        C  245 1.859
   247  C   3.955        O  248 1.014    H  252 0.968    H  251 0.967    C  244 0.949
   248  O   1.946        C  247 1.014    H  253 0.869
   249  H   0.950        N  243 0.912
   250  H   0.985        C  244 0.910
   251  H   0.994        C  247 0.967
   252  H   0.997        C  247 0.968
   253  H   0.882        O  248 0.869
   254  N   2.998        C  255 1.019    H  275 0.950    H  260 0.916
   255  C   3.987        N  254 1.019    C  256 0.976    H  261 0.960    C  258 0.944
   256  C   3.890        O  257 1.900    C  255 0.976    H  276 0.953
   257  O   2.034        C  256 1.900
   258  C   3.956        O  259 1.007    H  263 0.970    H  262 0.966    C  255 0.944
   259  O   1.971        C  258 1.007    H  264 0.867
   260  H   0.966        N  254 0.916
   261  H   0.995        C  255 0.960
   262  H   0.996        C  258 0.966
   263  H   0.999        C  258 0.970
   264  H   0.882        O  259 0.867
   265  H   0.969        N    1 0.958
   266  H   0.993        C    3 0.952
   267  H   0.968        N   25 0.956
   268  H   0.993        C   27 0.953
   269  H   0.968        N   45 0.958
   270  H   0.994        C   63 0.953
   271  H   0.965        N   77 0.954
   272  H   0.995        C   79 0.954
   273  H   0.967        N   89 0.956
   274  H   0.991        C  245 0.952
   275  H   0.963        N  254 0.950
   276  H   0.994        C  256 0.953
 
molecular dipole:
                 x           y           z       tot (Debye)
 q only:       16.180       9.376      12.890
   full:       15.422      11.086      14.124      60.162
molecular quadrupole (traceless):
                xx          xy          yy          xz          yz          zz
 q only:      265.700    1485.153   -1026.492    2555.796    1809.193     760.791
  q+dip:       17.818    1609.571    -936.221    2563.498    2075.140     918.404
   full:       14.715    1609.890    -935.667    2564.740    2071.987     920.952


           -------------------------------------------------
          | TOTAL ENERGY             -422.030441175702 Eh   |
          | GRADIENT NORM               0.541603996658 Eh/α |
          | HOMO-LUMO GAP               1.477087115185 eV   |
           -------------------------------------------------

------------------------------------------------------------------------
 * finished run on 2019/05/31 at 07:36:40.142     
------------------------------------------------------------------------
 total:
 * wall-time:     0 d,  0 h,  0 min,  7.167 sec
 *  cpu-time:     0 d,  0 h,  0 min,  3.173 sec
 * ratio c/w:     0.443 speedup
 SCF:
 * wall-time:     0 d,  0 h,  0 min,  6.534 sec
 *  cpu-time:     0 d,  0 h,  0 min,  2.957 sec
 * ratio c/w:     0.453 speedup

