      -----------------------------------------------------------      
     |                   =====================                   |     
     |                           x T B                           |     
     |                   =====================                   |     
     |                         S. Grimme                         |     
     |          Mulliken Center for Theoretical Chemistry        |     
     |                    University of Bonn                     |     
     |                Version 6.1 RC1 (SAW190329)                |     
      -----------------------------------------------------------      

   This program is distributed in the hope that it will be useful,
   but WITHOUT ANY WARRANTY; without even the implied warranty of
   MERCHANTABILITY or FITNESS FOR A PARTICULAR PURPOSE.
   
   FOR NON-COMMERCIAL, ACADEMIA USE ONLY.
   
   Cite this work as:
   S. Grimme, C. Bannwarth, P. Shushkov, J. Comput. Theory Chem., 2017,
   13, 1989-2009. DOI: 10.1021/acs.jctc.7b00118
   C. Bannwarth, S. Ehlert and S. Grimme., J. Comput. Theory Chem., 2019,
   just accepted. DOI: 10.1021/acs.jctc.8b01176
   
   for sTDA-xTB:
   S. Grimme and C. Bannwarth, J. Chem. Phys., 2016, 145, 054103.
   DOI: 10.1063/1.4959605
   
   in the mass-spec context:
   V. Asgeirsson, C. Bauer and S. Grimme, Chem. Sci., 2017, 8, 4879.
   DOI: 10.1039/c7sc00601b
   
   for metadynamics refer to:
   S. Grimme, ChemRxiv, Preprint. DOI: 10.26434/chemrxiv.7660532.v1
   
   with help from (in alphabetical order)
   C. Bannwarth, F. Bohle, G. Brandenburg, E. Caldeweyher, M. Checinski,
   S. Dohm, S. Ehlert, S. Ehrlich, F. März, H. Neugebauer, J. Pisarek,
   P. Pracht, P. Shushkov, and S. Spicher.
   
 * started run on 2019/05/31 at 06:33:44.709     

           -------------------------------------------------
          |                Calculation Setup                |
           -------------------------------------------------

          program call               : /home/lum/qr/xtb-190329/bin/xtb xtb_tmp.xyz --chrg 2 --grad --gfn 2 --etemp 500 --acc 0.1 --gbsa h2o --parallel 2
          hostname                   : cu39
          coordinate file            : xtb_tmp.xyz
          omp threads                :                     2
          number of atoms            :                   372
          number of electrons        :                  1002
          charge                     :                     2
          spin                       :                   0.0
          first test random number   :      0.69487585409751


molecular fragmentation (1/2 indicates fragments):
111111111111111111111111111111111112222222222222222222222222222222222222
222222222222222222222222222222222222222222222222222222222222222222222222
222222222222222222222222222222222222222222222222222222222222222222222222
222222222222222222222222222222222222222222222222222222222222222222222222
222222222222222222222222222222222222222222222222222222222222222222221122
222222222222
# atoms in fragment 1/2:    37   335
 fragment masses (1/2) :      246.29     2277.66
CMA distance (Bohr)    :  24.513
constraining FC (au)   :  0.0500

########################################################################
# WARNING! Please study the warnings concerning your input carefully
#  - XTBPATH is not set, using XTBHOME instead
#  - Process number higher than OMP_NUM_THREADS, I hope you know what you are doing.
########################################################################

           ------------------------------------------------- 
          |                 G F N 2 - x T B                 |
          | Geometry, Frequencies, Noncovalent interactions |
          |            JCTC 2018 parametrisation            |
           ------------------------------------------------- 
 
             k(s)              :                1.8500
             k(p)              :                2.2300
             k(d)              :                2.2300
             k(f)              :                2.0000
             kEN (H0ij)        :               -2.0000
             D4 a1             :                0.5200
             D4 a2             :                5.0000
             D4 s6             :                1.0000
             D4 s8             :                2.7000
             D4 s9             :                5.0000
             alphaj            :                2.0000

  Z AO/shell   Hii/eV     exponent
  1     Wed Apr 25 08:07:45 CEST 2018   EN: 2.200 GM2: 0.406  GM3: 0.0800  RAES: 1.40
     1s    -10.707211    1.230000
  6     Wed Apr 25 08:07:45 CEST 2018   EN: 2.550 GM2: 0.538  GM3: 0.1500  RAES: 3.00
     2s    -13.970922    2.096432
     2p    -10.063292    1.800000
  7     Wed Apr 25 08:07:45 CEST 2018   EN: 3.040 GM2: 0.461  GM3:-0.0640  RAES: 1.90
     2s    -16.686243    2.339881
     2p    -12.523956    2.014332
  8     Wed Apr 25 08:07:45 CEST 2018   EN: 3.440 GM2: 0.452  GM3:-0.0517  RAES: 1.80
     2s    -20.229985    2.439742
     2p    -15.503117    2.137023

 Solvent             : h2o
 Using internal parameter file: .param_gbsa2_h2o
 Gsolv ref. state (COSMO-RS): gsolv [1 M gas/solution]
 temperature (mdtemp)       :    298.150000000000     
 dielectric constant        :    80.2000000000000     
 rho                        :    1.00000000000000     
 mass                       :    18.0000000000000     
 surface tension            :    15.5689454083859     
 probe radius               :   0.975313790000000     
 vdW radii scaling          :    1.00000000000000     
 Gshift (Eh)                :   1.857443126794793E-003
 c1                         :    1.55243817000000     
 soset                      :   0.130326360000000     
 HB correction              :  T
 Number of grid points      :          230

            Z     q(EN)     CN     RAES       Cart. coordinates
     1  N   5.0   -0.67    3.00    1.93    68.38018    58.82011    91.29286
     2  C   4.0    0.07    3.98    3.59    65.80094    58.02425    91.71767
     3  C   4.0    0.27    3.01    3.02    65.84000    55.13204    92.02809
     4  O   6.0   -0.38    1.00    1.80    67.73688    53.92619    91.53684
     5  C   4.0   -0.16    3.99    3.59    64.14421    58.66324    89.41495
     6  C   4.0   -0.15    3.98    3.58    64.01605    61.50325    88.86677
     7  C   4.0   -0.03    3.99    3.60    61.89001    61.99557    86.95108
     8  N   5.0   -0.47    3.01    1.93    62.30102    64.26624    85.46538
     9  C   4.0    0.40    3.00    3.02    62.44900    64.38332    82.95624
    10  N   5.0   -0.61    3.01    1.93    62.26237    62.31526    81.53910
    11  N   5.0   -0.61    3.02    1.93    62.45264    66.63158    81.80102
    12  H   1.0    0.30    1.00    1.43    69.33008    57.72900    90.04313
    13  H   1.0    0.13    0.99    1.43    65.09048    58.97591    93.40923
    14  H   1.0    0.12    0.99    1.43    64.92311    57.69003    87.76694
    15  H   1.0    0.10    0.99    1.43    62.23566    57.96490    89.75972
    16  H   1.0    0.12    0.99    1.43    63.64774    62.52276    90.62057
    17  H   1.0    0.13    0.99    1.43    65.81532    62.14670    88.09083
    18  H   1.0    0.12    0.99    1.43    61.74540    60.38857    85.67084
    19  H   1.0    0.12    0.99    1.43    60.10308    62.19386    87.97250
    20  H   1.0    0.25    1.00    1.43    62.34856    65.90526    86.44484
    21  H   1.0    0.27    1.00    1.43    62.99250    60.68923    82.21198
    22  H   1.0    0.33    1.00    1.43    62.56020    62.52479    79.63128
    23  H   1.0    0.28    1.00    1.43    62.73668    68.22030    82.81128
    24  H   1.0    0.32    1.00    1.43    63.05155    66.66248    79.97936
    25  N   5.0   -0.50    3.00    1.93    63.66397    54.05905    92.81932
    26  C   4.0    0.08    3.98    3.59    63.18602    51.36307    92.44623
    27  C   4.0    0.09    3.00    3.02    60.44873    50.71256    93.17146
    28  O   6.0   -0.37    1.00    1.80    58.89939    50.12922    91.57278
    29  C   4.0    0.01    3.98    3.58    65.08528    49.67407    93.90077
    30  O   6.0   -0.44    1.99    1.82    64.39517    47.11098    93.84660
    31  H   1.0    0.24    1.00    1.43    62.11197    55.16505    92.95956
    32  H   1.0    0.14    0.99    1.43    63.35933    50.92601    90.42334
    33  H   1.0    0.15    0.99    1.43    66.97003    49.96171    93.10718
    34  H   1.0    0.15    0.99    1.43    65.13737    50.19309    95.89759
    35  H   1.0    0.28    0.99    1.43    64.75236    46.39733    92.20842
    36  N   5.0   -0.71    3.00    1.93    76.87001    57.66542    73.16609
    37  C   4.0    0.06    3.98    3.58    74.75246    56.78573    71.68449
    38  C   4.0    0.06    3.00    3.02    73.47736    58.91798    70.18694
    39  O   6.0   -0.39    1.00    1.80    71.18707    59.01314    69.91160
    40  C   4.0   -0.06    3.99    3.60    72.84562    55.30334    73.28168
    41  C   4.0    0.29    3.00    3.02    73.63329    52.58988    73.75521
    42  O   6.0   -0.44    1.00    1.80    72.41408    50.80544    72.93396
    43  N   5.0   -0.63    3.00    1.93    75.70907    52.26370    75.14792
    44  H   1.0    0.28    1.00    1.43    78.55883    56.95467    72.58685
    45  H   1.0    0.13    0.99    1.43    75.57180    55.52351    70.25864
    46  H   1.0    0.13    0.99    1.43    72.62120    56.24533    75.09906
    47  H   1.0    0.15    0.99    1.43    71.01925    55.31230    72.32961
    48  H   1.0    0.29    1.00    1.43    76.33700    50.49836    75.49572
    49  H   1.0    0.29    1.00    1.43    76.79292    53.71067    75.74489
    50  N   5.0   -0.68    3.00    1.93    43.62586    33.21131    84.08977
    51  C   4.0    0.07    3.98    3.58    44.59648    33.67730    81.57338
    52  C   4.0    0.08    3.00    3.02    43.94960    31.49788    79.79544
    53  O   6.0   -0.37    1.00    1.80    44.12353    29.28181    80.41934
    54  C   4.0   -0.15    3.98    3.59    47.50384    33.89165    81.64073
    55  C   4.0   -0.17    3.98    3.58    48.67426    34.18983    79.00492
    56  C   4.0   -0.16    3.98    3.58    51.15315    35.68555    79.02507
    57  C   4.0   -0.05    3.98    3.58    53.09080    34.69586    80.92574
    58  N   5.0   -0.72    3.98    2.81    54.91300    36.73784    81.57054
    59  H   1.0    0.30    1.00    1.43    43.83508    31.41475    84.73171
    60  H   1.0    0.13    0.99    1.43    43.76410    35.43929    80.88952
    61  H   1.0    0.11    0.99    1.43    47.96881    35.49942    82.84416
    62  H   1.0    0.13    0.99    1.43    48.20077    32.18077    82.55530
    63  H   1.0    0.11    0.99    1.43    48.98423    32.32683    78.18080
    64  H   1.0    0.11    0.99    1.43    47.35267    35.20311    77.78995
    65  H   1.0    0.09    0.99    1.43    51.94136    35.65871    77.12329
    66  H   1.0    0.12    0.99    1.43    50.72534    37.64140    79.49979
    67  H   1.0    0.12    0.99    1.43    52.14826    34.13286    82.66687
    68  H   1.0    0.11    0.99    1.43    54.11162    33.07566    80.16681
    69  H   1.0    0.26    1.00    1.43    56.08279    36.20113    83.02146
    70  H   1.0    0.25    1.00    1.43    56.00016    37.22456    80.03705
    71  H   1.0    0.31    0.99    1.43    53.90757    38.35286    82.19165
    72  N   5.0   -0.69    3.00    1.93    45.69750    29.66391    71.63153
    73  C   4.0    0.07    3.98    3.59    46.95692    29.91753    69.21603
    74  C   4.0    0.08    3.00    3.02    45.59119    28.20469    67.31905
    75  O   6.0   -0.36    1.00    1.80    44.88394    26.08124    67.90543
    76  C   4.0   -0.08    3.98    3.58    49.76289    29.08947    69.50750
    77  C   4.0   -0.17    3.98    3.59    51.28118    31.29297    70.62626
    78  C   4.0   -0.21    3.98    3.59    50.86135    28.13876    67.01411
    79  C   4.0   -0.23    3.98    3.58    53.82713    30.50048    71.72423
    80  H   1.0    0.30    1.00    1.43    45.39035    27.84897    72.17378
    81  H   1.0    0.12    0.99    1.43    46.85400    31.89281    68.61741
    82  H   1.0    0.13    0.99    1.43    49.78671    27.52811    70.86788
    83  H   1.0    0.11    0.99    1.43    51.56752    32.72365    69.16848
    84  H   1.0    0.10    0.99    1.43    50.15129    32.14654    72.12514
    85  H   1.0    0.11    0.99    1.43    52.85895    27.73870    67.24281
    86  H   1.0    0.14    0.99    1.43    49.91288    26.41665    66.42183
    87  H   1.0    0.11    0.99    1.43    50.63384    29.53544    65.52553
    88  H   1.0    0.10    0.99    1.43    54.74258    32.11674    72.60338
    89  H   1.0    0.11    0.99    1.43    53.57393    29.03040    73.13869
    90  H   1.0    0.11    0.99    1.43    55.07733    29.79559    70.25750
    91  N   5.0   -0.69    3.00    1.93    62.33596    36.18578    56.84244
    92  C   4.0    0.08    3.98    3.59    60.53736    37.60036    58.35540
    93  C   4.0    0.27    3.01    3.02    58.20778    35.93303    58.75140
    94  O   6.0   -0.40    1.00    1.80    57.65523    34.26002    57.24017
    95  C   4.0   -0.09    3.98    3.58    59.87776    40.11223    56.98552
    96  C   4.0   -0.20    3.98    3.59    58.61864    39.62401    54.43778
    97  C   4.0   -0.22    3.98    3.59    58.25920    41.85799    58.60675
    98  H   1.0    0.30    1.00    1.43    61.55534    34.90715    55.64870
    99  H   1.0    0.15    0.99    1.43    61.39525    38.07144    60.17707
   100  H   1.0    0.11    0.99    1.43    61.69884    41.04030    56.65104
   101  H   1.0    0.11    0.99    1.43    58.18381    41.41475    53.52934
   102  H   1.0    0.12    0.99    1.43    59.87468    38.55401    53.21229
   103  H   1.0    0.14    0.99    1.43    56.86979    38.57130    54.67595
   104  H   1.0    0.10    0.99    1.43    58.19443    43.72111    57.74277
   105  H   1.0    0.12    0.99    1.43    56.34333    41.13804    58.77986
   106  H   1.0    0.15    0.99    1.43    59.06053    42.05252    60.48335
   107  N   5.0   -0.49    3.01    1.93    56.85477    36.45551    60.81932
   108  C   4.0    0.07    3.99    3.61    54.53891    35.14291    61.46197
   109  C   4.0    0.25    3.01    3.02    52.67109    37.05019    62.55982
   110  O   6.0   -0.48    1.00    1.80    53.41568    38.75019    63.96504
   111  C   4.0   -0.20    3.98    3.59    55.01199    33.00511    63.35826
   112  H   1.0    0.27    1.00    1.43    57.47017    37.81769    62.01306
   113  H   1.0    0.14    0.99    1.43    53.77671    34.33870    59.72038
   114  H   1.0    0.10    0.99    1.43    53.22064    32.21489    63.97050
   115  H   1.0    0.13    0.99    1.43    56.10810    31.51624    62.46064
   116  H   1.0    0.11    0.99    1.43    56.03295    33.69706    65.00324
   117  N   5.0   -0.49    3.01    1.93    50.26851    36.73242    61.86005
   118  C   4.0    0.08    3.99    3.60    48.23145    38.38318    62.65202
   119  C   4.0    0.26    3.01    3.02    46.44598    36.94837    64.43948
   120  O   6.0   -0.41    1.00    1.80    46.11846    34.66194    64.24376
   121  C   4.0   -0.11    3.99    3.61    46.62865    39.30811    60.42097
   122  C   4.0   -0.02    3.02    3.02    47.88678    40.91692    58.42986
   123  C   4.0   -0.09    3.03    3.02    50.44167    41.47632    58.31939
   124  C   4.0   -0.10    3.04    3.02    46.32370    41.84329    56.52194
   125  C   4.0   -0.11    3.03    3.02    51.41627    42.92536    56.36517
   126  C   4.0   -0.06    3.03    3.02    47.27240    43.26090    54.55872
   127  C   4.0    0.10    3.03    3.02    49.84284    43.81791    54.46745
   128  O   6.0   -0.45    1.99    1.83    50.69623    45.24453    52.51792
   129  H   1.0    0.24    1.00    1.43    49.85698    35.28763    60.66752
   130  H   1.0    0.15    0.99    1.43    49.06777    39.98421    63.65581
   131  H   1.0    0.13    0.99    1.43    45.83782    37.64782    59.47541
   132  H   1.0    0.14    0.99    1.43    45.04253    40.38021    61.20452
   133  H   1.0    0.14    1.00    1.43    51.73398    40.78886    59.73569
   134  H   1.0    0.13    1.00    1.43    44.32693    41.43379    56.59219
   135  H   1.0    0.10    0.99    1.43    53.41500    43.34366    56.30703
   136  H   1.0    0.14    1.00    1.43    46.06367    43.92582    53.06354
   137  H   1.0    0.25    0.99    1.43    52.49921    45.50636    52.64356
   138  N   5.0   -0.50    3.00    1.93    45.27772    38.38485    66.15512
   139  C   4.0    0.02    3.99    3.61    43.60154    37.34693    68.05341
   140  C   4.0    0.25    3.00    3.02    42.29090    39.41639    69.56569
   141  O   6.0   -0.41    1.00    1.80    41.63878    41.40717    68.58218
   142  H   1.0    0.28    1.00    1.43    45.61051    40.26920    66.20608
   143  H   1.0    0.14    0.99    1.43    42.11251    36.23962    67.12714
   144  H   1.0    0.11    0.99    1.43    44.65420    36.09447    69.31886
   145  N   5.0   -0.49    3.01    1.93    41.87976    38.78191    71.98653
   146  C   4.0    0.08    3.99    3.60    40.64913    40.41945    73.79124
   147  C   4.0    0.26    3.01    3.02    41.81780    39.95057    76.38078
   148  O   6.0   -0.45    1.00    1.80    42.14456    37.82042    77.21103
   149  C   4.0   -0.14    3.98    3.59    37.76804    39.96341    73.85518
   150  C   4.0   -0.12    3.98    3.58    36.98792    37.17996    73.96371
   151  C   4.0   -0.04    3.99    3.60    34.09154    37.05605    73.93832
   152  N   5.0   -0.47    3.01    1.93    33.08630    34.50418    73.64942
   153  C   4.0    0.38    3.01    3.02    32.16976    33.12438    75.55820
   154  N   5.0   -0.62    3.02    1.93    30.73545    31.12151    75.08788
   155  N   5.0   -0.62    3.02    1.93    32.98999    33.52902    77.91213
   156  H   1.0    0.24    1.00    1.43    42.54231    37.10490    72.63327
   157  H   1.0    0.15    0.99    1.43    40.99395    42.36783    73.18355
   158  H   1.0    0.12    0.99    1.43    36.96066    41.00089    75.44567
   159  H   1.0    0.12    0.99    1.43    36.98869    40.77083    72.12864
   160  H   1.0    0.14    0.99    1.43    37.72717    36.22134    72.29563
   161  H   1.0    0.14    0.99    1.43    37.76234    36.29543    75.65498
   162  H   1.0    0.12    0.99    1.43    33.33337    37.92138    75.65287
   163  H   1.0    0.11    0.99    1.43    33.38085    38.18432    72.36397
   164  H   1.0    0.25    1.00    1.43    32.36897    34.09115    71.92458
   165  H   1.0    0.27    1.00    1.43    29.99401    30.81376    73.33602
   166  H   1.0    0.28    1.00    1.43    29.70922    30.37563    76.51810
   167  H   1.0    0.27    1.00    1.43    34.04149    35.06862    78.31050
   168  H   1.0    0.28    1.00    1.43    32.10888    32.67559    79.37254
   169  N   5.0   -0.49    3.01    1.93    42.48117    42.04225    77.64070
   170  C   4.0    0.06    3.99    3.60    43.48198    41.97354    80.17957
   171  C   4.0    0.07    3.00    3.02    41.64193    43.40661    81.89687
   172  O   6.0   -0.43    1.00    1.80    40.76531    45.46922    81.28631
   173  C   4.0   -0.15    3.98    3.58    46.16668    43.09431    80.30801
   174  C   4.0   -0.12    3.98    3.59    47.85888    41.43777    81.94888
   175  C   4.0    0.27    3.00    3.02    50.62910    42.10641    81.95037
   176  O   6.0   -0.45    1.01    1.80    52.15350    40.75336    83.09892
   177  N   5.0   -0.65    3.00    1.93    51.40869    44.11282    80.66115
   178  H   1.0    0.25    1.00    1.43    42.18589    43.75932    76.86772
   179  H   1.0    0.13    0.99    1.43    43.52320    39.98067    80.72625
   180  H   1.0    0.11    0.99    1.43    46.90871    43.15287    78.38119
   181  H   1.0    0.12    0.99    1.43    46.06199    45.00913    81.06754
   182  H   1.0    0.12    0.99    1.43    47.21012    41.45069    83.91096
   183  H   1.0    0.10    0.99    1.43    47.69818    39.47877    81.31151
   184  H   1.0    0.25    1.00    1.43    50.21458    45.38328    79.89797
   185  H   1.0    0.29    1.00    1.43    53.27147    44.53389    80.65482
   186  N   5.0   -0.71    3.00    1.93    40.05012    49.31489    77.59023
   187  C   4.0    0.06    3.98    3.58    41.82338    49.44300    75.50188
   188  C   4.0    0.06    3.00    3.02    41.05811    47.58852    73.40295
   189  O   6.0   -0.44    1.00    1.80    42.57701    46.32315    72.23153
   190  C   4.0   -0.13    3.99    3.60    44.51746    49.00984    76.46348
   191  C   4.0   -0.10    3.97    3.58    46.63502    50.05247    74.77702
   192  C   4.0   -0.22    3.98    3.59    46.68967    52.93546    74.78795
   193  C   4.0   -0.22    3.99    3.59    49.16293    49.02658    75.73558
   194  H   1.0    0.33    1.00    1.43    40.25649    47.85156    78.82448
   195  H   1.0    0.11    0.99    1.43    41.63691    51.33553    74.68228
   196  H   1.0    0.11    0.99    1.43    44.66294    49.86746    78.33517
   197  H   1.0    0.12    0.99    1.43    44.80017    46.98006    76.65164
   198  H   1.0    0.13    0.99    1.43    46.33054    49.37381    72.84440
   199  H   1.0    0.11    0.99    1.43    48.24235    53.61683    73.62883
   200  H   1.0    0.11    0.99    1.43    44.94763    53.72320    74.03661
   201  H   1.0    0.11    0.99    1.43    46.95631    53.64662    76.69902
   202  H   1.0    0.12    0.99    1.43    50.69057    49.62103    74.49861
   203  H   1.0    0.11    0.99    1.43    49.54614    49.73752    77.62711
   204  H   1.0    0.10    0.99    1.43    49.12615    46.97289    75.76173
   205  N   5.0   -0.70    3.01    1.93    42.74255    44.32922    63.58593
   206  C   4.0    0.07    3.98    3.58    44.33730    46.57464    63.58550
   207  C   4.0    0.27    3.02    3.02    47.04796    45.65555    63.94710
   208  O   6.0   -0.43    1.00    1.80    47.48095    43.84092    65.33858
   209  C   4.0   -0.13    3.98    3.59    43.41736    48.28148    65.77301
   210  C   4.0   -0.11    3.97    3.58    43.57699    51.16767    65.46001
   211  C   4.0   -0.21    3.98    3.59    46.15185    52.25888    66.17062
   212  C   4.0   -0.22    3.98    3.59    42.73330    52.04806    62.83741
   213  H   1.0    0.32    1.00    1.43    42.61959    43.39321    65.25903
   214  H   1.0    0.11    0.99    1.43    44.07498    47.48245    61.75141
   215  H   1.0    0.12    0.99    1.43    41.41175    47.84074    66.02708
   216  H   1.0    0.14    0.99    1.43    44.37433    47.70454    67.51087
   217  H   1.0    0.11    0.99    1.43    42.20084    51.91330    66.82051
   218  H   1.0    0.11    0.99    1.43    46.13098    54.29919    65.92710
   219  H   1.0    0.11    0.99    1.43    46.60006    51.83906    68.13197
   220  H   1.0    0.12    0.99    1.43    47.65579    51.48078    65.01696
   221  H   1.0    0.12    0.99    1.43    42.20583    54.03256    62.90240
   222  H   1.0    0.10    0.99    1.43    44.22889    51.83802    61.44544
   223  H   1.0    0.11    0.99    1.43    41.09279    50.97490    62.21581
   224  N   5.0   -0.34    3.03    1.93    48.92492    46.81236    62.71843
   225  C   4.0    0.07    4.04    3.69    51.51428    46.01955    63.21198
   226  C   4.0    0.29    3.00    3.02    52.00315    45.74975    66.04269
   227  O   6.0   -0.41    1.00    1.80    51.70111    47.50244    67.51625
   228  C   4.0   -0.13    4.01    3.64    53.08515    48.10858    61.98868
   229  C   4.0   -0.14    4.02    3.65    51.50676    48.74504    59.66219
   230  C   4.0   -0.05    4.01    3.64    48.79125    48.60311    60.63801
   231  H   1.0    0.11    0.99    1.43    51.85979    44.19124    62.30253
   232  H   1.0    0.14    0.99    1.43    53.20634    49.71004    63.28295
   233  H   1.0    0.11    0.99    1.43    54.98720    47.46384    61.54879
   234  H   1.0    0.11    0.99    1.43    51.95620    50.58469    58.87795
   235  H   1.0    0.11    0.99    1.43    51.80508    47.29620    58.23275
   236  H   1.0    0.10    0.99    1.43    48.16250    50.44578    61.31745
   237  H   1.0    0.11    0.99    1.43    47.49934    47.89435    59.19728
   238  N   5.0   -0.49    3.01    1.93    52.93340    43.48420    66.69542
   239  C   4.0    0.08    3.99    3.60    53.71281    42.81101    69.22929
   240  C   4.0    0.27    3.01    3.02    56.60426    42.65204    69.33829
   241  O   6.0   -0.44    1.00    1.80    57.86628    44.09287    70.62627
   242  C   4.0   -0.08    3.98    3.58    52.53224    40.28529    70.07621
   243  C   4.0   -0.14    3.98    3.58    49.64318    40.46824    70.29500
   244  C   4.0   -0.22    3.98    3.59    53.74128    39.36815    72.53221
   245  C   4.0   -0.22    3.98    3.58    48.67614    42.11181    72.45464
   246  H   1.0    0.27    1.00    1.43    52.98987    42.06710    65.40855
   247  H   1.0    0.14    0.99    1.43    53.13908    44.36261    70.47348
   248  H   1.0    0.13    0.99    1.43    52.92775    38.90602    68.58289
   249  H   1.0    0.16    0.99    1.43    48.91617    41.24260    68.53203
   250  H   1.0    0.11    0.99    1.43    48.90773    38.55089    70.51344
   251  H   1.0    0.09    0.99    1.43    52.84133    37.61529    73.10537
   252  H   1.0    0.15    0.99    1.43    55.74879    39.02455    72.27390
   253  H   1.0    0.11    0.99    1.43    53.51847    40.77833    74.00334
   254  H   1.0    0.14    0.99    1.43    46.62115    42.12928    72.42341
   255  H   1.0    0.10    0.99    1.43    49.31176    41.39918    74.26989
   256  H   1.0    0.12    0.99    1.43    49.30916    44.05123    72.20960
   257  N   5.0   -0.48    3.00    1.93    57.65105    40.75168    68.01054
   258  C   4.0    0.09    3.99    3.61    60.30429    40.16049    68.24603
   259  C   4.0    0.26    3.01    3.02    61.75775    40.60827    65.78929
   260  O   6.0   -0.45    1.00    1.80    60.77548    40.29062    63.72989
   261  C   4.0   -0.01    3.98    3.59    60.70626    37.37664    69.01598
   262  O   6.0   -0.48    1.99    1.82    60.13420    37.07884    71.58770
   263  H   1.0    0.26    1.00    1.43    56.59395    39.73297    66.78820
   264  H   1.0    0.15    0.99    1.43    61.02032    41.39056    69.74903
   265  H   1.0    0.12    0.99    1.43    59.46798    36.18517    67.84584
   266  H   1.0    0.12    0.99    1.43    62.67313    36.87937    68.59903
   267  H   1.0    0.26    0.99    1.43    61.17110    35.74982    72.29548
   268  N   5.0   -0.48    3.01    1.93    64.18853    41.22322    66.14793
   269  C   4.0    0.06    3.98    3.59    65.98448    41.87631    64.19639
   270  C   4.0    0.06    3.01    3.02    68.51842    40.58286    64.75513
   271  O   6.0   -0.41    1.00    1.80    69.47399    40.72192    66.85239
   272  C   4.0   -0.11    4.00    3.61    66.59481    44.73593    64.34608
   273  C   4.0   -0.02    3.02    3.02    64.53494    46.50570    63.51697
   274  C   4.0   -0.09    3.04    3.02    64.73800    47.70172    61.19023
   275  C   4.0   -0.07    3.03    3.02    62.52736    47.15677    65.08355
   276  C   4.0   -0.09    3.03    3.02    63.06212    49.56401    60.47813
   277  C   4.0   -0.06    3.03    3.02    60.81569    49.00298    64.38579
   278  C   4.0    0.11    3.03    3.02    61.11203    50.26750    62.09516
   279  O   6.0   -0.45    1.99    1.83    59.47973    52.14419    61.48047
   280  H   1.0    0.25    1.00    1.43    64.86495    41.44045    67.92197
   281  H   1.0    0.13    0.99    1.43    65.19340    41.34696    62.36446
   282  H   1.0    0.14    0.99    1.43    67.07575    45.13430    66.31527
   283  H   1.0    0.12    0.99    1.43    68.27134    45.09555    63.19869
   284  H   1.0    0.12    1.00    1.43    66.26056    47.20929    59.92540
   285  H   1.0    0.14    0.99    1.43    62.31119    46.24372    66.89686
   286  H   1.0    0.12    1.00    1.43    63.30235    50.53892    58.70309
   287  H   1.0    0.14    1.00    1.43    59.28443    49.52542    65.63024
   288  H   1.0    0.26    0.99    1.43    60.05535    52.95562    59.92932
   289  N   5.0   -0.67    3.00    1.93    74.28791    41.13709    71.21298
   290  C   4.0    0.08    3.98    3.59    73.71461    43.53667    72.40532
   291  C   4.0    0.28    3.02    3.02    71.03137    43.41793    73.46340
   292  O   6.0   -0.39    1.00    1.80    70.12898    41.38794    74.12411
   293  C   4.0   -0.14    3.98    3.59    74.31772    45.71959    70.60598
   294  C   4.0   -0.09    3.99    3.60    72.60763    45.78608    68.27489
   295  C   4.0    0.28    3.00    3.02    73.45747    47.92465    66.56525
   296  O   6.0   -0.36    1.00    1.80    74.68683    47.59035    64.63765
   297  N   5.0   -0.64    3.01    1.93    72.77686    50.21576    67.39397
   298  H   1.0    0.31    1.00    1.43    73.01928    40.49404    69.93950
   299  H   1.0    0.13    0.99    1.43    74.99581    43.64914    74.03834
   300  H   1.0    0.15    0.99    1.43    74.16256    47.50517    71.61643
   301  H   1.0    0.13    0.99    1.43    76.27713    45.49539    69.99450
   302  H   1.0    0.14    0.99    1.43    72.71145    44.00612    67.24441
   303  H   1.0    0.14    0.99    1.43    70.65173    46.11034    68.82907
   304  H   1.0    0.31    1.00    1.43    71.91970    50.45367    69.08504
   305  H   1.0    0.30    1.00    1.43    73.29678    51.75879    66.41287
   306  N   5.0   -0.50    3.01    1.93    69.75484    45.58883    73.73720
   307  C   4.0    0.08    4.00    3.62    67.24915    45.49714    74.82208
   308  C   4.0    0.26    3.01    3.02    65.59587    47.50300    73.57518
   309  O   6.0   -0.37    1.00    1.80    66.39100    48.83530    71.87098
   310  C   4.0   -0.09    3.98    3.59    67.37677    45.66216    77.73166
   311  C   4.0    0.27    3.00    3.02    65.66016    43.73423    79.01732
   312  O   6.0   -0.37    1.00    1.80    64.00260    44.35113    80.49586
   313  N   5.0   -0.64    3.00    1.93    66.14213    41.33801    78.37185
   314  H   1.0    0.29    1.00    1.43    70.46394    47.30508    73.27677
   315  H   1.0    0.15    0.99    1.43    66.46061    43.65234    74.29383
   316  H   1.0    0.14    0.99    1.43    69.31423    45.23003    78.29621
   317  H   1.0    0.13    0.99    1.43    66.94190    47.55875    78.41156
   318  H   1.0    0.30    1.00    1.43    65.13355    39.93707    79.17637
   319  H   1.0    0.31    1.00    1.43    67.57777    40.88725    77.18733
   320  N   5.0   -0.50    3.01    1.93    63.20582    47.61573    74.42819
   321  C   4.0    0.09    3.99    3.61    61.43673    49.44263    73.44279
   322  C   4.0    0.29    3.01    3.02    61.90371    52.12644    74.44090
   323  O   6.0   -0.39    1.00    1.80    60.79725    53.95365    73.56939
   324  C   4.0   -0.00    3.98    3.59    58.75522    48.65820    74.28493
   325  O   6.0   -0.47    1.99    1.82    58.62694    48.19269    76.88751
   326  H   1.0    0.28    1.00    1.43    62.51733    46.53062    75.85048
   327  H   1.0    0.14    0.99    1.43    61.56109    49.47661    71.37856
   328  H   1.0    0.13    0.99    1.43    57.44634    50.14751    73.68084
   329  H   1.0    0.17    0.99    1.43    58.24923    46.87683    73.37170
   330  H   1.0    0.31    0.99    1.43    59.06961    49.68615    77.85686
   331  N   5.0   -0.44    3.01    1.93    63.44748    52.22207    76.45143
   332  C   4.0    0.10    3.99    3.60    63.62766    54.32671    78.17610
   333  C   4.0    0.27    3.00    3.02    66.28795    55.49602    78.10308
   334  O   6.0   -0.38    1.00    1.80    68.17919    54.24490    78.55066
   335  C   4.0    0.05    3.98    3.58    63.00614    53.34536    80.86029
   336  O   6.0   -0.47    1.99    1.82    60.76196    51.91509    80.66554
   337  C   4.0   -0.21    3.98    3.59    62.68664    55.54421    82.69860
   338  H   1.0    0.27    1.00    1.43    64.39319    50.64045    76.94800
   339  H   1.0    0.15    0.99    1.43    62.20348    55.70254    77.58342
   340  H   1.0    0.14    0.99    1.43    64.56964    52.10633    81.46688
   341  H   1.0    0.27    0.99    1.43    60.24419    51.42546    82.35034
   342  H   1.0    0.11    0.99    1.43    62.35619    54.83293    84.59934
   343  H   1.0    0.13    0.99    1.43    64.39111    56.69197    82.69874
   344  H   1.0    0.12    0.99    1.43    61.07290    56.67772    82.11219
   345  N   5.0   -0.46    3.01    1.93    66.32310    57.95740    77.52756
   346  C   4.0    0.07    3.99    3.60    68.56174    59.51598    77.45360
   347  C   4.0    0.10    3.00    3.02    69.12514    60.60472    80.06793
   348  O   6.0   -0.38    1.00    1.80    67.58139    60.51692    81.78764
   349  C   4.0   -0.09    3.98    3.59    68.12226    61.73661    75.63912
   350  C   4.0    0.33    3.00    3.02    65.94968    63.31788    76.77677
   351  O   6.0   -0.37    1.00    1.80    66.44157    65.31117    77.90147
   352  O   6.0   -0.44    1.00    1.80    63.78094    62.35979    76.60204
   353  H   1.0    0.28    1.00    1.43    64.71262    58.93866    77.14564
   354  H   1.0    0.12    0.99    1.43    70.17264    58.39021    76.82144
   355  H   1.0    0.13    0.99    1.43    69.83488    62.86408    75.42570
   356  H   1.0    0.15    0.99    1.43    67.57154    61.00181    73.79725
   357  H   1.0    0.30    1.00    1.43    68.39140    60.40844    90.68488
   358  H   1.0    0.15    1.00    1.43    59.91351    50.76418    94.98307
   359  H   1.0    0.31    1.00    1.43    76.96946    59.36018    73.06380
   360  H   1.0    0.14    1.00    1.43    74.52644    60.28079    69.40383
   361  H   1.0    0.30    1.00    1.43    44.42788    34.21655    85.20279
   362  H   1.0    0.14    1.00    1.43    43.35492    31.85685    78.03801
   363  H   1.0    0.29    1.00    1.43    46.64237    30.39225    72.84368
   364  H   1.0    0.14    1.00    1.43    45.26149    28.81558    65.56144
   365  H   1.0    0.30    1.00    1.43    63.24043    37.26046    55.88351
   366  H   1.0    0.14    1.00    1.43    41.12799    42.66605    83.55774
   367  H   1.0    0.31    1.00    1.43    40.17755    50.72627    78.53061
   368  H   1.0    0.14    1.00    1.43    39.23676    47.37946    72.94467
   369  H   1.0    0.30    1.00    1.43    41.15247    44.76212    63.16544
   370  H   1.0    0.14    1.00    1.43    69.40465    39.61399    63.39610
   371  H   1.0    0.31    1.00    1.43    75.76439    41.25675    70.37737
   372  H   1.0    0.14    1.00    1.43    70.79545    61.41855    80.41263

           ------------------------------------------------- 
          |        Self-Consistent Charge Iterations        |
           ------------------------------------------------- 

          ...................................................
          :                      SETUP                      :
          :.................................................:
          :  # basis functions                 903          :
          :  # atomic orbitals                 903          :
          :  # shells                          549          :
          :  # electrons                      1002          :
          :  max. iterations                   250          :
          :  Hamiltonian                  GFN2-xTB          :
          :  restarted?                      false          :
          :  GBSA solvation                   true          :
          :  PC potential                    false          :
          :  electronic temp.          500.0000000     K    :
          :  accuracy                    0.1000000          :
          :  -> integral cutoff          0.3500000E+02      :
          :  -> integral neglect         0.1000000E-08      :
          :  -> SCF convergence          0.1000000E-06 Eh   :
          :  -> wf. convergence          0.1000000E-04 e    :
          :  Broyden damping             0.4000000          :
          ...................................................

 iter      E             dE          RMSdq      gap      omega  full diag
   1   -574.7431444 -0.574743E+03  0.426E+00    1.91       0.0  T
   2   -576.1520277 -0.140888E+01  0.219E+00    1.36       1.0  T
   3   -576.2036353 -0.516076E-01  0.118E+00    1.81       1.0  T
   4   -576.2292761 -0.256409E-01  0.276E-01    1.28       1.0  T
   5   -576.2440553 -0.147792E-01  0.107E-01    1.43       1.0  T
   6   -576.2445160 -0.460687E-03  0.482E-02    1.45       1.0  T
   7   -576.2446045 -0.885033E-04  0.228E-02    1.46       1.0  T
   8   -576.2446519 -0.473595E-04  0.866E-03    1.46       1.0  T
   9   -576.2446578 -0.595103E-05  0.422E-03    1.46       1.2  T
  10   -576.2446589 -0.112157E-05  0.187E-03    1.46       2.8  T
  11   -576.2446591 -0.206285E-06  0.712E-04    1.46       7.3  T
  12   -576.2446592 -0.463881E-07  0.344E-04    1.46      15.1  T
  13   -576.2446592 -0.110681E-07  0.171E-04    1.46      30.3  T
  14   -576.2446592 -0.223633E-08  0.670E-05    1.46      77.4  T
  15   -576.2446592 -0.452019E-09  0.282E-05    1.46     184.1  T

   *** convergence criteria satisfied after 15 iterations ***

         #    Occupation            Energy/Eh            Energy/eV
      -------------------------------------------------------------
         1        2.0000           -0.7466976             -20.3187
       ...           ...                  ...                  ...
       495        2.0000           -0.3646541              -9.9227
       496        2.0000           -0.3635347              -9.8923
       497        2.0000           -0.3633906              -9.8884
       498        2.0000           -0.3633408              -9.8870
       499        2.0000           -0.3610024              -9.8234
       500        2.0000           -0.3592978              -9.7770
       501        2.0000           -0.3582978              -9.7498 (HOMO)
       502                         -0.3046589              -8.2902 (LUMO)
       503                         -0.3031771              -8.2499
       504                         -0.3026298              -8.2350
       505                         -0.2999151              -8.1611
       506                         -0.2996244              -8.1532
       ...                                ...                  ...
       903                          0.6652869              18.1034
      -------------------------------------------------------------
                  HL-Gap            0.0536389 Eh            1.4596 eV
             Fermi-level           -0.3314399 Eh           -9.0189 eV

 SCC (total)                   0 d,  0 h,  0 min,  5.038 sec
 SCC setup                      ...        0 min,  0.069 sec (  1.375%)
 Dispersion                     ...        0 min,  0.048 sec (  0.952%)
 integral evaluation            ...        0 min,  0.207 sec (  4.107%)
 zeroth order Hamiltonian       ...        0 min,  0.007 sec (  0.134%)
 iterations                     ...        0 min,  3.974 sec ( 78.888%)
 molecular gradient             ...        0 min,  0.714 sec ( 14.171%)
 printout                       ...        0 min,  0.019 sec (  0.372%)

         :::::::::::::::::::::::::::::::::::::::::::::::::::::
         ::                     SUMMARY                     ::
         :::::::::::::::::::::::::::::::::::::::::::::::::::::
         :: total energy             -569.233978808638 Eh   ::
         :: total w/o Gsasa/hb       -569.139541001513 Eh   ::
         :: gradient norm               0.634740424939 Eh/α ::
         :: HOMO-LUMO gap               1.459588951053 eV   ::
         ::.................................................::
         :: SCC energy               -576.265356726165 Eh   ::
         :: -> isotropic ES             1.689839309314 Eh   ::
         :: -> anisotropic ES          -0.052449236918 Eh   ::
         :: -> anisotropic XC           0.191870441624 Eh   ::
         :: -> dispersion              -0.435132507752 Eh   ::
         :: -> Gsolv                   -0.462160129286 Eh   ::
         ::    -> Gborn                -0.367722322161 Eh   ::
         ::    -> Gsasa                -0.022554974074 Eh   ::
         ::    -> Ghb                  -0.073740276177 Eh   ::
         ::    -> Gshift                0.001857443127 Eh   ::
         :: repulsion energy            6.995111337969 Eh   ::
         :: add. restraining            0.000000000000 Eh   ::
         :::::::::::::::::::::::::::::::::::::::::::::::::::::

           -------------------------------------------------
          |                Property Printout                |
           -------------------------------------------------

    * Orbital Energies and Occupations

         #    Occupation            Energy/Eh            Energy/eV
      -------------------------------------------------------------
         1        2.0000           -0.7466976             -20.3187
       ...           ...                  ...                  ...
       489        2.0000           -0.3956957             -10.7674
       490        2.0000           -0.3897815             -10.6065
       491        2.0000           -0.3875929             -10.5469
       492        2.0000           -0.3864619             -10.5162
       493        2.0000           -0.3861004             -10.5063
       494        2.0000           -0.3825163             -10.4088
       495        2.0000           -0.3646541              -9.9227
       496        2.0000           -0.3635347              -9.8923
       497        2.0000           -0.3633906              -9.8884
       498        2.0000           -0.3633408              -9.8870
       499        2.0000           -0.3610024              -9.8234
       500        2.0000           -0.3592978              -9.7770
       501        2.0000           -0.3582978              -9.7498 (HOMO)
       502                         -0.3046589              -8.2902 (LUMO)
       503                         -0.3031771              -8.2499
       504                         -0.3026298              -8.2350
       505                         -0.2999151              -8.1611
       506                         -0.2996244              -8.1532
       507                         -0.2797162              -7.6115
       508                         -0.2758767              -7.5070
       509                         -0.2689816              -7.3194
       510                         -0.2407485              -6.5511
       511                         -0.2384465              -6.4885
       512                         -0.2372970              -6.4572
       ...                                ...                  ...
       903                          0.6652869              18.1034
      -------------------------------------------------------------
                  HL-Gap            0.0536389 Eh            1.4596 eV
             Fermi-level           -0.3314399 Eh           -9.0189 eV

   #   Z        covCN         q      C6AA      α(0)
   1   7 N      2.639    -0.389    30.073     8.144
   2   6 C      3.784     0.021    20.231     6.407
   3   6 C      2.758     0.273    22.381     7.747
   4   8 O      0.858    -0.466    23.034     6.435
   5   6 C      3.808    -0.081    22.045     6.684
   6   6 C      3.800    -0.079    22.004     6.679
   7   6 C      3.739    -0.029    21.167     6.565
   8   7 N      2.697    -0.143    24.091     7.290
   9   6 C      2.736     0.242    22.947     7.843
  10   7 N      2.651    -0.269    26.966     7.712
  11   7 N      2.653    -0.265    26.860     7.697
  12   1 H      0.860     0.159     1.341     1.814
  13   1 H      0.924     0.063     2.168     2.302
  14   1 H      0.924     0.046     2.367     2.406
  15   1 H      0.924     0.052     2.291     2.367
  16   1 H      0.924     0.068     2.106     2.270
  17   1 H      0.924     0.058     2.225     2.333
  18   1 H      0.925     0.084     1.936     2.176
  19   1 H      0.924     0.096     1.823     2.112
  20   1 H      0.860     0.234     0.948     1.525
  21   1 H      0.860     0.223     0.995     1.562
  22   1 H      0.859     0.238     0.931     1.512
  23   1 H      0.860     0.244     0.909     1.493
  24   1 H      0.860     0.233     0.950     1.527
  25   7 N      2.685    -0.193    25.180     7.453
  26   6 C      3.786     0.016    20.318     6.420
  27   6 C      2.763     0.205    23.642     7.963
  28   8 O      0.856    -0.336    20.443     6.062
  29   6 C      3.674     0.070    19.629     6.349
  30   8 O      1.656    -0.481    22.491     6.402
  31   1 H      0.860     0.210     1.055     1.609
  32   1 H      0.923     0.076     2.018     2.222
  33   1 H      0.924     0.063     2.163     2.300
  34   1 H      0.924     0.065     2.141     2.288
  35   1 H      0.805     0.344     0.601     1.218
  36   7 N      2.633    -0.377    29.742     8.100
  37   6 C      3.782     0.037    19.978     6.367
  38   6 C      2.763     0.189    23.959     8.016
  39   8 O      0.856    -0.378    21.256     6.181
  40   6 C      3.808    -0.101    22.419     6.740
  41   6 C      2.743     0.289    22.102     7.698
  42   8 O      0.859    -0.495    23.680     6.524
  43   7 N      2.639    -0.273    27.060     7.726
  44   1 H      0.860     0.182     1.203     1.718
  45   1 H      0.924     0.075     2.033     2.230
  46   1 H      0.925     0.076     2.016     2.220
  47   1 H      0.925     0.077     2.011     2.218
  48   1 H      0.860     0.232     0.956     1.532
  49   1 H      0.860     0.240     0.922     1.504
  50   7 N      2.635    -0.387    30.007     8.136
  51   6 C      3.782     0.028    20.125     6.391
  52   6 C      2.769     0.205    23.653     7.965
  53   8 O      0.856    -0.390    21.488     6.215
  54   6 C      3.807    -0.083    22.071     6.688
  55   6 C      3.800    -0.078    21.984     6.676
  56   6 C      3.802    -0.094    22.287     6.721
  57   6 C      3.730    -0.047    21.506     6.620
  58   7 N      3.481    -0.170    24.661     7.376
  59   1 H      0.860     0.152     1.387     1.845
  60   1 H      0.924     0.079     1.993     2.208
  61   1 H      0.924     0.068     2.107     2.270
  62   1 H      0.924     0.049     2.332     2.388
  63   1 H      0.924     0.043     2.404     2.425
  64   1 H      0.924     0.064     2.156     2.296
  65   1 H      0.925     0.074     2.042     2.235
  66   1 H      0.925     0.076     2.022     2.224
  67   1 H      0.925     0.109     1.702     2.040
  68   1 H      0.925     0.107     1.718     2.050
  69   1 H      0.859     0.285     0.760     1.366
  70   1 H      0.859     0.284     0.764     1.369
  71   1 H      0.856     0.305     0.698     1.309
  72   7 N      2.638    -0.378    29.769     8.103
  73   6 C      3.783     0.029    20.101     6.386
  74   6 C      2.767     0.209    23.568     7.951
  75   8 O      0.856    -0.383    21.352     6.195
  76   6 C      3.851    -0.024    20.959     6.512
  77   6 C      3.803    -0.065    21.744     6.639
  78   6 C      3.753    -0.112    22.695     6.793
  79   6 C      3.751    -0.117    22.802     6.810
  80   1 H      0.860     0.161     1.327     1.804
  81   1 H      0.924     0.059     2.207     2.323
  82   1 H      0.924     0.045     2.389     2.417
  83   1 H      0.924     0.037     2.495     2.470
  84   1 H      0.924     0.049     2.330     2.387
  85   1 H      0.925     0.052     2.295     2.369
  86   1 H      0.925     0.024     2.678     2.559
  87   1 H      0.925     0.031     2.567     2.505
  88   1 H      0.925     0.060     2.202     2.321
  89   1 H      0.925     0.045     2.385     2.415
  90   1 H      0.925     0.032     2.553     2.498
  91   7 N      2.637    -0.395    30.246     8.168
  92   6 C      3.786     0.020    20.254     6.410
  93   6 C      2.755     0.276    22.327     7.738
  94   8 O      0.858    -0.504    23.863     6.549
  95   6 C      3.850    -0.018    20.866     6.497
  96   6 C      3.755    -0.103    22.527     6.768
  97   6 C      3.755    -0.119    22.841     6.815
  98   1 H      0.860     0.159     1.340     1.813
  99   1 H      0.924     0.056     2.242     2.342
 100   1 H      0.924     0.032     2.559     2.501
 101   1 H      0.925     0.039     2.464     2.455
 102   1 H      0.925     0.034     2.529     2.487
 103   1 H      0.925     0.032     2.560     2.502
 104   1 H      0.925     0.039     2.466     2.456
 105   1 H      0.925     0.034     2.527     2.486
 106   1 H      0.925     0.058     2.219     2.329
 107   7 N      2.691    -0.177    24.836     7.402
 108   6 C      3.794     0.025    20.160     6.394
 109   6 C      2.756     0.267    22.497     7.767
 110   8 O      0.858    -0.485    23.465     6.495
 111   6 C      3.754    -0.122    22.890     6.822
 112   1 H      0.860     0.212     1.047     1.603
 113   1 H      0.924     0.063     2.163     2.300
 114   1 H      0.925     0.066     2.125     2.280
 115   1 H      0.925     0.064     2.151     2.294
 116   1 H      0.925     0.066     2.131     2.283
 117   7 N      2.689    -0.154    24.327     7.325
 118   6 C      3.793     0.016    20.308     6.418
 119   6 C      2.758     0.265    22.525     7.772
 120   8 O      0.858    -0.483    23.422     6.489
 121   6 C      3.814    -0.081    22.026     6.680
 122   6 C      2.965     0.002    27.979     8.676
 123   6 C      2.923    -0.042    29.045     8.838
 124   6 C      2.930    -0.044    29.105     8.847
 125   6 C      2.918    -0.079    29.963     8.976
 126   6 C      2.918    -0.060    29.482     8.904
 127   6 C      2.847     0.144    24.871     8.173
 128   8 O      1.660    -0.435    21.529     6.264
 129   1 H      0.860     0.208     1.066     1.617
 130   1 H      0.924     0.086     1.923     2.168
 131   1 H      0.924     0.066     2.133     2.284
 132   1 H      0.924     0.081     1.971     2.196
 133   1 H      0.926     0.027     2.632     2.537
 134   1 H      0.926     0.051     2.312     2.378
 135   1 H      0.926     0.040     2.452     2.449
 136   1 H      0.926     0.050     2.319     2.382
 137   1 H      0.805     0.343     0.605     1.222
 138   7 N      2.686    -0.156    24.369     7.332
 139   6 C      3.747    -0.035    21.271     6.579
 140   6 C      2.751     0.274    22.376     7.746
 141   8 O      0.858    -0.471    23.147     6.450
 142   1 H      0.860     0.218     1.020     1.582
 143   1 H      0.924     0.101     1.779     2.086
 144   1 H      0.924     0.083     1.947     2.182
 145   7 N      2.693    -0.163    24.518     7.354
 146   6 C      3.794     0.010    20.412     6.434
 147   6 C      2.758     0.263    22.566     7.779
 148   8 O      0.859    -0.444    22.572     6.370
 149   6 C      3.806    -0.078    21.987     6.675
 150   6 C      3.800    -0.088    22.179     6.705
 151   6 C      3.741    -0.027    21.123     6.557
 152   7 N      2.697    -0.144    24.116     7.294
 153   6 C      2.737     0.233    23.119     7.872
 154   7 N      2.651    -0.256    26.650     7.667
 155   7 N      2.651    -0.243    26.336     7.622
 156   1 H      0.860     0.223     0.994     1.562
 157   1 H      0.924     0.073     2.050     2.239
 158   1 H      0.924     0.062     2.177     2.308
 159   1 H      0.925     0.062     2.176     2.307
 160   1 H      0.924     0.072     2.064     2.247
 161   1 H      0.925     0.085     1.931     2.173
 162   1 H      0.924     0.080     1.982     2.201
 163   1 H      0.924     0.082     1.955     2.187
 164   1 H      0.860     0.230     0.964     1.538
 165   1 H      0.860     0.245     0.902     1.488
 166   1 H      0.860     0.253     0.872     1.463
 167   1 H      0.860     0.250     0.881     1.471
 168   1 H      0.860     0.251     0.879     1.469
 169   7 N      2.693    -0.157    24.387     7.334
 170   6 C      3.793     0.014    20.351     6.424
 171   6 C      2.767     0.197    23.806     7.991
 172   8 O      0.856    -0.354    20.786     6.113
 173   6 C      3.802    -0.082    22.058     6.687
 174   6 C      3.806    -0.115    22.693     6.781
 175   6 C      2.743     0.281    22.236     7.721
 176   8 O      0.861    -0.500    23.773     6.537
 177   7 N      2.637    -0.257    26.665     7.669
 178   1 H      0.860     0.191     1.156     1.684
 179   1 H      0.924     0.115     1.653     2.011
 180   1 H      0.924     0.083     1.948     2.183
 181   1 H      0.924     0.068     2.110     2.272
 182   1 H      0.924     0.096     1.821     2.111
 183   1 H      0.924     0.109     1.705     2.042
 184   1 H      0.860     0.215     1.035     1.593
 185   1 H      0.860     0.241     0.919     1.502
 186   7 N      2.635    -0.412    30.707     8.230
 187   6 C      3.781     0.035    20.000     6.371
 188   6 C      2.763     0.192    23.887     8.004
 189   8 O      0.856    -0.365    20.988     6.142
 190   6 C      3.809    -0.077    21.954     6.670
 191   6 C      3.848    -0.009    20.711     6.473
 192   6 C      3.756    -0.110    22.653     6.786
 193   6 C      3.758    -0.118    22.820     6.811
 194   1 H      0.860     0.190     1.159     1.686
 195   1 H      0.924     0.062     2.178     2.308
 196   1 H      0.924     0.049     2.331     2.387
 197   1 H      0.925     0.052     2.296     2.369
 198   1 H      0.924     0.026     2.645     2.544
 199   1 H      0.925     0.029     2.606     2.525
 200   1 H      0.925     0.025     2.657     2.549
 201   1 H      0.925     0.043     2.415     2.430
 202   1 H      0.925     0.032     2.555     2.499
 203   1 H      0.925     0.048     2.351     2.398
 204   1 H      0.925     0.049     2.332     2.388
 205   7 N      2.641    -0.398    30.314     8.177
 206   6 C      3.782     0.035    20.007     6.372
 207   6 C      2.768     0.263    22.567     7.780
 208   8 O      0.860    -0.498    23.744     6.533
 209   6 C      3.804    -0.065    21.738     6.638
 210   6 C      3.847    -0.013    20.779     6.484
 211   6 C      3.754    -0.107    22.598     6.779
 212   6 C      3.753    -0.114    22.739     6.800
 213   1 H      0.860     0.174     1.248     1.750
 214   1 H      0.924     0.036     2.502     2.474
 215   1 H      0.924     0.042     2.427     2.436
 216   1 H      0.924     0.038     2.478     2.462
 217   1 H      0.924     0.031     2.573     2.509
 218   1 H      0.925     0.037     2.487     2.466
 219   1 H      0.925     0.034     2.534     2.489
 220   1 H      0.925     0.032     2.553     2.499
 221   1 H      0.925     0.040     2.447     2.446
 222   1 H      0.925     0.034     2.528     2.486
 223   1 H      0.925     0.041     2.436     2.441
 224   7 N      2.760    -0.091    23.021     7.126
 225   6 C      3.843     0.026    20.103     6.378
 226   6 C      2.751     0.288    22.127     7.703
 227   8 O      0.858    -0.494    23.662     6.522
 228   6 C      3.833    -0.060    21.636     6.618
 229   6 C      3.837    -0.070    21.819     6.645
 230   6 C      3.766    -0.003    20.674     6.481
 231   1 H      0.924     0.040     2.444     2.445
 232   1 H      0.924     0.056     2.247     2.344
 233   1 H      0.925     0.049     2.335     2.390
 234   1 H      0.925     0.067     2.121     2.277
 235   1 H      0.925     0.057     2.238     2.340
 236   1 H      0.924     0.061     2.184     2.311
 237   1 H      0.924     0.057     2.239     2.340
 238   7 N      2.691    -0.189    25.105     7.442
 239   6 C      3.794     0.016    20.312     6.418
 240   6 C      2.757     0.274    22.359     7.743
 241   8 O      0.859    -0.476    23.269     6.468
 242   6 C      3.852    -0.030    21.070     6.529
 243   6 C      3.802    -0.068    21.807     6.648
 244   6 C      3.755    -0.136    23.179     6.865
 245   6 C      3.751    -0.112    22.705     6.796
 246   1 H      0.860     0.214     1.039     1.597
 247   1 H      0.924     0.084     1.935     2.176
 248   1 H      0.924     0.043     2.410     2.428
 249   1 H      0.925     0.040     2.453     2.449
 250   1 H      0.924     0.045     2.387     2.416
 251   1 H      0.925     0.072     2.061     2.245
 252   1 H      0.925     0.054     2.269     2.355
 253   1 H      0.925     0.064     2.149     2.292
 254   1 H      0.925     0.036     2.501     2.473
 255   1 H      0.925     0.062     2.179     2.308
 256   1 H      0.925     0.032     2.553     2.499
 257   7 N      2.688    -0.163    24.522     7.355
 258   6 C      3.797     0.007    20.464     6.441
 259   6 C      2.753     0.263    22.560     7.778
 260   8 O      0.858    -0.467    23.071     6.440
 261   6 C      3.678     0.073    19.565     6.336
 262   8 O      1.656    -0.463    22.118     6.349
 263   1 H      0.860     0.211     1.053     1.608
 264   1 H      0.924     0.092     1.861     2.133
 265   1 H      0.923     0.047     2.358     2.401
 266   1 H      0.924     0.035     2.521     2.483
 267   1 H      0.805     0.362     0.560     1.175
 268   7 N      2.692    -0.163    24.534     7.356
 269   6 C      3.785     0.027    20.142     6.393
 270   6 C      2.774     0.196    23.822     7.994
 271   8 O      0.856    -0.349    20.692     6.099
 272   6 C      3.818    -0.067    21.768     6.640
 273   6 C      2.966     0.001    28.008     8.681
 274   6 C      2.927    -0.041    29.031     8.836
 275   6 C      2.924    -0.036    28.903     8.816
 276   6 C      2.917    -0.076    29.899     8.967
 277   6 C      2.917    -0.058    29.450     8.899
 278   6 C      2.847     0.145    24.845     8.169
 279   8 O      1.658    -0.431    21.464     6.254
 280   1 H      0.860     0.207     1.070     1.621
 281   1 H      0.924     0.090     1.880     2.144
 282   1 H      0.924     0.063     2.167     2.302
 283   1 H      0.924     0.057     2.232     2.336
 284   1 H      0.926     0.046     2.364     2.405
 285   1 H      0.926     0.036     2.499     2.472
 286   1 H      0.926     0.048     2.348     2.396
 287   1 H      0.926     0.044     2.402     2.424
 288   1 H      0.804     0.352     0.583     1.199
 289   7 N      2.637    -0.381    29.840     8.113
 290   6 C      3.785     0.028    20.120     6.389
 291   6 C      2.764     0.269    22.453     7.760
 292   8 O      0.859    -0.473    23.201     6.458
 293   6 C      3.807    -0.081    22.038     6.683
 294   6 C      3.808    -0.091    22.223     6.711
 295   6 C      2.747     0.292    22.049     7.689
 296   8 O      0.858    -0.516    24.144     6.588
 297   7 N      2.640    -0.287    27.395     7.773
 298   1 H      0.860     0.159     1.341     1.814
 299   1 H      0.923     0.062     2.173     2.305
 300   1 H      0.925     0.064     2.156     2.296
 301   1 H      0.924     0.043     2.408     2.427
 302   1 H      0.925     0.059     2.205     2.322
 303   1 H      0.925     0.053     2.282     2.362
 304   1 H      0.860     0.228     0.976     1.547
 305   1 H      0.860     0.209     1.060     1.613
 306   7 N      2.690    -0.175    24.799     7.396
 307   6 C      3.804     0.014    20.340     6.421
 308   6 C      2.757     0.268    22.479     7.764
 309   8 O      0.858    -0.479    23.315     6.474
 310   6 C      3.807    -0.109    22.570     6.763
 311   6 C      2.742     0.284    22.195     7.714
 312   8 O      0.858    -0.480    23.355     6.479
 313   7 N      2.639    -0.288    27.440     7.780
 314   1 H      0.860     0.218     1.020     1.582
 315   1 H      0.924     0.095     1.834     2.118
 316   1 H      0.924     0.083     1.946     2.182
 317   1 H      0.924     0.058     2.221     2.331
 318   1 H      0.860     0.249     0.889     1.477
 319   1 H      0.860     0.233     0.954     1.530
 320   7 N      2.690    -0.184    24.990     7.424
 321   6 C      3.796     0.010    20.411     6.433
 322   6 C      2.753     0.278    22.298     7.732
 323   8 O      0.858    -0.489    23.552     6.507
 324   6 C      3.682     0.058    19.799     6.372
 325   8 O      1.655    -0.443    21.707     6.290
 326   1 H      0.860     0.232     0.956     1.532
 327   1 H      0.924     0.072     2.064     2.247
 328   1 H      0.924     0.039     2.457     2.451
 329   1 H      0.924     0.107     1.724     2.054
 330   1 H      0.804     0.325     0.650     1.267
 331   7 N      2.692    -0.167    24.609     7.368
 332   6 C      3.793     0.012    20.382     6.429
 333   6 C      2.751     0.269    22.465     7.761
 334   8 O      0.858    -0.485    23.449     6.492
 335   6 C      3.727     0.115    18.795     6.190
 336   8 O      1.655    -0.484    22.560     6.412
 337   6 C      3.752    -0.143    23.323     6.887
 338   1 H      0.860     0.196     1.126     1.662
 339   1 H      0.924     0.077     2.007     2.216
 340   1 H      0.923     0.031     2.572     2.508
 341   1 H      0.805     0.362     0.562     1.177
 342   1 H      0.925     0.075     2.029     2.227
 343   1 H      0.925     0.045     2.387     2.416
 344   1 H      0.925     0.074     2.042     2.235
 345   7 N      2.691    -0.178    24.850     7.404
 346   6 C      3.794     0.041    19.897     6.352
 347   6 C      2.769     0.199    23.758     7.983
 348   8 O      0.856    -0.359    20.876     6.126
 349   6 C      3.807    -0.102    22.441     6.744
 350   6 C      2.690     0.369    20.745     7.454
 351   8 O      0.856    -0.597    26.049     6.843
 352   8 O      0.857    -0.605    26.233     6.867
 353   1 H      0.860     0.225     0.986     1.556
 354   1 H      0.924     0.080     1.984     2.203
 355   1 H      0.924     0.048     2.350     2.397
 356   1 H      0.925     0.057     2.231     2.336
 357   1 H      0.862     0.185     1.185     1.705
 358   1 H      0.930     0.089     1.887     2.148
 359   1 H      0.862     0.186     1.181     1.702
 360   1 H      0.930     0.076     2.018     2.221
 361   1 H      0.862     0.189     1.163     1.689
 362   1 H      0.930     0.073     2.049     2.238
 363   1 H      0.862     0.186     1.180     1.702
 364   1 H      0.930     0.060     2.194     2.316
 365   1 H      0.862     0.177     1.233     1.739
 366   1 H      0.930     0.097     1.808     2.103
 367   1 H      0.862     0.177     1.232     1.739
 368   1 H      0.930     0.069     2.101     2.266
 369   1 H      0.862     0.174     1.246     1.748
 370   1 H      0.930     0.086     1.919     2.166
 371   1 H      0.862     0.178     1.224     1.733
 372   1 H      0.930     0.081     1.965     2.192

 Mol. C6AA /au·bohr⁶  :    1237448.594117
 Mol. C8AA /au·bohr⁸  :   27318630.677393
 Mol. α(0) /au        :       1665.444862


Wiberg/Mayer (AO) data.
largest (>0.10) Wiberg bond orders for each atom
          total WBO             WBO to atom ...
     1  N   2.995        C    2 1.028    H   12 0.954    H  357 0.948
     2  C   3.984        N    1 1.028    C    5 0.965    H   13 0.951    C    3 0.940
     3  C   3.939        O    4 1.677    N   25 1.252    C    2 0.940
     4  O   1.994        C    3 1.677    N   25 0.186
     5  C   3.993        C    6 1.003    H   14 0.975    H   15 0.971    C    2 0.965
     6  C   3.990        C    5 1.003    C    7 0.994    H   16 0.975    H   17 0.973
     7  C   3.947        C    6 0.994    N    8 0.983    H   19 0.961    H   18 0.960
     8  N   3.470        C    9 1.320    C    7 0.983    H   20 0.915
     9  C   3.974        N    8 1.320    N   10 1.314    N   11 1.301
    10  N   3.359        C    9 1.314    H   21 0.905    H   22 0.858
    11  N   3.372        C    9 1.301    H   23 0.920    H   24 0.910
    12  H   0.975        N    1 0.954
    13  H   0.996        C    2 0.951
    14  H   0.998        C    5 0.975
    15  H   0.997        C    5 0.971
    16  H   0.995        C    6 0.975
    17  H   0.997        C    6 0.973
    18  H   0.993        C    7 0.960
    19  H   0.991        C    7 0.961
    20  H   0.945        N    8 0.915
    21  H   0.950        N   10 0.905
    22  H   0.943        N   10 0.858
    23  H   0.941        N   11 0.920
    24  H   0.945        N   11 0.910
    25  N   3.414        C    3 1.252    C   26 0.969    H   31 0.924    O    4 0.186
    26  C   3.965        C   27 0.971    N   25 0.969    C   29 0.954    H   32 0.954
    27  C   3.899        O   28 1.930    C   26 0.971    H  358 0.951
    28  O   2.059        C   27 1.930
    29  C   3.951        O   30 1.010    H   34 0.970    H   33 0.964    C   26 0.954
    30  O   1.939        C   29 1.010    H   35 0.869
    31  H   0.956        N   25 0.924
    32  H   0.994        C   26 0.954
    33  H   0.996        C   29 0.964
    34  H   0.996        C   29 0.970
    35  H   0.881        O   30 0.869
    36  N   3.020        C   37 1.015    H   44 0.955    H  359 0.951
    37  C   3.989        N   36 1.015    C   38 0.981    C   40 0.972    H   45 0.924
    38  C   3.901        O   39 1.883    C   37 0.981    H  360 0.951
    39  O   2.043        C   38 1.883
    40  C   3.988        C   37 0.972    C   41 0.970    H   47 0.967    H   46 0.946
    41  C   3.947        O   42 1.604    N   43 1.337    C   40 0.970
    42  O   1.959        C   41 1.604    N   43 0.198
    43  N   3.419        C   41 1.337    H   48 0.924    H   49 0.920    O   42 0.198
    44  H   0.967        N   36 0.955
    45  H   0.994        C   37 0.924
    46  H   0.994        C   40 0.946
    47  H   0.994        C   40 0.967
    48  H   0.946        N   43 0.924
    49  H   0.942        N   43 0.920
    50  N   2.997        C   51 1.017    H   59 0.958    H  361 0.949
    51  C   3.981        N   50 1.017    C   52 0.985    H   60 0.951    C   54 0.945
    52  C   3.891        O   53 1.886    C   51 0.985    H  362 0.955
    53  O   2.031        C   52 1.886
    54  C   3.991        C   55 1.004    H   62 0.976    H   61 0.964    C   51 0.945
    55  C   3.993        C   56 1.005    C   54 1.004    H   63 0.978    H   64 0.973
    56  C   3.988        C   57 1.008    C   55 1.005    H   65 0.971    H   66 0.962
    57  C   3.918        C   56 1.008    H   68 0.968    H   67 0.963    N   58 0.960
    58  N   3.645        C   57 0.960    H   70 0.906    H   69 0.905    H   71 0.810
    59  H   0.977        N   50 0.958
    60  H   0.994        C   51 0.951
    61  H   0.995        C   54 0.964
    62  H   0.998        C   54 0.976
    63  H   0.998        C   55 0.978
    64  H   0.996        C   55 0.973
    65  H   0.994        C   56 0.971
    66  H   0.994        C   56 0.962
    67  H   0.988        C   57 0.963
    68  H   0.988        C   57 0.968
    69  H   0.919        N   58 0.905
    70  H   0.919        N   58 0.906
    71  H   0.907        N   58 0.810
    72  N   2.996        C   73 1.020    H   80 0.955    H  363 0.947
    73  C   3.985        N   72 1.020    C   74 0.983    H   81 0.957    C   76 0.932
    74  C   3.891        O   75 1.887    C   73 0.983    H  364 0.957
    75  O   2.031        C   74 1.887
    76  C   3.990        C   78 1.010    C   77 0.995    H   82 0.965    C   73 0.932
    77  C   3.996        C   79 1.018    C   76 0.995    H   83 0.977    H   84 0.971
    78  C   3.995        C   76 1.010    H   86 0.983    H   85 0.981    H   87 0.981
    79  C   3.993        C   77 1.018    H   89 0.987    H   90 0.986    H   88 0.984
    80  H   0.974        N   72 0.955
    81  H   0.996        C   73 0.957
    82  H   0.998        C   76 0.965
    83  H   0.999        C   77 0.977
    84  H   0.998        C   77 0.971
    85  H   0.997        C   78 0.981
    86  H   0.999        C   78 0.983
    87  H   0.999        C   78 0.981
    88  H   0.995        C   79 0.984
    89  H   0.998        C   79 0.987
    90  H   0.999        C   79 0.986
    91  N   2.991        C   92 1.020    H  365 0.953    H   98 0.951
    92  C   3.982        N   91 1.020    C   93 0.951    C   95 0.950    H   99 0.947
    93  C   3.943        O   94 1.630    N  107 1.294    C   92 0.951
    94  O   1.947        C   93 1.630    N  107 0.191
    95  C   3.994        C   96 1.011    C   97 1.010    H  100 0.965    C   92 0.950
    96  C   3.997        C   95 1.011    H  103 0.986    H  101 0.985    H  102 0.984
    97  C   3.994        C   95 1.010    H  104 0.985    H  105 0.982    H  106 0.975
    98  H   0.974        N   91 0.951
    99  H   0.997        C   92 0.947
   100  H   0.998        C   95 0.965
   101  H   0.998        C   96 0.985
   102  H   0.999        C   96 0.984
   103  H   0.999        C   96 0.986
   104  H   0.998        C   97 0.985
   105  H   0.999        C   97 0.982
   106  H   0.997        C   97 0.975
   107  N   3.462        C   93 1.294    C  108 0.982    H  112 0.914    O   94 0.191
   108  C   3.967        N  107 0.982    C  111 0.977    H  113 0.955    C  109 0.945
   109  C   3.951        O  110 1.592    N  117 1.329    C  108 0.945
   110  O   1.962        C  109 1.592    N  117 0.198
   111  C   3.985        H  116 0.983    H  115 0.982    C  108 0.977    H  114 0.974
   112  H   0.955        N  107 0.914
   113  H   0.996        C  108 0.955
   114  H   0.995        C  111 0.974
   115  H   0.995        C  111 0.982
   116  H   0.996        C  111 0.983
   117  N   3.502        C  109 1.329    C  118 0.980    H  129 0.923    O  110 0.198
   118  C   3.958        N  117 0.980    C  121 0.974    H  130 0.945    C  119 0.928
   119  C   3.956        O  120 1.633    N  138 1.319    C  118 0.928
   120  O   1.951        C  119 1.633    N  138 0.206
   121  C   3.988        C  122 1.006    C  118 0.974    H  131 0.959    H  132 0.954
   122  C   3.988        C  123 1.428    C  124 1.383    C  121 1.006
   123  C   3.992        C  122 1.428    C  125 1.427    H  133 0.961    C  126 0.105
   124  C   3.989        C  126 1.479    C  122 1.383    H  134 0.968    C  125 0.107
   125  C   3.986        C  123 1.427    C  127 1.382    H  135 0.961    C  124 0.107
   126  C   3.988        C  124 1.479    C  127 1.349    H  136 0.968    C  123 0.105
   127  C   3.937        C  125 1.382    C  126 1.349    O  128 1.073
   128  O   2.094        C  127 1.073    H  137 0.861
   129  H   0.956        N  117 0.923
   130  H   0.993        C  118 0.945
   131  H   0.995        C  121 0.959
   132  H   0.992        C  121 0.954
   133  H   0.999        C  123 0.961
   134  H   0.997        C  124 0.968
   135  H   0.998        C  125 0.961
   136  H   0.997        C  126 0.968
   137  H   0.882        O  128 0.861
   138  N   3.485        C  119 1.319    C  139 0.991    H  142 0.904    O  120 0.206
   139  C   3.961        N  138 0.991    C  140 0.959    H  144 0.954    H  143 0.940
   140  C   3.956        O  141 1.646    N  145 1.294    C  139 0.959
   141  O   1.986        C  140 1.646    N  145 0.201
   142  H   0.952        N  138 0.904
   143  H   0.990        C  139 0.940
   144  H   0.993        C  139 0.954
   145  N   3.469        C  140 1.294    C  146 0.982    H  156 0.915    O  141 0.201
   146  C   3.963        N  145 0.982    C  149 0.961    H  157 0.949    C  147 0.944
   147  C   3.956        O  148 1.655    N  169 1.286    C  146 0.944
   148  O   1.987        C  147 1.655    N  169 0.201
   149  C   3.987        C  150 1.006    H  158 0.972    H  159 0.972    C  146 0.961
   150  C   3.987        C  149 1.006    C  151 0.996    H  160 0.973    H  161 0.970
   151  C   3.952        C  150 0.996    N  152 0.981    H  163 0.967    H  162 0.962
   152  N   3.456        C  153 1.304    C  151 0.981    H  164 0.919
   153  C   3.975        N  155 1.326    N  154 1.317    N  152 1.304
   154  N   3.386        C  153 1.317    H  165 0.919    H  166 0.913    N  155 0.102
   155  N   3.402        C  153 1.326    H  168 0.917    H  167 0.912    N  154 0.102
   156  H   0.950        N  145 0.915
   157  H   0.994        C  146 0.949
   158  H   0.996        C  149 0.972
   159  H   0.996        C  149 0.972
   160  H   0.995        C  150 0.973
   161  H   0.993        C  150 0.970
   162  H   0.994        C  151 0.962
   163  H   0.993        C  151 0.967
   164  H   0.947        N  152 0.919
   165  H   0.940        N  154 0.919
   166  H   0.936        N  154 0.913
   167  H   0.937        N  155 0.912
   168  H   0.937        N  155 0.917
   169  N   3.477        C  147 1.286    C  170 0.981    H  178 0.924    O  148 0.201
   170  C   3.958        N  169 0.981    C  171 0.972    C  173 0.953    H  179 0.943
   171  C   3.887        O  172 1.895    C  170 0.972    H  366 0.950
   172  O   2.076        C  171 1.895
   173  C   3.985        C  174 1.010    H  181 0.971    H  180 0.961    C  170 0.953
   174  C   3.988        C  173 1.010    C  175 0.986    H  182 0.947    H  183 0.935
   175  C   3.945        O  176 1.552    N  177 1.357    C  174 0.986
   176  O   1.942        C  175 1.552    N  177 0.187
   177  N   3.443        C  175 1.357    H  184 0.925    H  185 0.920    O  176 0.187
   178  H   0.964        N  169 0.924
   179  H   0.986        C  170 0.943
   180  H   0.993        C  173 0.961
   181  H   0.995        C  173 0.971
   182  H   0.991        C  174 0.947
   183  H   0.988        C  174 0.935
   184  H   0.954        N  177 0.925
   185  H   0.942        N  177 0.920
   186  N   2.985        C  187 1.016    H  367 0.956    H  194 0.917
   187  C   3.986        N  186 1.016    C  190 0.982    C  188 0.981    H  195 0.921
   188  C   3.897        O  189 1.891    C  187 0.981    H  368 0.953
   189  O   2.047        C  188 1.891
   190  C   3.995        C  191 0.995    C  187 0.982    H  196 0.973    H  197 0.966
   191  C   3.996        C  192 1.010    C  193 1.007    C  190 0.995    H  198 0.968
   192  C   3.996        C  191 1.010    H  199 0.986    H  201 0.985    H  200 0.983
   193  C   3.995        C  191 1.007    H  202 0.987    H  203 0.985    H  204 0.980
   194  H   0.964        N  186 0.917
   195  H   0.996        C  187 0.921
   196  H   0.998        C  190 0.973
   197  H   0.997        C  190 0.966
   198  H   0.999        C  191 0.968
   199  H   0.999        C  192 0.986
   200  H   0.999        C  192 0.983
   201  H   0.998        C  192 0.985
   202  H   0.999        C  193 0.987
   203  H   0.998        C  193 0.985
   204  H   0.998        C  193 0.980
   205  N   2.989        C  206 1.015    H  369 0.956    H  213 0.938
   206  C   3.987        N  205 1.015    C  209 0.964    H  214 0.958    C  207 0.955
   207  C   3.944        O  208 1.589    N  224 1.303    C  206 0.955
   208  O   1.944        C  207 1.589    N  224 0.186
   209  C   3.992        C  210 0.993    H  216 0.975    H  215 0.972    C  206 0.964
   210  C   3.996        C  211 1.011    C  212 1.008    C  209 0.993    H  217 0.968
   211  C   3.996        C  210 1.011    H  218 0.986    H  219 0.986    H  220 0.979
   212  C   3.996        C  210 1.008    H  221 0.986    H  223 0.985    H  222 0.981
   213  H   0.970        N  205 0.938
   214  H   0.999        C  206 0.958
   215  H   0.998        C  209 0.972
   216  H   0.999        C  209 0.975
   217  H   0.999        C  210 0.968
   218  H   0.998        C  211 0.986
   219  H   0.999        C  211 0.986
   220  H   0.999        C  211 0.979
   221  H   0.998        C  212 0.986
   222  H   0.999        C  212 0.981
   223  H   0.998        C  212 0.985
   224  N   3.517        C  207 1.303    C  230 0.975    C  225 0.963    O  208 0.186
   225  C   3.971        C  228 0.983    N  224 0.963    H  231 0.949    C  226 0.939
   226  C   3.952        O  227 1.635    N  238 1.298    C  225 0.939
   227  O   1.951        C  226 1.635    N  238 0.198
   228  C   3.992        C  229 1.004    C  225 0.983    H  233 0.977    H  232 0.975
   229  C   3.991        C  228 1.004    C  230 1.003    H  234 0.975    H  235 0.971
   230  C   3.967        C  229 1.003    N  224 0.975    H  237 0.968    H  236 0.956
   231  H   0.998        C  225 0.949
   232  H   0.997        C  228 0.975
   233  H   0.997        C  228 0.977
   234  H   0.994        C  229 0.975
   235  H   0.997        C  229 0.971
   236  H   0.996        C  230 0.956
   237  H   0.997        C  230 0.968
   238  N   3.468        C  226 1.298    C  239 0.975    H  246 0.894    O  227 0.198
   239  C   3.952        N  238 0.975    C  242 0.960    H  247 0.953    C  240 0.932
   240  C   3.941        O  241 1.647    N  257 1.279    C  239 0.932
   241  O   1.976        C  240 1.647    N  257 0.192
   242  C   3.984        C  244 1.006    C  243 0.993    C  239 0.960    H  248 0.959
   243  C   3.994        C  245 1.019    C  242 0.993    H  250 0.975    H  249 0.968
   244  C   3.988        C  242 1.006    H  253 0.982    H  252 0.980    H  251 0.979
   245  C   3.995        C  243 1.019    H  254 0.985    H  256 0.983    H  255 0.983
   246  H   0.954        N  238 0.894
   247  H   0.992        C  239 0.953
   248  H   0.998        C  242 0.959
   249  H   0.998        C  243 0.968
   250  H   0.997        C  243 0.975
   251  H   0.994        C  244 0.979
   252  H   0.997        C  244 0.980
   253  H   0.996        C  244 0.982
   254  H   0.999        C  245 0.985
   255  H   0.996        C  245 0.983
   256  H   0.999        C  245 0.983
   257  N   3.466        C  240 1.279    C  258 0.998    H  263 0.914    O  241 0.192
   258  C   3.970        N  257 0.998    C  261 0.959    H  264 0.946    C  259 0.934
   259  C   3.948        O  260 1.639    N  268 1.287    C  258 0.934
   260  O   1.982        C  259 1.639    N  268 0.195
   261  C   3.966        O  262 1.015    H  266 0.971    H  265 0.963    C  258 0.959
   262  O   1.935        C  261 1.015    H  267 0.856
   263  H   0.955        N  257 0.914
   264  H   0.991        C  258 0.946
   265  H   0.998        C  261 0.963
   266  H   0.998        C  261 0.971
   267  H   0.869        O  262 0.856
   268  N   3.472        C  259 1.287    C  269 0.985    H  280 0.923    O  260 0.195
   269  C   3.966        N  268 0.985    C  270 0.970    H  281 0.959    C  272 0.935
   270  C   3.898        O  271 1.903    C  269 0.970    H  370 0.952
   271  O   2.054        C  270 1.903
   272  C   3.987        C  273 1.008    H  283 0.967    H  282 0.962    C  269 0.935
   273  C   3.987        C  274 1.404    C  275 1.402    C  272 1.008
   274  C   3.989        C  276 1.457    C  273 1.404    H  284 0.968    C  277 0.106
   275  C   3.992        C  277 1.460    C  273 1.402    H  285 0.968    C  276 0.103
   276  C   3.986        C  274 1.457    C  278 1.366    H  286 0.965    C  275 0.103
   277  C   3.988        C  275 1.460    C  278 1.362    H  287 0.969    C  274 0.106
   278  C   3.938        C  276 1.366    C  277 1.362    O  279 1.081
   279  O   2.096        C  278 1.081    H  288 0.854
   280  H   0.957        N  268 0.923
   281  H   0.992        C  269 0.959
   282  H   0.995        C  272 0.962
   283  H   0.996        C  272 0.967
   284  H   0.998        C  274 0.968
   285  H   0.999        C  275 0.968
   286  H   0.997        C  276 0.965
   287  H   0.998        C  277 0.969
   288  H   0.876        O  279 0.854
   289  N   2.995        C  290 1.020    H  298 0.955    H  371 0.954
   290  C   3.987        N  289 1.020    C  293 0.979    C  291 0.954    H  299 0.938
   291  C   3.948        O  292 1.632    N  306 1.294    C  290 0.954
   292  O   1.964        C  291 1.632    N  306 0.194
   293  C   3.991        C  294 0.989    C  290 0.979    H  301 0.974    H  300 0.957
   294  C   3.995        C  293 0.989    H  302 0.969    C  295 0.968    H  303 0.963
   295  C   3.940        O  296 1.635    N  297 1.308    C  294 0.968
   296  O   1.931        C  295 1.635    N  297 0.198
   297  N   3.397        C  295 1.308    H  305 0.934    H  304 0.911    O  296 0.198
   298  H   0.975        N  289 0.955
   299  H   0.995        C  290 0.938
   300  H   0.996        C  293 0.957
   301  H   0.998        C  293 0.974
   302  H   0.996        C  294 0.969
   303  H   0.997        C  294 0.963
   304  H   0.948        N  297 0.911
   305  H   0.956        N  297 0.934
   306  N   3.468        C  291 1.294    C  307 0.994    H  314 0.905    O  292 0.194
   307  C   3.970        N  306 0.994    C  310 0.960    C  308 0.947    H  315 0.931
   308  C   3.951        O  309 1.653    N  320 1.277    C  307 0.947
   309  O   1.976        C  308 1.653    N  320 0.198
   310  C   3.988        H  317 0.972    C  307 0.960    C  311 0.960    H  316 0.956
   311  C   3.956        O  312 1.646    N  313 1.325    C  310 0.960
   312  O   1.957        C  311 1.646    N  313 0.209
   313  N   3.408        C  311 1.325    H  318 0.917    H  319 0.911    O  312 0.209
   314  H   0.953        N  306 0.905
   315  H   0.991        C  307 0.931
   316  H   0.993        C  310 0.956
   317  H   0.997        C  310 0.972
   318  H   0.938        N  313 0.917
   319  H   0.946        N  313 0.911
   320  N   3.462        C  308 1.277    C  321 0.992    H  326 0.907    O  309 0.198
   321  C   3.965        N  320 0.992    C  324 0.953    H  327 0.949    C  322 0.934
   322  C   3.945        O  323 1.646    N  331 1.282    C  321 0.934
   323  O   1.962        C  322 1.646    N  331 0.193
   324  C   3.951        O  325 1.022    H  328 0.967    C  321 0.953    H  329 0.949
   325  O   1.972        C  324 1.022    H  330 0.865
   326  H   0.946        N  320 0.907
   327  H   0.994        C  321 0.949
   328  H   0.998        C  324 0.967
   329  H   0.988        C  324 0.949
   330  H   0.894        O  325 0.865
   331  N   3.467        C  322 1.282    C  332 0.985    H  338 0.915    O  323 0.193
   332  C   3.964        N  331 0.985    H  339 0.956    C  335 0.954    C  333 0.929
   333  C   3.949        O  334 1.640    N  345 1.307    C  332 0.929
   334  O   1.956        C  333 1.640    N  345 0.204
   335  C   3.959        C  337 1.001    O  336 0.993    H  340 0.959    C  332 0.954
   336  O   1.934        C  335 0.993    H  341 0.852
   337  C   3.989        C  335 1.001    H  344 0.980    H  342 0.979    H  343 0.978
   338  H   0.961        N  331 0.915
   339  H   0.994        C  332 0.956
   340  H   0.999        C  335 0.959
   341  H   0.869        O  336 0.852
   342  H   0.993        C  337 0.979
   343  H   0.998        C  337 0.978
   344  H   0.994        C  337 0.980
   345  N   3.478        C  333 1.307    C  346 0.994    H  353 0.882    O  334 0.204
   346  C   3.974        N  345 0.994    C  347 0.981    C  349 0.948    H  354 0.925
   347  C   3.903        O  348 1.890    C  346 0.981    H  372 0.952
   348  O   2.041        C  347 1.890
   349  C   3.979        H  355 0.976    H  356 0.967    C  346 0.948    C  350 0.927
   350  C   3.939        O  351 1.540    O  352 1.439    C  349 0.927
   351  O   1.853        C  350 1.540    O  352 0.212
   352  O   1.864        C  350 1.439    O  351 0.212
   353  H   0.949        N  345 0.882
   354  H   0.993        C  346 0.925
   355  H   0.997        C  349 0.976
   356  H   0.997        C  349 0.967
   357  H   0.965        N    1 0.948
   358  H   0.992        C   27 0.951
   359  H   0.965        N   36 0.951
   360  H   0.994        C   38 0.951
   361  H   0.964        N   50 0.949
   362  H   0.995        C   52 0.955
   363  H   0.965        N   72 0.947
   364  H   0.996        C   74 0.957
   365  H   0.968        N   91 0.953
   366  H   0.990        C  171 0.950
   367  H   0.969        N  186 0.956
   368  H   0.995        C  188 0.953
   369  H   0.969        N  205 0.956
   370  H   0.992        C  270 0.952
   371  H   0.968        N  289 0.954
   372  H   0.993        C  347 0.952
 
molecular dipole:
                 x           y           z       tot (Debye)
 q only:       87.125      78.582     166.384
   full:       89.010      80.889     163.716     516.359
molecular quadrupole (traceless):
                xx          xy          yy          xz          yz          zz
 q only:    -4405.255    5342.705   -5719.894   11162.584    9992.423   10125.149
  q+dip:    -4079.873    5685.949   -5428.318   11122.083   10065.376    9508.191
   full:    -4079.352    5688.492   -5427.477   11122.920   10064.931    9506.829


           -------------------------------------------------
          | TOTAL ENERGY             -569.233978808638 Eh   |
          | GRADIENT NORM               0.634740424939 Eh/α |
          | HOMO-LUMO GAP               1.459588951053 eV   |
           -------------------------------------------------

------------------------------------------------------------------------
 * finished run on 2019/05/31 at 06:33:50.116     
------------------------------------------------------------------------
 total:
 * wall-time:     0 d,  0 h,  0 min,  5.406 sec
 *  cpu-time:     0 d,  0 h,  0 min, 10.332 sec
 * ratio c/w:     1.911 speedup
 SCF:
 * wall-time:     0 d,  0 h,  0 min,  5.039 sec
 *  cpu-time:     0 d,  0 h,  0 min,  9.783 sec
 * ratio c/w:     1.941 speedup

