      -----------------------------------------------------------      
     |                   =====================                   |     
     |                           x T B                           |     
     |                   =====================                   |     
     |                         S. Grimme                         |     
     |          Mulliken Center for Theoretical Chemistry        |     
     |                    University of Bonn                     |     
     |                Version 6.1 RC1 (SAW190329)                |     
      -----------------------------------------------------------      

   This program is distributed in the hope that it will be useful,
   but WITHOUT ANY WARRANTY; without even the implied warranty of
   MERCHANTABILITY or FITNESS FOR A PARTICULAR PURPOSE.
   
   FOR NON-COMMERCIAL, ACADEMIA USE ONLY.
   
   Cite this work as:
   S. Grimme, C. Bannwarth, P. Shushkov, J. Comput. Theory Chem., 2017,
   13, 1989-2009. DOI: 10.1021/acs.jctc.7b00118
   C. Bannwarth, S. Ehlert and S. Grimme., J. Comput. Theory Chem., 2019,
   just accepted. DOI: 10.1021/acs.jctc.8b01176
   
   for sTDA-xTB:
   S. Grimme and C. Bannwarth, J. Chem. Phys., 2016, 145, 054103.
   DOI: 10.1063/1.4959605
   
   in the mass-spec context:
   V. Asgeirsson, C. Bauer and S. Grimme, Chem. Sci., 2017, 8, 4879.
   DOI: 10.1039/c7sc00601b
   
   for metadynamics refer to:
   S. Grimme, ChemRxiv, Preprint. DOI: 10.26434/chemrxiv.7660532.v1
   
   with help from (in alphabetical order)
   C. Bannwarth, F. Bohle, G. Brandenburg, E. Caldeweyher, M. Checinski,
   S. Dohm, S. Ehlert, S. Ehrlich, F. März, H. Neugebauer, J. Pisarek,
   P. Pracht, P. Shushkov, and S. Spicher.
   
 * started run on 2019/05/31 at 06:33:53.694     

           -------------------------------------------------
          |                Calculation Setup                |
           -------------------------------------------------

          program call               : /home/lum/qr/xtb-190329/bin/xtb xtb_tmp.xyz --chrg 3 --grad --gfn 2 --etemp 500 --acc 0.1 --gbsa h2o --parallel 2
          hostname                   : cu39
          coordinate file            : xtb_tmp.xyz
          omp threads                :                     2
          number of atoms            :                   437
          number of electrons        :                  1126
          charge                     :                     3
          spin                       :                   0.0
          first test random number   :      0.69628147090968


molecular fragmentation (1/2 indicates fragments):
111111111111111111111222222222222222222222222222222222222222222222222222
222222222222222222222222222222222222222222222222222222222222222222222222
222222222222222222222222222222222222222222222222222222222222222222222222
222222222222222222222222222222222222222222222222222222222222222222222222
222222222222222222222222222222222222222222222222222222222222222222222222
222222222222222222222222222222222222222222222222222222211222222222222222
22222
# atoms in fragment 1/2:    23   414
 fragment masses (1/2) :      165.19     2659.40
CMA distance (Bohr)    :  19.459
constraining FC (au)   :  0.0500

########################################################################
# WARNING! Please study the warnings concerning your input carefully
#  - XTBPATH is not set, using XTBHOME instead
#  - Process number higher than OMP_NUM_THREADS, I hope you know what you are doing.
########################################################################

           ------------------------------------------------- 
          |                 G F N 2 - x T B                 |
          | Geometry, Frequencies, Noncovalent interactions |
          |            JCTC 2018 parametrisation            |
           ------------------------------------------------- 
 
             k(s)              :                1.8500
             k(p)              :                2.2300
             k(d)              :                2.2300
             k(f)              :                2.0000
             kEN (H0ij)        :               -2.0000
             D4 a1             :                0.5200
             D4 a2             :                5.0000
             D4 s6             :                1.0000
             D4 s8             :                2.7000
             D4 s9             :                5.0000
             alphaj            :                2.0000

  Z AO/shell   Hii/eV     exponent
  1     Wed Apr 25 08:07:45 CEST 2018   EN: 2.200 GM2: 0.406  GM3: 0.0800  RAES: 1.40
     1s    -10.707211    1.230000
  6     Wed Apr 25 08:07:45 CEST 2018   EN: 2.550 GM2: 0.538  GM3: 0.1500  RAES: 3.00
     2s    -13.970922    2.096432
     2p    -10.063292    1.800000
  7     Wed Apr 25 08:07:45 CEST 2018   EN: 3.040 GM2: 0.461  GM3:-0.0640  RAES: 1.90
     2s    -16.686243    2.339881
     2p    -12.523956    2.014332
  8     Wed Apr 25 08:07:45 CEST 2018   EN: 3.440 GM2: 0.452  GM3:-0.0517  RAES: 1.80
     2s    -20.229985    2.439742
     2p    -15.503117    2.137023

 Solvent             : h2o
 Using internal parameter file: .param_gbsa2_h2o
 Gsolv ref. state (COSMO-RS): gsolv [1 M gas/solution]
 temperature (mdtemp)       :    298.150000000000     
 dielectric constant        :    80.2000000000000     
 rho                        :    1.00000000000000     
 mass                       :    18.0000000000000     
 surface tension            :    15.5689454083859     
 probe radius               :   0.975313790000000     
 vdW radii scaling          :    1.00000000000000     
 Gshift (Eh)                :   1.857443126794793E-003
 c1                         :    1.55243817000000     
 soset                      :   0.130326360000000     
 HB correction              :  T
 Number of grid points      :          230

            Z     q(EN)     CN     RAES       Cart. coordinates
     1  N   5.0   -0.69    3.00    1.93    62.43515    49.17336    48.92730
     2  C   4.0    0.07    3.98    3.59    62.06416    46.71260    50.07303
     3  C   4.0    0.08    3.00    3.02    64.13790    44.86558    49.24405
     4  O   6.0   -0.39    1.00    1.80    65.04178    43.37929    50.77721
     5  C   4.0   -0.13    3.99    3.60    59.36741    45.77658    49.65636
     6  C   4.0   -0.05    3.03    3.02    57.48406    47.45922    50.97132
     7  C   4.0   -0.11    3.03    3.02    55.47194    48.48663    49.63777
     8  C   4.0   -0.11    3.03    3.02    57.70548    48.00208    53.53486
     9  C   4.0   -0.09    3.03    3.02    53.65501    49.90948    50.85506
    10  C   4.0   -0.08    3.02    3.02    55.92028    49.44786    54.77013
    11  C   4.0    0.11    3.03    3.02    53.83849    50.35691    53.43756
    12  O   6.0   -0.48    1.99    1.83    52.04987    51.68305    54.67679
    13  H   1.0    0.27    1.00    1.43    60.89681    50.17058    48.34492
    14  H   1.0    0.13    0.99    1.43    62.40218    46.88976    52.11648
    15  H   1.0    0.11    0.99    1.43    58.93667    45.68596    47.64458
    16  H   1.0    0.10    0.99    1.43    59.26252    43.85667    50.40740
    17  H   1.0    0.11    1.00    1.43    55.31378    48.15182    47.63510
    18  H   1.0    0.11    0.99    1.43    59.29377    47.28221    54.59861
    19  H   1.0    0.12    1.00    1.43    52.07677    50.65546    49.80559
    20  H   1.0    0.12    1.00    1.43    56.13463    49.83827    56.75967
    21  H   1.0    0.27    0.99    1.43    50.62994    51.97344    53.55826
    22  N   5.0   -0.68    3.00    1.93    54.34360    26.50459    42.44662
    23  C   4.0    0.07    3.98    3.59    52.67225    26.62056    44.61361
    24  C   4.0    0.08    3.00    3.02    51.64645    23.95593    45.04745
    25  O   6.0   -0.37    1.00    1.80    50.57468    22.81563    43.33471
    26  C   4.0   -0.07    3.98    3.59    50.42626    28.40303    44.08114
    27  C   4.0   -0.16    3.98    3.59    51.33065    31.13761    43.76449
    28  C   4.0   -0.22    3.98    3.59    48.51881    28.18468    46.23350
    29  C   4.0   -0.23    3.98    3.58    49.62096    32.66996    42.02557
    30  H   1.0    0.30    1.00    1.43    53.66674    25.51010    40.96122
    31  H   1.0    0.13    0.99    1.43    53.73936    27.27686    46.25719
    32  H   1.0    0.14    0.99    1.43    49.55164    27.75719    42.31594
    33  H   1.0    0.11    0.99    1.43    51.40853    31.99672    45.63770
    34  H   1.0    0.10    0.99    1.43    53.24299    31.14165    42.99271
    35  H   1.0    0.12    0.99    1.43    47.02678    29.58088    46.03276
    36  H   1.0    0.11    0.99    1.43    47.66958    26.31094    46.25983
    37  H   1.0    0.13    0.99    1.43    49.46189    28.47835    48.03960
    38  H   1.0    0.10    0.99    1.43    50.21576    34.63665    41.97850
    39  H   1.0    0.12    0.99    1.43    49.71080    31.91597    40.11640
    40  H   1.0    0.13    0.99    1.43    47.67461    32.58295    42.66845
    41  N   5.0   -0.68    3.01    1.93    46.56790    19.56208    48.93115
    42  C   4.0    0.06    3.97    3.58    43.99390    19.44797    49.88298
    43  C   4.0    0.08    3.00    3.02    43.23358    16.65153    49.53992
    44  O   6.0   -0.35    1.00    1.80    44.71194    15.18960    48.49700
    45  C   4.0   -0.14    3.98    3.59    42.29014    21.29749    48.38476
    46  C   4.0   -0.11    3.97    3.58    41.12984    23.47817    49.91459
    47  C   4.0   -0.22    3.98    3.59    43.08165    25.17334    51.18475
    48  C   4.0   -0.21    3.99    3.60    39.51085    25.08135    48.14542
    49  H   1.0    0.33    1.00    1.43    46.98645    18.03723    47.83999
    50  H   1.0    0.12    0.99    1.43    43.98111    19.93127    51.89828
    51  H   1.0    0.12    0.99    1.43    43.44210    22.09423    46.87268
    52  H   1.0    0.12    0.99    1.43    40.77305    20.24933    47.45822
    53  H   1.0    0.12    0.99    1.43    39.90829    22.68839    51.39304
    54  H   1.0    0.10    0.99    1.43    42.12499    26.44989    52.47646
    55  H   1.0    0.11    0.99    1.43    44.47468    24.10726    52.24648
    56  H   1.0    0.10    0.99    1.43    44.11441    26.29082    49.79794
    57  H   1.0    0.11    0.99    1.43    38.45142    26.47522    49.21466
    58  H   1.0    0.11    0.99    1.43    40.69904    26.07465    46.79377
    59  H   1.0    0.12    0.99    1.43    38.19797    23.90389    47.10111
    60  N   5.0   -0.70    3.00    1.93    53.21785    51.76945    39.57000
    61  C   4.0    0.06    3.98    3.59    50.81086    51.82736    40.87359
    62  C   4.0    0.08    3.00    3.02    48.68459    50.88485    39.16811
    63  O   6.0   -0.41    1.00    1.80    47.15983    49.30252    39.87882
    64  C   4.0   -0.15    3.98    3.59    50.25599    54.50148    41.83339
    65  C   4.0   -0.14    3.98    3.58    47.90437    54.56038    43.51530
    66  C   4.0   -0.04    3.98    3.59    48.43195    53.51627    46.17477
    67  N   5.0   -0.47    3.02    1.93    46.65167    51.54240    46.84551
    68  C   4.0    0.37    3.00    3.02    45.82001    50.96110    49.14093
    69  N   5.0   -0.65    3.01    1.93    46.50714    52.29355    51.18432
    70  N   5.0   -0.64    3.02    1.93    44.31733    48.97111    49.40076
    71  H   1.0    0.28    1.00    1.43    53.66973    53.32786    38.56069
    72  H   1.0    0.12    0.99    1.43    50.95589    50.47472    42.43393
    73  H   1.0    0.11    0.99    1.43    51.88336    55.19730    42.89167
    74  H   1.0    0.12    0.99    1.43    49.99812    55.74595    40.21092
    75  H   1.0    0.12    0.99    1.43    47.26582    56.50904    43.64237
    76  H   1.0    0.14    0.99    1.43    46.41807    53.46211    42.60388
    77  H   1.0    0.11    0.99    1.43    50.35327    52.75651    46.22704
    78  H   1.0    0.12    0.99    1.43    48.32423    55.07497    47.51615
    79  H   1.0    0.24    1.00    1.43    46.10872    50.35931    45.42687
    80  H   1.0    0.26    1.00    1.43    47.28185    54.01741    50.93434
    81  H   1.0    0.27    1.00    1.43    45.57736    51.97402    52.81999
    82  H   1.0    0.26    1.00    1.43    43.81057    47.97841    47.84746
    83  H   1.0    0.27    1.00    1.43    43.65280    48.41455    51.09366
    84  N   5.0   -0.68    3.00    1.93    49.08443    43.54862    38.01913
    85  C   4.0    0.08    3.98    3.59    48.27941    42.16409    40.24838
    86  C   4.0    0.10    3.00    3.02    45.39121    42.19840    40.35625
    87  O   6.0   -0.46    1.00    1.80    44.14097    40.25507    40.53091
    88  C   4.0   -0.09    3.98    3.58    49.47662    43.26245    42.65213
    89  C   4.0   -0.22    3.98    3.59    48.02160    42.39472    44.99027
    90  C   4.0   -0.23    3.98    3.59    52.24765    42.47392    42.82268
    91  H   1.0    0.28    1.00    1.43    50.25642    45.04721    38.23867
    92  H   1.0    0.12    0.99    1.43    48.81462    40.17501    40.00790
    93  H   1.0    0.13    0.99    1.43    49.36817    45.31960    42.50294
    94  H   1.0    0.11    0.99    1.43    49.04139    42.94136    46.68273
    95  H   1.0    0.11    0.99    1.43    46.14770    43.23020    45.02967
    96  H   1.0    0.10    0.99    1.43    47.81695    40.35080    44.97011
    97  H   1.0    0.10    0.99    1.43    53.07419    43.21466    44.54956
    98  H   1.0    0.10    0.99    1.43    52.40421    40.42471    42.83857
    99  H   1.0    0.11    0.99    1.43    53.29940    43.21079    41.22129
   100  N   5.0   -0.69    3.00    1.93    40.39327    36.28173    39.84636
   101  C   4.0    0.07    3.98    3.58    38.66370    35.91125    41.95158
   102  C   4.0    0.09    3.00    3.02    35.93225    35.97312    40.99704
   103  O   6.0   -0.37    1.00    1.80    34.37216    34.36986    41.61862
   104  C   4.0   -0.13    3.99    3.60    39.22499    37.90618    43.96888
   105  C   4.0   -0.10    3.97    3.58    37.58364    37.72875    46.36066
   106  C   4.0   -0.22    3.98    3.59    39.04609    38.77030    48.62671
   107  C   4.0   -0.20    3.98    3.59    35.09791    39.16979    46.05544
   108  H   1.0    0.32    1.00    1.43    41.70347    37.67525    39.99061
   109  H   1.0    0.13    0.99    1.43    38.95742    34.01403    42.74110
   110  H   1.0    0.13    0.99    1.43    41.20522    37.63768    44.48071
   111  H   1.0    0.13    0.99    1.43    39.02560    39.77131    43.11035
   112  H   1.0    0.12    0.99    1.43    37.15270    35.73417    46.71340
   113  H   1.0    0.11    0.99    1.43    37.88613    38.68535    50.31951
   114  H   1.0    0.11    0.99    1.43    40.74751    37.66813    48.95764
   115  H   1.0    0.11    0.99    1.43    39.57576    40.72507    48.28553
   116  H   1.0    0.12    0.99    1.43    34.03038    39.14110    47.81171
   117  H   1.0    0.12    0.99    1.43    35.45946    41.12608    45.53661
   118  H   1.0    0.14    0.99    1.43    33.93337    38.32370    44.59222
   119  N   5.0   -0.67    3.00    1.93    40.97537    18.39121    65.35023
   120  C   4.0    0.07    3.98    3.59    41.65080    20.40909    67.07318
   121  C   4.0    0.28    3.01    3.02    43.28131    19.37603    69.24098
   122  O   6.0   -0.34    1.00    1.80    43.19942    17.16964    69.91988
   123  C   4.0   -0.18    3.99    3.60    39.26999    21.58059    68.18368
   124  H   1.0    0.28    1.00    1.43    39.17212    17.73346    65.38972
   125  H   1.0    0.12    0.99    1.43    42.74881    21.83330    66.05058
   126  H   1.0    0.15    0.99    1.43    39.75216    23.09451    69.48253
   127  H   1.0    0.11    0.99    1.43    38.09302    22.34411    66.68860
   128  H   1.0    0.15    0.99    1.43    38.20923    20.16135    69.22286
   129  N   5.0   -0.49    3.01    1.93    44.76484    21.13753    70.29376
   130  C   4.0    0.07    3.99    3.60    46.32485    20.66688    72.48932
   131  C   4.0    0.08    3.00    3.02    45.31344    22.30910    74.63935
   132  O   6.0   -0.45    1.00    1.80    44.95201    24.57064    74.36094
   133  C   4.0   -0.14    3.98    3.59    49.11019    21.33614    72.03815
   134  C   4.0   -0.14    3.98    3.59    50.35461    19.55185    70.14207
   135  C   4.0   -0.02    3.99    3.60    49.54483    20.08993    67.41120
   136  N   5.0   -0.48    3.02    1.93    51.71315    20.70685    65.84464
   137  C   4.0    0.38    3.01    3.02    51.67269    20.80398    63.33595
   138  N   5.0   -0.62    3.01    1.93    49.64521    20.10265    62.04032
   139  N   5.0   -0.64    3.02    1.93    53.72345    21.62383    62.11647
   140  H   1.0    0.29    1.00    1.43    44.66551    22.96176    69.69824
   141  H   1.0    0.15    0.99    1.43    46.13640    18.65750    72.93954
   142  H   1.0    0.12    0.99    1.43    49.22420    23.28428    71.37460
   143  H   1.0    0.11    0.99    1.43    50.08561    21.21961    73.85193
   144  H   1.0    0.12    0.99    1.43    52.39796    19.73087    70.32115
   145  H   1.0    0.13    0.99    1.43    49.87447    17.61482    70.64880
   146  H   1.0    0.14    0.99    1.43    48.57906    18.44264    66.63123
   147  H   1.0    0.14    0.99    1.43    48.21965    21.67735    67.37399
   148  H   1.0    0.24    1.00    1.43    53.25781    21.36576    66.75545
   149  H   1.0    0.27    1.00    1.43    48.07118    19.42066    62.88746
   150  H   1.0    0.28    1.00    1.43    49.63180    20.23087    60.14409
   151  H   1.0    0.27    1.00    1.43    55.28065    22.18699    63.05270
   152  H   1.0    0.28    1.00    1.43    53.84306    21.52023    60.22284
   153  N   5.0   -0.68    3.00    1.93    43.62586    33.21131    84.08977
   154  C   4.0    0.07    3.98    3.59    44.59648    33.67730    81.57338
   155  C   4.0    0.27    3.01    3.02    43.94960    31.49788    79.79544
   156  O   6.0   -0.39    1.00    1.80    44.12353    29.28181    80.41934
   157  C   4.0   -0.15    3.98    3.59    47.50384    33.89165    81.64073
   158  C   4.0   -0.16    3.98    3.58    48.67426    34.18983    79.00492
   159  C   4.0   -0.16    3.98    3.58    51.15315    35.68555    79.02507
   160  C   4.0   -0.05    3.98    3.58    53.09080    34.69586    80.92574
   161  N   5.0   -0.72    3.98    2.81    54.91300    36.73784    81.57054
   162  H   1.0    0.30    1.00    1.43    43.83508    31.41475    84.73171
   163  H   1.0    0.12    0.99    1.43    43.76410    35.43929    80.88952
   164  H   1.0    0.11    0.99    1.43    47.96881    35.49942    82.84416
   165  H   1.0    0.13    0.99    1.43    48.20077    32.18077    82.55530
   166  H   1.0    0.12    0.99    1.43    48.98423    32.32683    78.18080
   167  H   1.0    0.12    0.99    1.43    47.35267    35.20311    77.78995
   168  H   1.0    0.10    0.99    1.43    51.94136    35.65871    77.12329
   169  H   1.0    0.11    0.99    1.43    50.72534    37.64140    79.49979
   170  H   1.0    0.12    0.99    1.43    52.14826    34.13286    82.66687
   171  H   1.0    0.12    0.99    1.43    54.11162    33.07566    80.16681
   172  H   1.0    0.26    1.00    1.43    56.08279    36.20113    83.02146
   173  H   1.0    0.25    1.00    1.43    56.00016    37.22456    80.03705
   174  H   1.0    0.24    0.99    1.43    53.90757    38.35286    82.19165
   175  N   5.0   -0.49    3.01    1.93    43.33881    32.22812    77.44335
   176  C   4.0    0.08    4.00    3.62    43.35533    30.45223    75.36894
   177  C   4.0    0.25    3.00    3.02    44.75932    31.51029    73.07349
   178  O   6.0   -0.46    1.00    1.80    44.92648    33.77156    72.62989
   179  C   4.0   -0.13    3.98    3.59    40.66928    29.66962    74.53870
   180  C   4.0   -0.09    3.99    3.60    39.89824    27.27172    75.95223
   181  C   4.0    0.29    3.00    3.02    37.55674    25.99391    74.90148
   182  O   6.0   -0.37    1.00    1.80    37.61354    23.85853    74.01217
   183  N   5.0   -0.63    3.00    1.93    35.43387    27.36282    75.05403
   184  H   1.0    0.24    1.00    1.43    43.12811    34.09021    77.02174
   185  H   1.0    0.16    0.99    1.43    44.36645    28.77192    76.02667
   186  H   1.0    0.12    0.99    1.43    39.39227    31.23914    74.91265
   187  H   1.0    0.13    0.99    1.43    40.66266    29.26909    72.51734
   188  H   1.0    0.16    0.99    1.43    41.43155    25.92314    75.71765
   189  H   1.0    0.15    0.99    1.43    39.66707    27.68175    77.95965
   190  H   1.0    0.27    1.00    1.43    35.42676    29.06866    75.89107
   191  H   1.0    0.31    1.00    1.43    33.82918    26.66178    74.30700
   192  N   5.0   -0.50    3.01    1.93    45.69750    29.66391    71.63153
   193  C   4.0    0.07    3.99    3.60    46.95692    29.91753    69.21603
   194  C   4.0    0.27    3.01    3.02    45.59119    28.20469    67.31905
   195  O   6.0   -0.46    1.00    1.80    44.88394    26.08124    67.90543
   196  C   4.0   -0.08    3.98    3.58    49.76289    29.08947    69.50750
   197  C   4.0   -0.16    3.98    3.59    51.28118    31.29297    70.62626
   198  C   4.0   -0.21    3.98    3.59    50.86135    28.13876    67.01411
   199  C   4.0   -0.23    3.98    3.58    53.82713    30.50048    71.72423
   200  H   1.0    0.28    1.00    1.43    45.39035    27.84897    72.17378
   201  H   1.0    0.13    0.99    1.43    46.85400    31.89281    68.61741
   202  H   1.0    0.12    0.99    1.43    49.78671    27.52811    70.86788
   203  H   1.0    0.11    0.99    1.43    51.56752    32.72365    69.16848
   204  H   1.0    0.12    0.99    1.43    50.15129    32.14654    72.12514
   205  H   1.0    0.10    0.99    1.43    52.85895    27.73870    67.24281
   206  H   1.0    0.14    0.99    1.43    49.91288    26.41665    66.42183
   207  H   1.0    0.12    0.99    1.43    50.63384    29.53544    65.52553
   208  H   1.0    0.10    0.99    1.43    54.74258    32.11674    72.60338
   209  H   1.0    0.11    0.99    1.43    53.57393    29.03040    73.13869
   210  H   1.0    0.11    0.99    1.43    55.07733    29.79559    70.25750
   211  N   5.0   -0.50    3.00    1.93    45.37081    29.16291    64.98770
   212  C   4.0    0.08    3.99    3.61    44.18257    27.79339    62.94342
   213  C   4.0    0.26    3.00    3.02    45.81892    27.59265    60.55078
   214  O   6.0   -0.41    1.00    1.80    46.40838    25.57153    59.61991
   215  C   4.0   -0.13    3.99    3.61    41.66185    29.02410    62.11734
   216  C   4.0   -0.02    3.03    3.02    39.86239    29.20072    64.29245
   217  C   4.0   -0.08    3.04    3.02    40.12205    31.18583    65.98181
   218  C   4.0   -0.10    3.03    3.02    37.98446    27.42044    64.70434
   219  C   4.0   -0.09    3.03    3.02    38.54588    31.39911    68.04380
   220  C   4.0   -0.07    3.03    3.02    36.36125    27.63717    66.73557
   221  C   4.0    0.11    3.03    3.02    36.63465    29.63804    68.41055
   222  O   6.0   -0.44    1.99    1.83    34.99621    29.85756    70.37640
   223  H   1.0    0.27    1.00    1.43    45.85568    30.99240    64.68643
   224  H   1.0    0.14    0.99    1.43    43.81110    25.88803    63.65619
   225  H   1.0    0.11    0.99    1.43    42.04240    30.92446    61.41608
   226  H   1.0    0.10    0.99    1.43    40.85582    27.90970    60.58326
   227  H   1.0    0.13    1.00    1.43    41.57112    32.58147    65.66253
   228  H   1.0    0.11    1.00    1.43    37.77639    25.86239    63.40788
   229  H   1.0    0.11    0.99    1.43    38.79460    32.94702    69.35305
   230  H   1.0    0.13    1.00    1.43    34.88444    26.27191    67.05894
   231  H   1.0    0.25    0.99    1.43    35.57857    31.20399    71.46913
   232  N   5.0   -0.48    3.01    1.93    46.32482    29.83896    59.48246
   233  C   4.0    0.07    3.99    3.60    47.01845    30.22530    56.84575
   234  C   4.0    0.29    3.01    3.02    49.85876    30.76098    56.73004
   235  O   6.0   -0.46    1.00    1.80    50.69151    32.64062    57.78817
   236  C   4.0   -0.13    3.99    3.60    45.52222    32.55141    55.92763
   237  C   4.0   -0.04    3.02    3.02    45.53752    33.04854    53.12874
   238  C   4.0   -0.09    3.03    3.02    47.32688    34.61032    52.01547
   239  C   4.0   -0.12    3.04    3.02    43.61211    32.08423    51.62479
   240  C   4.0   -0.11    3.03    3.02    47.16688    35.23146    49.48260
   241  C   4.0   -0.09    3.03    3.02    43.43551    32.67610    49.09434
   242  C   4.0    0.09    3.03    3.02    45.20460    34.29216    48.01291
   243  O   6.0   -0.50    1.99    1.83    44.91279    34.91900    45.53617
   244  H   1.0    0.25    1.00    1.43    45.97368    31.43367    60.47536
   245  H   1.0    0.12    0.99    1.43    46.50952    28.52983    55.78367
   246  H   1.0    0.10    0.99    1.43    43.56534    32.29140    56.52613
   247  H   1.0    0.12    0.99    1.43    46.30702    34.19704    56.89541
   248  H   1.0    0.13    1.00    1.43    48.83504    35.40712    53.13412
   249  H   1.0    0.10    1.00    1.43    42.19199    30.88277    52.45316
   250  H   1.0    0.10    1.00    1.43    48.53889    36.49508    48.65591
   251  H   1.0    0.12    1.00    1.43    41.90532    31.95906    47.95336
   252  H   1.0    0.24    0.99    1.43    46.24336    36.05476    45.01096
   253  N   5.0   -0.48    3.01    1.93    51.30275    29.02649    55.58157
   254  C   4.0    0.09    4.00    3.61    53.99355    29.37904    55.24938
   255  C   4.0    0.26    3.01    3.02    54.56295    29.94085    52.48267
   256  O   6.0   -0.45    1.00    1.80    53.31099    29.04070    50.75485
   257  C   4.0    0.04    3.98    3.58    55.51097    27.00423    56.05586
   258  O   6.0   -0.47    1.99    1.82    54.97910    26.39934    58.60505
   259  C   4.0   -0.18    3.98    3.59    58.34724    27.49029    55.84500
   260  H   1.0    0.25    1.00    1.43    50.50473    27.62817    54.55568
   261  H   1.0    0.16    0.99    1.43    54.55604    30.96776    56.44818
   262  H   1.0    0.12    0.99    1.43    54.98245    25.42759    54.80626
   263  H   1.0    0.28    0.99    1.43    53.36992    25.55585    58.69270
   264  H   1.0    0.14    0.99    1.43    59.35433    25.89318    56.64733
   265  H   1.0    0.13    0.99    1.43    58.89762    27.67602    53.87798
   266  H   1.0    0.14    0.99    1.43    58.85646    29.19716    56.87058
   267  N   5.0   -0.49    3.01    1.93    56.52651    31.48930    52.13539
   268  C   4.0    0.07    3.99    3.61    57.64010    31.94616    49.68296
   269  C   4.0    0.06    3.00    3.02    60.45975    31.36664    49.87572
   270  O   6.0   -0.39    1.00    1.80    61.68209    32.00631    51.73994
   271  C   4.0   -0.08    3.98    3.59    57.30944    34.71678    48.82764
   272  C   4.0   -0.23    3.98    3.59    58.10377    34.98043    46.06718
   273  C   4.0   -0.21    3.98    3.59    54.57664    35.56123    49.19306
   274  H   1.0    0.28    1.00    1.43    57.42303    32.25061    53.64823
   275  H   1.0    0.13    0.99    1.43    56.72229    30.68367    48.32756
   276  H   1.0    0.12    0.99    1.43    58.53233    35.89094    50.01658
   277  H   1.0    0.10    0.99    1.43    57.87600    36.92581    45.45638
   278  H   1.0    0.12    0.99    1.43    60.07184    34.44917    45.80306
   279  H   1.0    0.10    0.99    1.43    56.94401    33.76622    44.88166
   280  H   1.0    0.09    0.99    1.43    54.37927    37.52566    48.63346
   281  H   1.0    0.10    0.99    1.43    53.32131    34.40004    48.05563
   282  H   1.0    0.13    0.99    1.43    54.01477    35.37512    51.16068
   283  N   5.0   -0.68    3.00    1.93    62.33596    36.18578    56.84244
   284  C   4.0    0.08    3.98    3.59    60.53736    37.60036    58.35540
   285  C   4.0    0.27    3.01    3.02    58.20778    35.93303    58.75140
   286  O   6.0   -0.45    1.00    1.80    57.65523    34.26002    57.24017
   287  C   4.0   -0.09    3.98    3.58    59.87776    40.11223    56.98552
   288  C   4.0   -0.21    3.98    3.59    58.61864    39.62401    54.43778
   289  C   4.0   -0.23    3.98    3.59    58.25920    41.85799    58.60675
   290  H   1.0    0.31    1.00    1.43    61.55534    34.90715    55.64870
   291  H   1.0    0.12    0.99    1.43    61.39525    38.07144    60.17707
   292  H   1.0    0.12    0.99    1.43    61.69884    41.04030    56.65104
   293  H   1.0    0.10    0.99    1.43    58.18381    41.41475    53.52934
   294  H   1.0    0.12    0.99    1.43    59.87468    38.55401    53.21229
   295  H   1.0    0.12    0.99    1.43    56.86979    38.57130    54.67595
   296  H   1.0    0.10    0.99    1.43    58.19443    43.72111    57.74277
   297  H   1.0    0.11    0.99    1.43    56.34333    41.13804    58.77986
   298  H   1.0    0.11    0.99    1.43    59.06053    42.05252    60.48335
   299  N   5.0   -0.49    3.01    1.93    56.85477    36.45551    60.81932
   300  C   4.0    0.08    3.99    3.61    54.53891    35.14291    61.46197
   301  C   4.0    0.26    3.01    3.02    52.67109    37.05019    62.55982
   302  O   6.0   -0.48    1.00    1.80    53.41568    38.75019    63.96504
   303  C   4.0   -0.19    3.98    3.59    55.01199    33.00511    63.35826
   304  H   1.0    0.24    1.00    1.43    57.47017    37.81769    62.01306
   305  H   1.0    0.16    0.99    1.43    53.77671    34.33870    59.72038
   306  H   1.0    0.11    0.99    1.43    53.22064    32.21489    63.97050
   307  H   1.0    0.13    0.99    1.43    56.10810    31.51624    62.46064
   308  H   1.0    0.12    0.99    1.43    56.03295    33.69706    65.00324
   309  N   5.0   -0.49    3.01    1.93    50.26851    36.73242    61.86005
   310  C   4.0    0.07    3.99    3.60    48.23145    38.38318    62.65202
   311  C   4.0    0.26    3.01    3.02    46.44598    36.94837    64.43948
   312  O   6.0   -0.47    1.00    1.80    46.11846    34.66194    64.24376
   313  C   4.0   -0.12    3.99    3.61    46.62865    39.30811    60.42097
   314  C   4.0   -0.02    3.02    3.02    47.88678    40.91692    58.42986
   315  C   4.0   -0.09    3.03    3.02    50.44167    41.47632    58.31939
   316  C   4.0   -0.10    3.04    3.02    46.32370    41.84329    56.52194
   317  C   4.0   -0.11    3.03    3.02    51.41627    42.92536    56.36517
   318  C   4.0   -0.08    3.03    3.02    47.27240    43.26090    54.55872
   319  C   4.0    0.10    3.03    3.02    49.84284    43.81791    54.46745
   320  O   6.0   -0.47    1.99    1.83    50.69623    45.24453    52.51792
   321  H   1.0    0.27    1.00    1.43    49.85698    35.28763    60.66752
   322  H   1.0    0.15    0.99    1.43    49.06777    39.98421    63.65581
   323  H   1.0    0.11    0.99    1.43    45.83782    37.64782    59.47541
   324  H   1.0    0.12    0.99    1.43    45.04253    40.38021    61.20452
   325  H   1.0    0.14    1.00    1.43    51.73398    40.78886    59.73569
   326  H   1.0    0.12    1.00    1.43    44.32693    41.43379    56.59219
   327  H   1.0    0.10    0.99    1.43    53.41500    43.34366    56.30703
   328  H   1.0    0.13    1.00    1.43    46.06367    43.92582    53.06354
   329  H   1.0    0.26    0.99    1.43    52.49921    45.50636    52.64356
   330  N   5.0   -0.50    3.00    1.93    45.27772    38.38485    66.15512
   331  C   4.0    0.01    3.99    3.60    43.60154    37.34693    68.05341
   332  C   4.0    0.05    3.00    3.02    42.29090    39.41639    69.56569
   333  O   6.0   -0.43    1.00    1.80    41.63878    41.40717    68.58218
   334  H   1.0    0.27    1.00    1.43    45.61051    40.26920    66.20608
   335  H   1.0    0.12    0.99    1.43    42.11251    36.23962    67.12714
   336  H   1.0    0.14    0.99    1.43    44.65420    36.09447    69.31886
   337  N   5.0   -0.68    3.00    1.93    27.97663    26.80621    60.79074
   338  C   4.0    0.07    3.98    3.58    29.68016    28.75980    59.88952
   339  C   4.0    0.10    3.00    3.02    29.74830    28.80233    56.97179
   340  O   6.0   -0.40    1.00    1.80    31.54492    28.03299    55.75647
   341  C   4.0   -0.11    3.99    3.60    32.32240    28.29616    60.98166
   342  C   4.0   -0.03    3.03    3.02    33.77083    30.70364    61.37485
   343  C   4.0   -0.08    3.04    3.02    33.19375    32.25399    63.41129
   344  C   4.0   -0.08    3.03    3.02    35.69788    31.39963    59.74532
   345  C   4.0   -0.08    3.03    3.02    34.55044    34.44020    63.83377
   346  C   4.0   -0.10    3.03    3.02    37.06583    33.58589    60.17216
   347  C   4.0   -0.10    3.03    3.02    36.51070    35.08961    62.23321
   348  H   1.0    0.28    1.00    1.43    28.77603    25.13497    61.25551
   349  H   1.0    0.12    0.99    1.43    28.92767    30.58971    60.50933
   350  H   1.0    0.11    0.99    1.43    32.12458    27.33349    62.79472
   351  H   1.0    0.14    0.99    1.43    33.34414    27.08072    59.66798
   352  H   1.0    0.13    1.00    1.43    31.66886    31.72541    64.65772
   353  H   1.0    0.12    1.00    1.43    36.11019    30.23533    58.12264
   354  H   1.0    0.13    1.00    1.43    34.09329    35.67036    65.39109
   355  H   1.0    0.10    1.00    1.43    38.56487    34.10919    58.89015
   356  H   1.0    0.11    1.00    1.43    37.57237    36.78828    62.59247
   357  N   5.0   -0.69    3.00    1.93    37.01284    41.85259    60.82905
   358  C   4.0    0.02    3.98    3.59    39.27469    41.65879    62.34196
   359  C   4.0    0.27    3.01    3.02    41.01007    43.90736    61.80062
   360  O   6.0   -0.41    1.00    1.80    40.83703    45.11297    59.83782
   361  H   1.0    0.29    1.00    1.43    37.27943    42.59665    59.08759
   362  H   1.0    0.14    0.99    1.43    38.73984    41.61175    64.33582
   363  H   1.0    0.09    0.99    1.43    40.30388    39.91941    61.87208
   364  N   5.0   -0.49    3.01    1.93    42.74255    44.32922    63.58593
   365  C   4.0    0.07    3.99    3.60    44.33730    46.57464    63.58550
   366  C   4.0    0.26    3.02    3.02    47.04796    45.65555    63.94710
   367  O   6.0   -0.44    1.00    1.80    47.48095    43.84092    65.33858
   368  C   4.0   -0.12    3.98    3.59    43.41736    48.28148    65.77301
   369  C   4.0   -0.10    3.97    3.58    43.57699    51.16767    65.46001
   370  C   4.0   -0.20    3.98    3.59    46.15185    52.25888    66.17062
   371  C   4.0   -0.21    3.98    3.59    42.73330    52.04806    62.83741
   372  H   1.0    0.28    1.00    1.43    42.61959    43.39321    65.25903
   373  H   1.0    0.13    0.99    1.43    44.07498    47.48245    61.75141
   374  H   1.0    0.13    0.99    1.43    41.41175    47.84074    66.02708
   375  H   1.0    0.13    0.99    1.43    44.37433    47.70454    67.51087
   376  H   1.0    0.12    0.99    1.43    42.20084    51.91330    66.82051
   377  H   1.0    0.12    0.99    1.43    46.13098    54.29919    65.92710
   378  H   1.0    0.13    0.99    1.43    46.60006    51.83906    68.13197
   379  H   1.0    0.13    0.99    1.43    47.65579    51.48078    65.01696
   380  H   1.0    0.12    0.99    1.43    42.20583    54.03256    62.90240
   381  H   1.0    0.10    0.99    1.43    44.22889    51.83802    61.44544
   382  H   1.0    0.13    0.99    1.43    41.09279    50.97490    62.21581
   383  N   5.0   -0.34    3.03    1.93    48.92492    46.81236    62.71843
   384  C   4.0    0.07    4.04    3.69    51.51428    46.01955    63.21198
   385  C   4.0    0.29    3.00    3.02    52.00315    45.74975    66.04269
   386  O   6.0   -0.38    1.00    1.80    51.70111    47.50244    67.51625
   387  C   4.0   -0.13    4.01    3.64    53.08515    48.10858    61.98868
   388  C   4.0   -0.14    4.02    3.65    51.50676    48.74504    59.66219
   389  C   4.0   -0.05    4.01    3.64    48.79125    48.60311    60.63801
   390  H   1.0    0.11    0.99    1.43    51.85979    44.19124    62.30253
   391  H   1.0    0.14    0.99    1.43    53.20634    49.71004    63.28295
   392  H   1.0    0.10    0.99    1.43    54.98720    47.46384    61.54879
   393  H   1.0    0.13    0.99    1.43    51.95620    50.58469    58.87795
   394  H   1.0    0.12    0.99    1.43    51.80508    47.29620    58.23275
   395  H   1.0    0.10    0.99    1.43    48.16250    50.44578    61.31745
   396  H   1.0    0.12    0.99    1.43    47.49934    47.89435    59.19728
   397  N   5.0   -0.49    3.01    1.93    52.93340    43.48420    66.69542
   398  C   4.0    0.08    3.99    3.60    53.71281    42.81101    69.22929
   399  C   4.0    0.07    3.00    3.02    56.60426    42.65204    69.33829
   400  O   6.0   -0.36    1.00    1.80    57.86628    44.09287    70.62627
   401  C   4.0   -0.09    3.98    3.58    52.53224    40.28529    70.07621
   402  C   4.0   -0.14    3.98    3.58    49.64318    40.46824    70.29500
   403  C   4.0   -0.22    3.98    3.59    53.74128    39.36815    72.53221
   404  C   4.0   -0.21    3.98    3.58    48.67614    42.11181    72.45464
   405  H   1.0    0.27    1.00    1.43    52.98987    42.06710    65.40855
   406  H   1.0    0.16    0.99    1.43    53.13908    44.36261    70.47348
   407  H   1.0    0.13    0.99    1.43    52.92775    38.90602    68.58289
   408  H   1.0    0.16    0.99    1.43    48.91617    41.24260    68.53203
   409  H   1.0    0.12    0.99    1.43    48.90773    38.55089    70.51344
   410  H   1.0    0.09    0.99    1.43    52.84133    37.61529    73.10537
   411  H   1.0    0.12    0.99    1.43    55.74879    39.02455    72.27390
   412  H   1.0    0.12    0.99    1.43    53.51847    40.77833    74.00334
   413  H   1.0    0.12    0.99    1.43    46.62115    42.12928    72.42341
   414  H   1.0    0.11    0.99    1.43    49.31176    41.39918    74.26989
   415  H   1.0    0.13    0.99    1.43    49.30916    44.05123    72.20960
   416  H   1.0    0.32    1.00    1.43    63.21717    50.20228    50.03288
   417  H   1.0    0.16    1.00    1.43    64.75123    44.87385    47.45665
   418  H   1.0    0.29    1.00    1.43    54.65016    28.07904    41.88120
   419  H   1.0    0.14    1.00    1.43    51.84615    23.12977    46.73525
   420  H   1.0    0.30    1.00    1.43    46.76348    20.96511    47.98997
   421  H   1.0    0.14    1.00    1.43    41.55537    16.04547    50.16230
   422  H   1.0    0.30    1.00    1.43    54.47132    51.56474    40.70114
   423  H   1.0    0.16    1.00    1.43    48.50946    51.56393    37.41334
   424  H   1.0    0.31    1.00    1.43    49.91843    42.50097    36.97059
   425  H   1.0    0.16    1.00    1.43    44.46247    43.84258    40.28422
   426  H   1.0    0.32    1.00    1.43    41.28936    34.85898    39.59068
   427  H   1.0    0.16    1.00    1.43    35.37013    37.34899    39.82996
   428  H   1.0    0.30    1.00    1.43    41.22006    18.90693    63.74813
   429  H   1.0    0.15    1.00    1.43    44.93218    21.53502    76.32057
   430  H   1.0    0.31    1.00    1.43    44.42788    34.21655    85.20279
   431  H   1.0    0.14    1.00    1.43    61.33500    30.45416    48.47131
   432  H   1.0    0.31    1.00    1.43    63.24043    37.26046    55.88351
   433  H   1.0    0.13    1.00    1.43    41.94424    39.16610    71.40641
   434  H   1.0    0.31    1.00    1.43    27.18084    27.34923    62.19231
   435  H   1.0    0.15    1.00    1.43    28.27565    29.48204    56.00209
   436  H   1.0    0.29    1.00    1.43    36.34502    40.30451    60.60545
   437  H   1.0    0.14    1.00    1.43    57.51679    41.33700    68.33380

           ------------------------------------------------- 
          |        Self-Consistent Charge Iterations        |
           ------------------------------------------------- 

          ...................................................
          :                      SETUP                      :
          :.................................................:
          :  # basis functions                1037          :
          :  # atomic orbitals                1037          :
          :  # shells                          637          :
          :  # electrons                      1126          :
          :  max. iterations                   250          :
          :  Hamiltonian                  GFN2-xTB          :
          :  restarted?                      false          :
          :  GBSA solvation                   true          :
          :  PC potential                    false          :
          :  electronic temp.          500.0000000     K    :
          :  accuracy                    0.1000000          :
          :  -> integral cutoff          0.3500000E+02      :
          :  -> integral neglect         0.1000000E-08      :
          :  -> SCF convergence          0.1000000E-06 Eh   :
          :  -> wf. convergence          0.1000000E-04 e    :
          :  Broyden damping             0.4000000          :
          ...................................................

 iter      E             dE          RMSdq      gap      omega  full diag
   1   -637.9248515 -0.637925E+03  0.401E+00    2.09       0.0  T
   2   -639.2657712 -0.134092E+01  0.209E+00    1.65       1.0  T
   3   -639.3171135 -0.513423E-01  0.113E+00    1.85       1.0  T
   4   -639.3558905 -0.387769E-01  0.259E-01    1.30       1.0  T
   5   -639.3707625 -0.148721E-01  0.965E-02    1.40       1.0  T
   6   -639.3712911 -0.528516E-03  0.458E-02    1.41       1.0  T
   7   -639.3714097 -0.118666E-03  0.224E-02    1.41       1.0  T
   8   -639.3714706 -0.609217E-04  0.785E-03    1.42       1.0  T
   9   -639.3714759 -0.522714E-05  0.391E-03    1.42       1.2  T
  10   -639.3714770 -0.112156E-05  0.176E-03    1.42       2.7  T
  11   -639.3714772 -0.232299E-06  0.686E-04    1.42       7.0  T
  12   -639.3714773 -0.627421E-07  0.356E-04    1.42      13.4  T
  13   -639.3714773 -0.145349E-07  0.186E-04    1.42      25.7  T
  14   -639.3714773 -0.377258E-08  0.818E-05    1.42      58.5  T
  15   -639.3714773 -0.920863E-09  0.376E-05    1.42     127.2  T

   *** convergence criteria satisfied after 15 iterations ***

         #    Occupation            Energy/Eh            Energy/eV
      -------------------------------------------------------------
         1        2.0000           -0.7449483             -20.2711
       ...           ...                  ...                  ...
       557        2.0000           -0.3667345              -9.9794
       558        2.0000           -0.3663783              -9.9697
       559        2.0000           -0.3655120              -9.9461
       560        2.0000           -0.3644153              -9.9162
       561        2.0000           -0.3598475              -9.7919
       562        2.0000           -0.3577193              -9.7340
       563        2.0000           -0.3539087              -9.6303 (HOMO)
       564        0.0000           -0.3017014              -8.2097 (LUMO)
       565                         -0.2970613              -8.0834
       566                         -0.2962737              -8.0620
       567                         -0.2897270              -7.8839
       568                         -0.2882412              -7.8434
       ...                                ...                  ...
      1037                          0.6719329              18.2842
      -------------------------------------------------------------
                  HL-Gap            0.0522074 Eh            1.4206 eV
             Fermi-level           -0.3277839 Eh           -8.9195 eV

 SCC (total)                   0 d,  0 h,  0 min, 10.746 sec
 SCC setup                      ...        0 min,  0.277 sec (  2.581%)
 Dispersion                     ...        0 min,  0.178 sec (  1.658%)
 integral evaluation            ...        0 min,  0.713 sec (  6.634%)
 zeroth order Hamiltonian       ...        0 min,  0.019 sec (  0.174%)
 iterations                     ...        0 min,  8.354 sec ( 77.746%)
 molecular gradient             ...        0 min,  1.136 sec ( 10.569%)
 printout                       ...        0 min,  0.068 sec (  0.636%)

         :::::::::::::::::::::::::::::::::::::::::::::::::::::
         ::                     SUMMARY                     ::
         :::::::::::::::::::::::::::::::::::::::::::::::::::::
         :: total energy             -630.861164344851 Eh   ::
         :: total w/o Gsasa/hb       -630.779052650611 Eh   ::
         :: gradient norm               0.735527709337 Eh/α ::
         :: HOMO-LUMO gap               1.420634385262 eV   ::
         ::.................................................::
         :: SCC energy               -639.398725767329 Eh   ::
         :: -> isotropic ES             1.646392625408 Eh   ::
         :: -> anisotropic ES          -0.021353744604 Eh   ::
         :: -> anisotropic XC           0.267639148384 Eh   ::
         :: -> dispersion              -0.528222918698 Eh   ::
         :: -> Gsolv                   -0.574555864980 Eh   ::
         ::    -> Gborn                -0.492444170740 Eh   ::
         ::    -> Gsasa                -0.029105905150 Eh   ::
         ::    -> Ghb                  -0.054863232216 Eh   ::
         ::    -> Gshift                0.001857443127 Eh   ::
         :: repulsion energy            8.486316658835 Eh   ::
         :: add. restraining            0.000000000000 Eh   ::
         :::::::::::::::::::::::::::::::::::::::::::::::::::::

           -------------------------------------------------
          |                Property Printout                |
           -------------------------------------------------

    * Orbital Energies and Occupations

         #    Occupation            Energy/Eh            Energy/eV
      -------------------------------------------------------------
         1        2.0000           -0.7449483             -20.2711
       ...           ...                  ...                  ...
       551        2.0000           -0.3826445             -10.4123
       552        2.0000           -0.3819797             -10.3942
       553        2.0000           -0.3730451             -10.1511
       554        2.0000           -0.3727843             -10.1440
       555        2.0000           -0.3702916             -10.0761
       556        2.0000           -0.3697285             -10.0608
       557        2.0000           -0.3667345              -9.9794
       558        2.0000           -0.3663783              -9.9697
       559        2.0000           -0.3655120              -9.9461
       560        2.0000           -0.3644153              -9.9162
       561        2.0000           -0.3598475              -9.7919
       562        2.0000           -0.3577193              -9.7340
       563        2.0000           -0.3539087              -9.6303 (HOMO)
       564        0.0000           -0.3017014              -8.2097 (LUMO)
       565                         -0.2970613              -8.0834
       566                         -0.2962737              -8.0620
       567                         -0.2897270              -7.8839
       568                         -0.2882412              -7.8434
       569                         -0.2875144              -7.8237
       570                         -0.2874066              -7.8207
       571                         -0.2868018              -7.8043
       572                         -0.2849933              -7.7551
       573                         -0.2811796              -7.6513
       574                         -0.2765285              -7.5247
       ...                                ...                  ...
      1037                          0.6719329              18.2842
      -------------------------------------------------------------
                  HL-Gap            0.0522074 Eh            1.4206 eV
             Fermi-level           -0.3277839 Eh           -8.9195 eV

   #   Z        covCN         q      C6AA      α(0)
   1   7 N      2.635    -0.395    30.237     8.167
   2   6 C      3.784     0.045    19.829     6.343
   3   6 C      2.763     0.198    23.785     7.987
   4   8 O      0.856    -0.389    21.459     6.211
   5   6 C      3.810    -0.069    21.804     6.647
   6   6 C      2.970    -0.006    28.157     8.704
   7   6 C      2.925    -0.047    29.167     8.857
   8   6 C      2.925    -0.043    29.078     8.843
   9   6 C      2.918    -0.081    30.028     8.986
  10   6 C      2.916    -0.066    29.634     8.927
  11   6 C      2.848     0.143    24.881     8.175
  12   8 O      1.660    -0.413    21.107     6.202
  13   1 H      0.860     0.175     1.245     1.748
  14   1 H      0.923     0.044     2.403     2.424
  15   1 H      0.925     0.064     2.158     2.297
  16   1 H      0.924     0.053     2.283     2.363
  17   1 H      0.926     0.054     2.274     2.358
  18   1 H      0.926     0.028     2.612     2.527
  19   1 H      0.926     0.070     2.090     2.261
  20   1 H      0.926     0.049     2.328     2.386
  21   1 H      0.805     0.349     0.591     1.207
  22   7 N      2.638    -0.390    30.088     8.147
  23   6 C      3.786     0.033    20.026     6.374
  24   6 C      2.771     0.207    23.601     7.956
  25   8 O      0.856    -0.389    21.467     6.212
  26   6 C      3.855    -0.017    20.842     6.493
  27   6 C      3.803    -0.059    21.625     6.621
  28   6 C      3.756    -0.112    22.704     6.794
  29   6 C      3.752    -0.110    22.657     6.788
  30   1 H      0.860     0.154     1.377     1.838
  31   1 H      0.924     0.064     2.153     2.295
  32   1 H      0.924     0.030     2.581     2.513
  33   1 H      0.924     0.050     2.315     2.379
  34   1 H      0.924     0.030     2.580     2.512
  35   1 H      0.925     0.049     2.334     2.389
  36   1 H      0.925     0.018     2.762     2.599
  37   1 H      0.925     0.060     2.199     2.319
  38   1 H      0.925     0.043     2.411     2.428
  39   1 H      0.925     0.028     2.620     2.531
  40   1 H      0.925     0.050     2.324     2.384
  41   7 N      2.642    -0.388    30.047     8.141
  42   6 C      3.778     0.030    20.098     6.387
  43   6 C      2.770     0.195    23.831     7.995
  44   8 O      0.856    -0.380    21.290     6.186
  45   6 C      3.805    -0.068    21.806     6.648
  46   6 C      3.848    -0.012    20.757     6.480
  47   6 C      3.756    -0.118    22.810     6.810
  48   6 C      3.760    -0.112    22.687     6.790
  49   1 H      0.860     0.168     1.286     1.777
  50   1 H      0.924     0.085     1.925     2.170
  51   1 H      0.924     0.048     2.340     2.392
  52   1 H      0.924     0.029     2.596     2.520
  53   1 H      0.924     0.036     2.506     2.476
  54   1 H      0.925     0.049     2.338     2.391
  55   1 H      0.925     0.049     2.332     2.388
  56   1 H      0.925     0.043     2.411     2.428
  57   1 H      0.925     0.047     2.363     2.404
  58   1 H      0.925     0.038     2.469     2.457
  59   1 H      0.925     0.028     2.618     2.530
  60   7 N      2.635    -0.397    30.281     8.173
  61   6 C      3.784     0.031    20.068     6.381
  62   6 C      2.766     0.200    23.739     7.979
  63   8 O      0.856    -0.361    20.923     6.133
  64   6 C      3.806    -0.079    22.009     6.679
  65   6 C      3.802    -0.085    22.121     6.696
  66   6 C      3.736    -0.026    21.129     6.560
  67   7 N      2.701    -0.130    23.824     7.249
  68   6 C      2.735     0.228    23.210     7.888
  69   7 N      2.647    -0.256    26.651     7.667
  70   7 N      2.655    -0.241    26.286     7.615
  71   1 H      0.860     0.155     1.366     1.831
  72   1 H      0.924     0.078     2.003     2.213
  73   1 H      0.924     0.067     2.117     2.276
  74   1 H      0.924     0.046     2.376     2.411
  75   1 H      0.925     0.067     2.116     2.275
  76   1 H      0.924     0.061     2.183     2.310
  77   1 H      0.924     0.090     1.879     2.144
  78   1 H      0.925     0.090     1.877     2.142
  79   1 H      0.860     0.226     0.985     1.554
  80   1 H      0.860     0.239     0.927     1.508
  81   1 H      0.860     0.253     0.872     1.463
  82   1 H      0.860     0.241     0.917     1.500
  83   1 H      0.860     0.253     0.872     1.462
  84   7 N      2.636    -0.388    30.031     8.139
  85   6 C      3.787     0.039    19.940     6.360
  86   6 C      2.766     0.202    23.695     7.972
  87   8 O      0.856    -0.380    21.286     6.186
  88   6 C      3.852    -0.022    20.935     6.508
  89   6 C      3.756    -0.124    22.925     6.827
  90   6 C      3.756    -0.117    22.795     6.807
  91   1 H      0.860     0.161     1.328     1.806
  92   1 H      0.924     0.040     2.443     2.444
  93   1 H      0.924     0.058     2.219     2.329
  94   1 H      0.925     0.076     2.022     2.224
  95   1 H      0.925     0.044     2.399     2.422
  96   1 H      0.925     0.034     2.531     2.488
  97   1 H      0.925     0.061     2.192     2.315
  98   1 H      0.925     0.040     2.447     2.446
  99   1 H      0.925     0.038     2.482     2.464
 100   7 N      2.637    -0.410    30.646     8.222
 101   6 C      3.781     0.047    19.811     6.341
 102   6 C      2.764     0.205    23.642     7.963
 103   8 O      0.856    -0.405    21.785     6.258
 104   6 C      3.808    -0.075    21.935     6.667
 105   6 C      3.848    -0.011    20.734     6.477
 106   6 C      3.757    -0.120    22.857     6.817
 107   6 C      3.755    -0.111    22.683     6.791
 108   1 H      0.860     0.195     1.132     1.667
 109   1 H      0.923     0.035     2.519     2.482
 110   1 H      0.924     0.075     2.028     2.227
 111   1 H      0.924     0.055     2.262     2.352
 112   1 H      0.924     0.023     2.694     2.567
 113   1 H      0.925     0.043     2.414     2.430
 114   1 H      0.925     0.046     2.371     2.408
 115   1 H      0.925     0.055     2.257     2.349
 116   1 H      0.925     0.040     2.448     2.447
 117   1 H      0.925     0.045     2.385     2.415
 118   1 H      0.925     0.016     2.791     2.613
 119   7 N      2.636    -0.387    30.024     8.138
 120   6 C      3.787     0.033    20.034     6.375
 121   6 C      2.755     0.270    22.440     7.757
 122   8 O      0.858    -0.494    23.645     6.519
 123   6 C      3.759    -0.109    22.630     6.782
 124   1 H      0.860     0.150     1.402     1.855
 125   1 H      0.924     0.048     2.346     2.395
 126   1 H      0.925     0.042     2.416     2.431
 127   1 H      0.925     0.049     2.330     2.387
 128   1 H      0.925     0.035     2.517     2.481
 129   7 N      2.693    -0.182    24.939     7.417
 130   6 C      3.791     0.021    20.233     6.406
 131   6 C      2.771     0.201    23.719     7.976
 132   8 O      0.856    -0.351    20.731     6.105
 133   6 C      3.806    -0.079    21.995     6.676
 134   6 C      3.803    -0.085    22.123     6.696
 135   6 C      3.739    -0.027    21.131     6.559
 136   7 N      2.701    -0.140    24.042     7.282
 137   6 C      2.737     0.228    23.212     7.888
 138   7 N      2.650    -0.235    26.158     7.596
 139   7 N      2.654    -0.250    26.518     7.648
 140   1 H      0.860     0.230     0.963     1.538
 141   1 H      0.924     0.082     1.963     2.191
 142   1 H      0.924     0.084     1.941     2.179
 143   1 H      0.924     0.073     2.054     2.241
 144   1 H      0.925     0.091     1.868     2.137
 145   1 H      0.925     0.069     2.098     2.265
 146   1 H      0.924     0.075     2.028     2.227
 147   1 H      0.924     0.082     1.964     2.191
 148   1 H      0.860     0.239     0.928     1.509
 149   1 H      0.860     0.234     0.950     1.527
 150   1 H      0.860     0.248     0.893     1.480
 151   1 H      0.860     0.255     0.865     1.457
 152   1 H      0.860     0.242     0.917     1.500
 153   7 N      2.635    -0.398    30.314     8.177
 154   6 C      3.787     0.024    20.192     6.400
 155   6 C      2.761     0.274    22.363     7.744
 156   8 O      0.858    -0.490    23.554     6.507
 157   6 C      3.807    -0.084    22.098     6.692
 158   6 C      3.800    -0.074    21.909     6.664
 159   6 C      3.802    -0.092    22.250     6.716
 160   6 C      3.730    -0.052    21.603     6.635
 161   7 N      3.481    -0.148    24.202     7.307
 162   1 H      0.860     0.153     1.380     1.840
 163   1 H      0.924     0.046     2.370     2.407
 164   1 H      0.924     0.062     2.177     2.308
 165   1 H      0.924     0.047     2.357     2.401
 166   1 H      0.924     0.046     2.372     2.409
 167   1 H      0.924     0.055     2.260     2.351
 168   1 H      0.925     0.081     1.972     2.196
 169   1 H      0.925     0.078     1.998     2.210
 170   1 H      0.925     0.111     1.689     2.033
 171   1 H      0.925     0.123     1.588     1.971
 172   1 H      0.859     0.298     0.719     1.329
 173   1 H      0.859     0.299     0.716     1.325
 174   1 H      0.856     0.295     0.728     1.337
 175   7 N      2.689    -0.178    24.852     7.404
 176   6 C      3.804     0.006    20.472     6.441
 177   6 C      2.751     0.264    22.553     7.776
 178   8 O      0.858    -0.472    23.165     6.453
 179   6 C      3.804    -0.066    21.759     6.641
 180   6 C      3.809    -0.105    22.490     6.751
 181   6 C      2.743     0.288    22.114     7.700
 182   8 O      0.859    -0.513    24.078     6.579
 183   7 N      2.639    -0.281    27.248     7.753
 184   1 H      0.860     0.208     1.066     1.618
 185   1 H      0.924     0.093     1.848     2.126
 186   1 H      0.925     0.060     2.200     2.320
 187   1 H      0.924     0.049     2.331     2.388
 188   1 H      0.925     0.079     1.992     2.207
 189   1 H      0.924     0.068     2.109     2.271
 190   1 H      0.860     0.226     0.985     1.554
 191   1 H      0.860     0.221     1.003     1.569
 192   7 N      2.697    -0.169    24.663     7.376
 193   6 C      3.791     0.003    20.533     6.453
 194   6 C      2.757     0.270    22.442     7.758
 195   8 O      0.858    -0.481    23.357     6.480
 196   6 C      3.851    -0.031    21.083     6.531
 197   6 C      3.803    -0.067    21.783     6.645
 198   6 C      3.753    -0.130    23.049     6.846
 199   6 C      3.751    -0.121    22.891     6.823
 200   1 H      0.860     0.217     1.021     1.583
 201   1 H      0.924     0.077     2.006     2.215
 202   1 H      0.924     0.058     2.224     2.332
 203   1 H      0.924     0.044     2.393     2.419
 204   1 H      0.924     0.042     2.424     2.435
 205   1 H      0.925     0.077     2.011     2.217
 206   1 H      0.925     0.045     2.384     2.414
 207   1 H      0.925     0.042     2.416     2.431
 208   1 H      0.925     0.050     2.316     2.380
 209   1 H      0.925     0.047     2.361     2.403
 210   1 H      0.925     0.048     2.342     2.393
 211   7 N      2.687    -0.171    24.702     7.382
 212   6 C      3.797     0.009    20.439     6.437
 213   6 C      2.752     0.267    22.496     7.767
 214   8 O      0.858    -0.454    22.797     6.402
 215   6 C      3.815    -0.081    22.025     6.680
 216   6 C      2.972     0.003    27.962     8.674
 217   6 C      2.929    -0.049    29.220     8.865
 218   6 C      2.926    -0.038    28.942     8.822
 219   6 C      2.918    -0.081    30.018     8.984
 220   6 C      2.919    -0.056    29.382     8.889
 221   6 C      2.850     0.142    24.909     8.180
 222   8 O      1.659    -0.430    21.441     6.251
 223   1 H      0.860     0.227     0.978     1.549
 224   1 H      0.924     0.090     1.884     2.146
 225   1 H      0.924     0.064     2.151     2.294
 226   1 H      0.924     0.061     2.191     2.315
 227   1 H      0.926     0.057     2.239     2.340
 228   1 H      0.926     0.040     2.448     2.447
 229   1 H      0.926     0.044     2.401     2.423
 230   1 H      0.926     0.035     2.512     2.478
 231   1 H      0.805     0.336     0.621     1.238
 232   7 N      2.695    -0.172    24.722     7.385
 233   6 C      3.789     0.015    20.336     6.423
 234   6 C      2.758     0.272    22.401     7.751
 235   8 O      0.858    -0.464    23.008     6.431
 236   6 C      3.814    -0.076    21.944     6.667
 237   6 C      2.966    -0.004    28.126     8.699
 238   6 C      2.925    -0.040    28.986     8.829
 239   6 C      2.928    -0.041    29.027     8.836
 240   6 C      2.918    -0.073    29.831     8.956
 241   6 C      2.917    -0.056    29.393     8.890
 242   6 C      2.848     0.145    24.841     8.169
 243   8 O      1.659    -0.417    21.178     6.212
 244   1 H      0.860     0.210     1.058     1.611
 245   1 H      0.924     0.072     2.068     2.249
 246   1 H      0.924     0.063     2.168     2.302
 247   1 H      0.924     0.067     2.124     2.279
 248   1 H      0.926     0.047     2.362     2.404
 249   1 H      0.926     0.045     2.380     2.412
 250   1 H      0.926     0.054     2.270     2.356
 251   1 H      0.926     0.039     2.467     2.456
 252   1 H      0.805     0.322     0.659     1.276
 253   7 N      2.688    -0.159    24.449     7.344
 254   6 C      3.798    -0.006    20.691     6.477
 255   6 C      2.758     0.264    22.541     7.775
 256   8 O      0.858    -0.482    23.394     6.485
 257   6 C      3.726     0.110    18.881     6.204
 258   8 O      1.656    -0.451    21.857     6.311
 259   6 C      3.753    -0.131    23.068     6.849
 260   1 H      0.860     0.208     1.064     1.616
 261   1 H      0.924     0.106     1.733     2.059
 262   1 H      0.923     0.029     2.598     2.521
 263   1 H      0.805     0.327     0.644     1.261
 264   1 H      0.925     0.077     2.007     2.216
 265   1 H      0.925     0.033     2.545     2.495
 266   1 H      0.925     0.070     2.090     2.261
 267   7 N      2.694    -0.162    24.510     7.353
 268   6 C      3.796     0.022    20.214     6.402
 269   6 C      2.770     0.196    23.813     7.992
 270   8 O      0.856    -0.360    20.896     6.129
 271   6 C      3.853    -0.011    20.739     6.477
 272   6 C      3.756    -0.124    22.941     6.829
 273   6 C      3.756    -0.118    22.821     6.811
 274   1 H      0.860     0.224     0.992     1.561
 275   1 H      0.924     0.083     1.946     2.182
 276   1 H      0.924     0.046     2.367     2.406
 277   1 H      0.925     0.066     2.134     2.284
 278   1 H      0.925     0.033     2.548     2.496
 279   1 H      0.925     0.052     2.291     2.367
 280   1 H      0.925     0.066     2.125     2.279
 281   1 H      0.925     0.053     2.287     2.365
 282   1 H      0.925     0.047     2.359     2.402
 283   7 N      2.637    -0.394    30.202     8.162
 284   6 C      3.786     0.026    20.154     6.394
 285   6 C      2.755     0.272    22.405     7.751
 286   8 O      0.858    -0.487    23.503     6.500
 287   6 C      3.850    -0.021    20.909     6.504
 288   6 C      3.755    -0.102    22.506     6.765
 289   6 C      3.755    -0.117    22.797     6.808
 290   1 H      0.860     0.165     1.301     1.787
 291   1 H      0.924     0.033     2.543     2.494
 292   1 H      0.924     0.030     2.588     2.516
 293   1 H      0.925     0.042     2.420     2.433
 294   1 H      0.925     0.031     2.576     2.510
 295   1 H      0.925     0.044     2.398     2.422
 296   1 H      0.925     0.049     2.327     2.385
 297   1 H      0.925     0.046     2.374     2.410
 298   1 H      0.925     0.035     2.518     2.482
 299   7 N      2.691    -0.169    24.657     7.375
 300   6 C      3.794     0.012    20.378     6.428
 301   6 C      2.756     0.267    22.494     7.767
 302   8 O      0.858    -0.490    23.574     6.510
 303   6 C      3.754    -0.128    23.020     6.841
 304   1 H      0.860     0.200     1.107     1.648
 305   1 H      0.924     0.097     1.810     2.104
 306   1 H      0.925     0.067     2.116     2.275
 307   1 H      0.925     0.072     2.066     2.248
 308   1 H      0.925     0.065     2.138     2.287
 309   7 N      2.689    -0.159    24.445     7.343
 310   6 C      3.793     0.014    20.350     6.424
 311   6 C      2.758     0.261    22.610     7.787
 312   8 O      0.858    -0.479    23.314     6.474
 313   6 C      3.814    -0.070    21.828     6.650
 314   6 C      2.965    -0.004    28.117     8.698
 315   6 C      2.923    -0.042    29.034     8.836
 316   6 C      2.930    -0.042    29.043     8.838
 317   6 C      2.918    -0.079    29.985     8.980
 318   6 C      2.918    -0.063    29.555     8.915
 319   6 C      2.847     0.142    24.911     8.180
 320   8 O      1.660    -0.396    20.768     6.152
 321   1 H      0.860     0.223     0.994     1.562
 322   1 H      0.924     0.085     1.929     2.172
 323   1 H      0.924     0.060     2.197     2.318
 324   1 H      0.924     0.050     2.322     2.383
 325   1 H      0.926     0.026     2.637     2.540
 326   1 H      0.926     0.041     2.430     2.438
 327   1 H      0.926     0.044     2.391     2.418
 328   1 H      0.926     0.071     2.078     2.254
 329   1 H      0.805     0.320     0.663     1.279
 330   7 N      2.686    -0.152    24.281     7.318
 331   6 C      3.740    -0.032    21.219     6.572
 332   6 C      2.763     0.201    23.731     7.978
 333   8 O      0.856    -0.366    21.020     6.147
 334   1 H      0.860     0.214     1.035     1.594
 335   1 H      0.924     0.116     1.650     2.009
 336   1 H      0.924     0.124     1.582     1.967
 337   7 N      2.636    -0.391    30.126     8.152
 338   6 C      3.782     0.041    19.901     6.355
 339   6 C      2.763     0.202    23.699     7.972
 340   8 O      0.856    -0.358    20.866     6.124
 341   6 C      3.813    -0.076    21.947     6.668
 342   6 C      2.972     0.008    27.827     8.653
 343   6 C      2.927    -0.040    28.998     8.831
 344   6 C      2.926    -0.041    29.029     8.836
 345   6 C      2.921    -0.035    28.880     8.813
 346   6 C      2.920    -0.037    28.924     8.819
 347   6 C      2.923    -0.042    29.048     8.838
 348   1 H      0.860     0.168     1.286     1.777
 349   1 H      0.924     0.055     2.264     2.353
 350   1 H      0.924     0.049     2.337     2.391
 351   1 H      0.924     0.060     2.200     2.319
 352   1 H      0.926     0.028     2.616     2.529
 353   1 H      0.926     0.037     2.486     2.466
 354   1 H      0.926     0.036     2.500     2.473
 355   1 H      0.926     0.042     2.417     2.431
 356   1 H      0.926     0.039     2.461     2.453
 357   7 N      2.634    -0.395    30.228     8.166
 358   6 C      3.736    -0.005    20.754     6.501
 359   6 C      2.753     0.271    22.413     7.752
 360   8 O      0.858    -0.479    23.330     6.476
 361   1 H      0.860     0.169     1.276     1.770
 362   1 H      0.924     0.053     2.283     2.363
 363   1 H      0.923     0.032     2.560     2.502
 364   7 N      2.696    -0.189    25.108     7.442
 365   6 C      3.791     0.020    20.249     6.408
 366   6 C      2.768     0.259    22.637     7.792
 367   8 O      0.860    -0.508    23.963     6.563
 368   6 C      3.804    -0.068    21.807     6.648
 369   6 C      3.847    -0.013    20.767     6.482
 370   6 C      3.754    -0.113    22.714     6.796
 371   6 C      3.753    -0.121    22.881     6.821
 372   1 H      0.860     0.209     1.064     1.616
 373   1 H      0.924     0.085     1.932     2.173
 374   1 H      0.924     0.048     2.343     2.394
 375   1 H      0.924     0.043     2.408     2.427
 376   1 H      0.924     0.034     2.528     2.487
 377   1 H      0.925     0.043     2.409     2.427
 378   1 H      0.925     0.030     2.584     2.514
 379   1 H      0.925     0.044     2.395     2.420
 380   1 H      0.925     0.044     2.390     2.418
 381   1 H      0.925     0.051     2.309     2.376
 382   1 H      0.925     0.045     2.387     2.416
 383   7 N      2.760    -0.080    22.803     7.092
 384   6 C      3.843     0.021    20.194     6.392
 385   6 C      2.751     0.287    22.139     7.705
 386   8 O      0.858    -0.499    23.753     6.534
 387   6 C      3.833    -0.065    21.717     6.630
 388   6 C      3.837    -0.080    21.993     6.672
 389   6 C      3.766    -0.015    20.876     6.512
 390   1 H      0.924     0.053     2.288     2.366
 391   1 H      0.924     0.055     2.264     2.353
 392   1 H      0.925     0.054     2.270     2.356
 393   1 H      0.925     0.094     1.842     2.122
 394   1 H      0.925     0.070     2.082     2.257
 395   1 H      0.924     0.070     2.085     2.258
 396   1 H      0.924     0.072     2.060     2.245
 397   7 N      2.691    -0.183    24.973     7.422
 398   6 C      3.791     0.024    20.182     6.398
 399   6 C      2.766     0.203    23.679     7.969
 400   8 O      0.856    -0.372    21.137     6.164
 401   6 C      3.852    -0.029    21.052     6.526
 402   6 C      3.802    -0.069    21.828     6.652
 403   6 C      3.755    -0.128    23.005     6.839
 404   6 C      3.751    -0.110    22.665     6.789
 405   1 H      0.860     0.225     0.987     1.557
 406   1 H      0.924     0.081     1.966     2.193
 407   1 H      0.924     0.061     2.188     2.313
 408   1 H      0.925     0.046     2.376     2.410
 409   1 H      0.924     0.052     2.299     2.371
 410   1 H      0.925     0.073     2.053     2.241
 411   1 H      0.925     0.043     2.405     2.425
 412   1 H      0.925     0.058     2.228     2.334
 413   1 H      0.925     0.029     2.595     2.519
 414   1 H      0.925     0.058     2.226     2.333
 415   1 H      0.925     0.027     2.627     2.535
 416   1 H      0.862     0.173     1.252     1.753
 417   1 H      0.930     0.070     2.086     2.258
 418   1 H      0.862     0.187     1.176     1.699
 419   1 H      0.930     0.070     2.086     2.259
 420   1 H      0.862     0.168     1.284     1.775
 421   1 H      0.930     0.065     2.139     2.287
 422   1 H      0.862     0.193     1.140     1.672
 423   1 H      0.930     0.060     2.194     2.316
 424   1 H      0.862     0.175     1.240     1.744
 425   1 H      0.930     0.076     2.018     2.221
 426   1 H      0.862     0.173     1.256     1.756
 427   1 H      0.930     0.064     2.150     2.293
 428   1 H      0.862     0.186     1.178     1.700
 429   1 H      0.930     0.069     2.097     2.264
 430   1 H      0.862     0.187     1.173     1.696
 431   1 H      0.930     0.074     2.044     2.236
 432   1 H      0.862     0.172     1.262     1.760
 433   1 H      0.930     0.092     1.855     2.129
 434   1 H      0.862     0.190     1.161     1.688
 435   1 H      0.930     0.067     2.116     2.275
 436   1 H      0.862     0.178     1.225     1.733
 437   1 H      0.930     0.078     1.995     2.209

 Mol. C6AA /au·bohr⁶  :    1685860.638158
 Mol. C8AA /au·bohr⁸  :   37464814.027030
 Mol. α(0) /au        :       1960.350458


Wiberg/Mayer (AO) data.
largest (>0.10) Wiberg bond orders for each atom
          total WBO             WBO to atom ...
     1  N   2.997        C    2 1.014    H  416 0.959    H   13 0.949
     2  C   3.982        N    1 1.014    C    3 0.973    C    5 0.958    H   14 0.947
     3  C   3.885        O    4 1.885    C    2 0.973    H  417 0.954
     4  O   2.024        C    3 1.885
     5  C   3.988        C    6 1.005    H   15 0.971    C    2 0.958    H   16 0.955
     6  C   3.987        C    7 1.409    C    8 1.399    C    5 1.005
     7  C   3.988        C    9 1.448    C    6 1.409    H   17 0.967    C   10 0.105
     8  C   3.992        C   10 1.465    C    6 1.399    H   18 0.963    C    9 0.105
     9  C   3.984        C    7 1.448    C   11 1.365    H   19 0.959    C    8 0.105
    10  C   3.988        C    8 1.465    C   11 1.354    H   20 0.967    C    7 0.105
    11  C   3.944        C    9 1.365    C   10 1.354    O   12 1.091
    12  O   2.117        C   11 1.091    H   21 0.851
    13  H   0.969        N    1 0.949
    14  H   0.998        C    2 0.947
    15  H   0.996        C    5 0.971
    16  H   0.996        C    5 0.955
    17  H   0.997        C    7 0.967
    18  H   0.999        C    8 0.963
    19  H   0.995        C    9 0.959
    20  H   0.997        C   10 0.967
    21  H   0.878        O   12 0.851
    22  N   2.993        C   23 1.008    H   30 0.958    H  418 0.940
    23  C   3.980        N   22 1.008    C   24 0.983    H   31 0.959    C   26 0.940
    24  C   3.889        O   25 1.885    C   23 0.983    H  419 0.955
    25  O   2.028        C   24 1.885
    26  C   3.991        C   28 1.009    C   27 0.994    H   32 0.966    C   23 0.940
    27  C   3.996        C   29 1.019    C   26 0.994    H   33 0.967    H   34 0.966
    28  C   3.994        C   26 1.009    H   37 0.982    H   35 0.982    H   36 0.982
    29  C   3.995        C   27 1.019    H   39 0.988    H   38 0.985    H   40 0.981
    30  H   0.976        N   22 0.958
    31  H   0.996        C   23 0.959
    32  H   0.999        C   26 0.966
    33  H   0.997        C   27 0.967
    34  H   0.999        C   27 0.966
    35  H   0.998        C   28 0.982
    36  H   1.000        C   28 0.982
    37  H   0.996        C   28 0.982
    38  H   0.997        C   29 0.985
    39  H   0.999        C   29 0.988
    40  H   0.997        C   29 0.981
    41  N   2.992        C   42 1.029    H  420 0.954    H   49 0.936
    42  C   3.985        N   41 1.029    C   43 0.986    C   45 0.955    H   50 0.927
    43  C   3.892        O   44 1.876    C   42 0.986    H  421 0.957
    44  O   2.055        C   43 1.876
    45  C   3.989        C   46 0.994    H   52 0.975    H   51 0.967    C   42 0.955
    46  C   3.994        C   47 1.011    C   48 1.006    C   45 0.994    H   53 0.969
    47  C   3.994        C   46 1.011    H   56 0.984    H   54 0.983    H   55 0.981
    48  C   3.994        C   46 1.006    H   59 0.986    H   58 0.986    H   57 0.985
    49  H   0.972        N   41 0.936
    50  H   0.993        C   42 0.927
    51  H   0.998        C   45 0.967
    52  H   0.999        C   45 0.975
    53  H   0.999        C   46 0.969
    54  H   0.997        C   47 0.983
    55  H   0.998        C   47 0.981
    56  H   0.998        C   47 0.984
    57  H   0.997        C   48 0.985
    58  H   0.999        C   48 0.986
    59  H   0.999        C   48 0.986
    60  N   2.995        C   61 1.011    H   71 0.959    H  422 0.950
    61  C   3.981        N   60 1.011    C   62 0.977    C   64 0.961    H   72 0.956
    62  C   3.894        O   63 1.902    C   61 0.977    H  423 0.956
    63  O   2.039        C   62 1.902
    64  C   3.991        C   65 1.007    H   74 0.974    H   73 0.968    C   61 0.961
    65  C   3.991        C   64 1.007    C   66 1.000    H   75 0.976    H   76 0.969
    66  C   3.955        C   65 1.000    N   67 0.988    H   78 0.959    H   77 0.953
    67  N   3.483        C   68 1.325    C   66 0.988    H   79 0.912    N   70 0.109
    68  C   3.978        N   70 1.327    N   67 1.325    N   69 1.291
    69  N   3.361        C   68 1.291    H   81 0.916    H   80 0.912
    70  N   3.409        C   68 1.327    H   82 0.920    H   83 0.916    N   67 0.109
    71  H   0.976        N   60 0.959
    72  H   0.994        C   61 0.956
    73  H   0.995        C   64 0.968
    74  H   0.998        C   64 0.974
    75  H   0.995        C   65 0.976
    76  H   0.996        C   65 0.969
    77  H   0.992        C   66 0.953
    78  H   0.992        C   66 0.959
    79  H   0.949        N   67 0.912
    80  H   0.943        N   69 0.912
    81  H   0.936        N   69 0.916
    82  H   0.942        N   70 0.920
    83  H   0.936        N   70 0.916
    84  N   3.006        C   85 1.005    H  424 0.958    H   91 0.953
    85  C   3.979        N   84 1.005    C   86 0.972    H   92 0.962    C   88 0.954
    86  C   3.884        O   87 1.875    C   85 0.972    H  425 0.953
    87  O   2.042        C   86 1.875
    88  C   3.990        C   90 1.009    C   89 1.007    H   93 0.962    C   85 0.954
    89  C   3.993        C   88 1.007    H   96 0.985    H   95 0.981    H   94 0.981
    90  C   3.994        C   88 1.009    H   98 0.986    H   99 0.985    H   97 0.981
    91  H   0.974        N   84 0.953
    92  H   0.998        C   85 0.962
    93  H   0.996        C   88 0.962
    94  H   0.994        C   89 0.981
    95  H   0.998        C   89 0.981
    96  H   0.999        C   89 0.985
    97  H   0.995        C   90 0.981
    98  H   0.998        C   90 0.986
    99  H   0.999        C   90 0.985
   100  N   2.989        C  101 1.008    H  426 0.959    H  108 0.922
   101  C   3.984        N  100 1.008    C  102 0.977    C  104 0.962    H  109 0.961
   102  C   3.882        O  103 1.870    C  101 0.977    H  427 0.955
   103  O   2.013        C  102 1.870
   104  C   3.987        C  105 0.994    H  111 0.973    H  110 0.963    C  101 0.962
   105  C   3.995        C  107 1.010    C  106 1.007    C  104 0.994    H  112 0.969
   106  C   3.994        C  105 1.007    H  115 0.986    H  113 0.986    H  114 0.985
   107  C   3.996        C  105 1.010    H  117 0.985    H  116 0.985    H  118 0.982
   108  H   0.962        N  100 0.922
   109  H   0.999        C  101 0.961
   110  H   0.994        C  104 0.963
   111  H   0.997        C  104 0.973
   112  H   0.999        C  105 0.969
   113  H   0.998        C  106 0.986
   114  H   0.998        C  106 0.985
   115  H   0.997        C  106 0.986
   116  H   0.998        C  107 0.985
   117  H   0.998        C  107 0.985
   118  H   1.000        C  107 0.982
   119  N   2.995        C  120 1.019    H  124 0.960    H  428 0.955
   120  C   3.986        N  119 1.019    C  123 0.989    H  125 0.958    C  121 0.932
   121  C   3.944        O  122 1.652    N  129 1.283    C  120 0.932
   122  O   1.962        C  121 1.652    N  129 0.193
   123  C   3.994        C  120 0.989    H  128 0.986    H  126 0.983    H  127 0.979
   124  H   0.977        N  119 0.960
   125  H   0.998        C  120 0.958
   126  H   0.998        C  123 0.983
   127  H   0.997        C  123 0.979
   128  H   0.999        C  123 0.986
   129  N   3.456        C  121 1.283    C  130 0.979    H  140 0.888    O  122 0.193
   130  C   3.965        N  129 0.979    C  131 0.972    C  133 0.956    H  141 0.955
   131  C   3.893        O  132 1.883    C  130 0.972    H  429 0.955
   132  O   2.066        C  131 1.883
   133  C   3.982        C  134 1.007    H  143 0.969    H  142 0.964    C  130 0.956
   134  C   3.987        C  133 1.007    C  135 1.003    H  145 0.974    H  144 0.962
   135  C   3.958        C  134 1.003    N  136 0.985    H  146 0.963    H  147 0.954
   136  N   3.466        C  137 1.316    C  135 0.985    H  148 0.907    N  138 0.103    N  139 0.100
   137  C   3.978        N  138 1.326    N  136 1.316    N  139 1.306
   138  N   3.412        C  137 1.326    H  149 0.919    H  150 0.919    N  136 0.103    N  139 0.101
   139  N   3.386        C  137 1.306    H  152 0.920    H  151 0.916    N  138 0.101    N  136 0.100
   140  H   0.947        N  129 0.888
   141  H   0.993        C  130 0.955
   142  H   0.993        C  133 0.964
   143  H   0.994        C  133 0.969
   144  H   0.992        C  134 0.962
   145  H   0.995        C  134 0.974
   146  H   0.994        C  135 0.963
   147  H   0.993        C  135 0.954
   148  H   0.943        N  136 0.907
   149  H   0.945        N  138 0.919
   150  H   0.939        N  138 0.919
   151  H   0.935        N  139 0.916
   152  H   0.941        N  139 0.920
   153  N   2.992        C  154 1.019    H  162 0.958    H  430 0.951
   154  C   3.983        N  153 1.019    H  163 0.959    C  157 0.958    C  155 0.950
   155  C   3.941        O  156 1.651    N  175 1.273    C  154 0.950
   156  O   1.965        C  155 1.651    N  175 0.191
   157  C   3.991        C  158 1.005    H  165 0.977    H  164 0.970    C  154 0.958
   158  C   3.994        C  159 1.005    C  157 1.005    H  166 0.978    H  167 0.971
   159  C   3.987        C  160 1.009    C  158 1.005    H  168 0.970    H  169 0.968
   160  C   3.910        C  159 1.009    H  171 0.963    H  170 0.962    N  161 0.956
   161  N   3.664        C  160 0.956    H  172 0.897    H  173 0.897    H  174 0.894
   162  H   0.977        N  153 0.958
   163  H   0.998        C  154 0.959
   164  H   0.996        C  157 0.970
   165  H   0.998        C  157 0.977
   166  H   0.998        C  158 0.978
   167  H   0.997        C  158 0.971
   168  H   0.993        C  159 0.970
   169  H   0.994        C  159 0.968
   170  H   0.988        C  160 0.962
   171  H   0.985        C  160 0.963
   172  H   0.911        N  161 0.897
   173  H   0.910        N  161 0.897
   174  H   0.913        N  161 0.894
   175  N   3.453        C  155 1.273    C  176 0.993    H  184 0.920    O  156 0.191
   176  C   3.965        N  175 0.993    C  179 0.962    H  185 0.942    C  177 0.937
   177  C   3.955        O  178 1.625    N  192 1.313    C  176 0.937
   178  O   1.964        C  177 1.625    N  192 0.202
   179  C   3.992        C  180 0.995    H  186 0.973    H  187 0.973    C  176 0.962
   180  C   3.990        C  179 0.995    C  181 0.967    H  189 0.960    H  188 0.959
   181  C   3.939        O  182 1.640    N  183 1.305    C  180 0.967
   182  O   1.939        C  181 1.640    N  183 0.198
   183  N   3.398        C  181 1.305    H  190 0.930    H  191 0.929    O  182 0.198
   184  H   0.957        N  175 0.920
   185  H   0.991        C  176 0.942
   186  H   0.996        C  179 0.973
   187  H   0.997        C  179 0.973
   188  H   0.994        C  180 0.959
   189  H   0.995        C  180 0.960
   190  H   0.949        N  183 0.930
   191  H   0.951        N  183 0.929
   192  N   3.485        C  177 1.313    C  193 0.982    H  200 0.903    O  178 0.202
   193  C   3.957        N  192 0.982    H  201 0.954    C  196 0.944    C  194 0.937
   194  C   3.948        O  195 1.619    N  211 1.304    C  193 0.937
   195  O   1.979        C  194 1.619    N  211 0.195
   196  C   3.983        C  198 1.010    C  197 0.994    H  202 0.959    C  193 0.944
   197  C   3.994        C  199 1.018    C  196 0.994    H  203 0.976    H  204 0.975
   198  C   3.991        C  196 1.010    H  206 0.982    H  207 0.979    H  205 0.977
   199  C   3.992        C  197 1.018    H  209 0.987    H  208 0.985    H  210 0.984
   200  H   0.953        N  192 0.903
   201  H   0.994        C  193 0.954
   202  H   0.996        C  196 0.959
   203  H   0.998        C  197 0.976
   204  H   0.998        C  197 0.975
   205  H   0.993        C  198 0.977
   206  H   0.998        C  198 0.982
   207  H   0.998        C  198 0.979
   208  H   0.997        C  199 0.985
   209  H   0.998        C  199 0.987
   210  H   0.998        C  199 0.984
   211  N   3.479        C  194 1.304    C  212 0.990    H  223 0.894    O  195 0.195
   212  C   3.962        N  211 0.990    H  224 0.954    C  215 0.951    C  213 0.926
   213  C   3.949        O  214 1.668    N  232 1.280    C  212 0.926
   214  O   1.983        C  213 1.668    N  232 0.198
   215  C   3.991        C  216 1.013    H  226 0.969    H  225 0.962    C  212 0.951
   216  C   3.988        C  218 1.406    C  217 1.404    C  215 1.013
   217  C   3.988        C  219 1.453    C  216 1.404    H  227 0.958    C  220 0.107
   218  C   3.989        C  220 1.455    C  216 1.406    H  228 0.968    C  219 0.105
   219  C   3.986        C  217 1.453    C  221 1.368    H  229 0.964    C  218 0.105
   220  C   3.990        C  218 1.455    C  221 1.368    H  230 0.968    C  217 0.107
   221  C   3.937        C  219 1.368    C  220 1.368    O  222 1.070
   222  O   2.093        C  221 1.070    H  231 0.863
   223  H   0.948        N  211 0.894
   224  H   0.991        C  212 0.954
   225  H   0.995        C  215 0.962
   226  H   0.995        C  215 0.969
   227  H   0.997        C  217 0.958
   228  H   0.998        C  218 0.968
   229  H   0.998        C  219 0.964
   230  H   0.998        C  220 0.968
   231  H   0.887        O  222 0.863
   232  N   3.458        C  213 1.280    C  233 0.973    H  244 0.917    O  214 0.198
   233  C   3.963        N  232 0.973    C  236 0.965    H  245 0.959    C  234 0.936
   234  C   3.949        O  235 1.628    N  253 1.303    C  233 0.936
   235  O   1.980        C  234 1.628    N  253 0.196
   236  C   3.988        C  237 1.008    H  246 0.966    C  233 0.965    H  247 0.962
   237  C   3.987        C  238 1.413    C  239 1.401    C  236 1.008
   238  C   3.990        C  240 1.448    C  237 1.413    H  248 0.968    C  241 0.107
   239  C   3.990        C  241 1.463    C  237 1.401    H  249 0.965    C  240 0.104
   240  C   3.986        C  238 1.448    C  242 1.374    H  250 0.963    C  239 0.104
   241  C   3.990        C  239 1.463    C  242 1.360    H  251 0.969    C  238 0.107
   242  C   3.935        C  240 1.374    C  241 1.360    O  243 1.068
   243  O   2.109        C  242 1.068    H  252 0.870
   244  H   0.956        N  232 0.917
   245  H   0.995        C  233 0.959
   246  H   0.995        C  236 0.966
   247  H   0.995        C  236 0.962
   248  H   0.998        C  238 0.968
   249  H   0.998        C  239 0.965
   250  H   0.997        C  240 0.963
   251  H   0.998        C  241 0.969
   252  H   0.896        O  243 0.870
   253  N   3.482        C  234 1.303    C  254 0.988    H  260 0.923    O  235 0.196
   254  C   3.960        N  253 0.988    H  261 0.942    C  257 0.939    C  255 0.938
   255  C   3.951        O  256 1.632    N  267 1.302    C  254 0.938
   256  O   1.959        C  255 1.632    N  267 0.200
   257  C   3.962        C  259 1.006    O  258 1.000    H  262 0.963    C  254 0.939
   258  O   1.958        C  257 1.000    H  263 0.876
   259  C   3.988        C  257 1.006    H  265 0.984    H  266 0.981    H  264 0.979
   260  H   0.956        N  253 0.923
   261  H   0.989        C  254 0.942
   262  H   0.999        C  257 0.963
   263  H   0.893        O  258 0.876
   264  H   0.993        C  259 0.979
   265  H   0.999        C  259 0.984
   266  H   0.995        C  259 0.981
   267  N   3.483        C  255 1.302    C  268 0.985    H  274 0.905    O  256 0.200
   268  C   3.965        N  267 0.985    C  269 0.979    H  275 0.951    C  271 0.931
   269  C   3.900        O  270 1.898    C  268 0.979    H  431 0.954
   270  O   2.049        C  269 1.898
   271  C   3.984        C  272 1.008    C  273 1.006    H  276 0.964    C  268 0.931
   272  C   3.992        C  271 1.008    H  278 0.985    H  279 0.983    H  277 0.982
   273  C   3.991        C  271 1.006    H  282 0.984    H  280 0.980    H  281 0.976
   274  H   0.950        N  267 0.905
   275  H   0.993        C  268 0.951
   276  H   0.997        C  271 0.964
   277  H   0.995        C  272 0.982
   278  H   0.999        C  272 0.985
   279  H   0.997        C  272 0.983
   280  H   0.996        C  273 0.980
   281  H   0.997        C  273 0.976
   282  H   0.998        C  273 0.984
   283  N   2.992        C  284 1.021    H  432 0.954    H  290 0.946
   284  C   3.984        N  283 1.021    H  291 0.955    C  285 0.951    C  287 0.949
   285  C   3.947        O  286 1.620    N  299 1.304    C  284 0.951
   286  O   1.961        C  285 1.620    N  299 0.192
   287  C   3.993        C  288 1.011    C  289 1.010    H  292 0.965    C  284 0.949
   288  C   3.996        C  287 1.011    H  295 0.985    H  294 0.981    H  293 0.979
   289  C   3.995        C  287 1.010    H  298 0.985    H  296 0.982    H  297 0.981
   290  H   0.973        N  283 0.946
   291  H   0.999        C  284 0.955
   292  H   0.999        C  287 0.965
   293  H   0.998        C  288 0.979
   294  H   0.999        C  288 0.981
   295  H   0.998        C  288 0.985
   296  H   0.997        C  289 0.982
   297  H   0.998        C  289 0.981
   298  H   0.999        C  289 0.985
   299  N   3.473        C  285 1.304    C  300 0.978    H  304 0.923    O  286 0.192
   300  C   3.957        N  299 0.978    C  303 0.977    C  301 0.946    H  305 0.940
   301  C   3.948        O  302 1.600    N  309 1.321    C  300 0.946
   302  O   1.959        C  301 1.600    N  309 0.197
   303  C   3.984        H  308 0.984    H  307 0.981    C  300 0.977    H  306 0.974
   304  H   0.960        N  299 0.923
   305  H   0.990        C  300 0.940
   306  H   0.995        C  303 0.974
   307  H   0.994        C  303 0.981
   308  H   0.996        C  303 0.984
   309  N   3.493        C  301 1.321    C  310 0.988    H  321 0.904    O  302 0.197
   310  C   3.966        N  309 0.988    C  313 0.971    H  322 0.945    C  311 0.932
   311  C   3.951        O  312 1.610    N  330 1.322    C  310 0.932
   312  O   1.958        C  311 1.610    N  330 0.199
   313  C   3.989        C  314 1.002    C  310 0.971    H  324 0.958    H  323 0.956
   314  C   3.986        C  315 1.429    C  316 1.386    C  313 1.002
   315  C   3.992        C  317 1.429    C  314 1.429    H  325 0.961    C  318 0.105
   316  C   3.990        C  318 1.477    C  314 1.386    H  326 0.969    C  317 0.107
   317  C   3.987        C  315 1.429    C  319 1.380    H  327 0.961    C  316 0.107
   318  C   3.985        C  316 1.477    C  319 1.350    H  328 0.965    C  315 0.105
   319  C   3.946        C  317 1.380    C  318 1.350    O  320 1.084
   320  O   2.121        C  319 1.084    H  329 0.869
   321  H   0.950        N  309 0.904
   322  H   0.992        C  310 0.945
   323  H   0.995        C  313 0.956
   324  H   0.996        C  313 0.958
   325  H   0.999        C  315 0.961
   326  H   0.998        C  316 0.969
   327  H   0.998        C  317 0.961
   328  H   0.994        C  318 0.965
   329  H   0.897        O  320 0.869
   330  N   3.491        C  311 1.322    C  331 0.992    H  334 0.905    O  312 0.199
   331  C   3.960        C  332 1.010    N  330 0.992    H  336 0.932    H  335 0.910
   332  C   3.899        O  333 1.881    C  331 1.010    H  433 0.952
   333  O   2.056        C  332 1.881
   334  H   0.954        N  330 0.905
   335  H   0.986        C  331 0.910
   336  H   0.984        C  331 0.932
   337  N   2.999        C  338 1.005    H  348 0.954    H  434 0.953
   338  C   3.983        N  337 1.005    C  341 0.973    C  339 0.961    H  349 0.951
   339  C   3.889        O  340 1.916    C  338 0.961    H  435 0.955
   340  O   2.051        C  339 1.916
   341  C   3.993        C  342 1.011    C  338 0.973    H  351 0.969    H  350 0.965
   342  C   3.989        C  344 1.418    C  343 1.407    C  341 1.011    C  347 0.109
   343  C   3.992        C  345 1.452    C  342 1.407    H  352 0.969    C  346 0.111
   344  C   3.991        C  346 1.439    C  342 1.418    H  353 0.968    C  345 0.110
   345  C   3.992        C  343 1.452    C  347 1.432    H  354 0.971    C  344 0.110
   346  C   3.991        C  347 1.443    C  344 1.439    H  355 0.969    C  343 0.111
   347  C   3.990        C  346 1.443    C  345 1.432    H  356 0.963    C  342 0.109
   348  H   0.972        N  337 0.954
   349  H   0.997        C  338 0.951
   350  H   0.997        C  341 0.965
   351  H   0.996        C  341 0.969
   352  H   0.999        C  343 0.969
   353  H   0.999        C  344 0.968
   354  H   0.998        C  345 0.971
   355  H   0.998        C  346 0.969
   356  H   0.998        C  347 0.963
   357  N   2.981        C  358 1.032    H  436 0.953    H  361 0.950
   358  C   3.990        N  357 1.032    H  362 0.962    C  359 0.955    H  363 0.946
   359  C   3.949        O  360 1.644    N  364 1.291    C  358 0.955
   360  O   1.964        C  359 1.644    N  364 0.193
   361  H   0.971        N  357 0.950
   362  H   0.997        C  358 0.962
   363  H   0.999        C  358 0.946
   364  N   3.453        C  359 1.291    C  365 0.975    H  372 0.907    O  360 0.193
   365  C   3.963        N  364 0.975    C  368 0.965    C  366 0.950    H  373 0.948
   366  C   3.953        O  367 1.575    N  383 1.323    C  365 0.950
   367  O   1.936        C  366 1.575    N  383 0.193
   368  C   3.988        C  369 0.991    H  375 0.975    H  374 0.972    C  365 0.965
   369  C   3.993        C  370 1.011    C  371 1.008    C  368 0.991    H  376 0.967
   370  C   3.995        C  369 1.011    H  378 0.987    H  377 0.986    H  379 0.978
   371  C   3.995        C  369 1.008    H  380 0.986    H  382 0.985    H  381 0.980
   372  H   0.956        N  364 0.907
   373  H   0.993        C  365 0.948
   374  H   0.997        C  368 0.972
   375  H   0.998        C  368 0.975
   376  H   0.999        C  369 0.967
   377  H   0.998        C  370 0.986
   378  H   0.999        C  370 0.987
   379  H   0.998        C  370 0.978
   380  H   0.998        C  371 0.986
   381  H   0.997        C  371 0.980
   382  H   0.998        C  371 0.985
   383  N   3.534        C  366 1.323    C  389 0.968    C  384 0.963    O  367 0.193
   384  C   3.968        C  387 0.981    N  383 0.963    H  390 0.947    C  385 0.938
   385  C   3.949        O  386 1.638    N  397 1.293    C  384 0.938
   386  O   1.956        C  385 1.638    N  397 0.196
   387  C   3.989        C  388 1.002    C  384 0.981    H  392 0.976    H  391 0.975
   388  C   3.984        C  389 1.003    C  387 1.002    H  394 0.969    H  393 0.965
   389  C   3.957        C  388 1.003    N  383 0.968    H  396 0.965    H  395 0.954
   390  H   0.997        C  384 0.947
   391  H   0.997        C  387 0.975
   392  H   0.996        C  387 0.976
   393  H   0.990        C  388 0.965
   394  H   0.995        C  388 0.969
   395  H   0.995        C  389 0.954
   396  H   0.995        C  389 0.965
   397  N   3.470        C  385 1.293    C  398 0.976    H  405 0.889    O  386 0.196
   398  C   3.958        N  397 0.976    C  399 0.963    H  406 0.953    C  401 0.952
   399  C   3.892        O  400 1.902    C  398 0.963    H  437 0.952
   400  O   2.039        C  399 1.902
   401  C   3.984        C  403 1.007    C  402 0.994    H  407 0.961    C  398 0.952
   402  C   3.995        C  404 1.020    C  401 0.994    H  409 0.973    H  408 0.967
   403  C   3.991        C  401 1.007    H  412 0.983    H  411 0.979    H  410 0.979
   404  C   3.995        C  402 1.020    H  413 0.986    H  415 0.985    H  414 0.984
   405  H   0.949        N  397 0.889
   406  H   0.993        C  398 0.953
   407  H   0.996        C  401 0.961
   408  H   0.998        C  402 0.967
   409  H   0.996        C  402 0.973
   410  H   0.994        C  403 0.979
   411  H   0.998        C  403 0.979
   412  H   0.997        C  403 0.983
   413  H   0.999        C  404 0.986
   414  H   0.997        C  404 0.984
   415  H   0.999        C  404 0.985
   416  H   0.970        N    1 0.959
   417  H   0.995        C    3 0.954
   418  H   0.965        N   22 0.940
   419  H   0.995        C   24 0.955
   420  H   0.972        N   41 0.954
   421  H   0.996        C   43 0.957
   422  H   0.963        N   60 0.950
   423  H   0.996        C   62 0.956
   424  H   0.969        N   84 0.958
   425  H   0.994        C   86 0.953
   426  H   0.970        N  100 0.959
   427  H   0.996        C  102 0.955
   428  H   0.965        N  119 0.955
   429  H   0.995        C  131 0.955
   430  H   0.964        N  153 0.951
   431  H   0.994        C  269 0.954
   432  H   0.970        N  283 0.954
   433  H   0.991        C  332 0.952
   434  H   0.964        N  337 0.953
   435  H   0.995        C  339 0.955
   436  H   0.968        N  357 0.953
   437  H   0.994        C  399 0.952
 
molecular dipole:
                 x           y           z       tot (Debye)
 q only:      155.108     120.602     192.327
   full:      154.523     121.339     191.897     698.070
molecular quadrupole (traceless):
                xx          xy          yy          xz          yz          zz
 q only:     -991.453    9131.204   -5285.892   14964.224   11034.612    6277.344
  q+dip:    -1056.005    9195.123   -5200.405   14854.249   11086.075    6256.410
   full:    -1051.856    9192.522   -5202.659   14852.876   11082.935    6254.514


           -------------------------------------------------
          | TOTAL ENERGY             -630.861164344851 Eh   |
          | GRADIENT NORM               0.735527709337 Eh/α |
          | HOMO-LUMO GAP               1.420634385262 eV   |
           -------------------------------------------------

------------------------------------------------------------------------
 * finished run on 2019/05/31 at 06:34:04.948     
------------------------------------------------------------------------
 total:
 * wall-time:     0 d,  0 h,  0 min, 11.253 sec
 *  cpu-time:     0 d,  0 h,  0 min, 22.060 sec
 * ratio c/w:     1.960 speedup
 SCF:
 * wall-time:     0 d,  0 h,  0 min, 10.749 sec
 *  cpu-time:     0 d,  0 h,  0 min, 21.194 sec
 * ratio c/w:     1.972 speedup

