      -----------------------------------------------------------      
     |                   =====================                   |     
     |                           x T B                           |     
     |                   =====================                   |     
     |                         S. Grimme                         |     
     |          Mulliken Center for Theoretical Chemistry        |     
     |                    University of Bonn                     |     
     |                 Version 6.0.1 (SAW181210)                 |     
      -----------------------------------------------------------      

   This program is distributed in the hope that it will be useful,
   but WITHOUT ANY WARRANTY; without even the implied warranty of
   MERCHANTABILITY or FITNESS FOR A PARTICULAR PURPOSE.
   
   FOR NON-COMMERCIAL, ACADEMIA USE ONLY.
   
   Cite this work as:
   S. Grimme, C. Bannwarth, P. Shushkov, J. Comput. Theory Chem., 2017,
   13, 1989-2009.
   C. Bannwarth, S. Ehlert and S. Grimme., ChemRxiv, 2018, preprint.
   http://doi.org/10.26434/chemrxiv.7246238.v1
   
   for sTDA-xTB:
   S. Grimme and C. Bannwarth, J. Chem. Phys., 2016, 145, 054103.
   
   in the mass-spec context:
   V. Asgeirsson, C. Bauer and S. Grimme, Chem. Sci., 2017, 8, 4879.
   
   if GBSA is used:
   P. Shushkov, F. März and S. Grimme, unpublished.
   
   for ANC optimizer:
   S. Grimme, unpublished.
   Rational Function algorithm used in ANCopt:
   F. Eckert, P. Pulay, H.-J. Werner, J. Comput. Chem., 1997, 18, 1473.
   
   with help from (in alphabetical order)
   C. Bannwarth, F. Bohle, G. Brandenburg, E. Caldeweyher, M. Checinski,
   S. Dohm, S. Ehlert, S. Ehrlich, F. März, H. Neugebauer, J. Pisarek,
   P. Pracht, P. Shushkov, and S. Spicher.
   
 * started run on 2019/03/07 at 11:37:46.705     
========================================================================
 # omp threads = 1
========================================================================
number of atoms            : 443
number of electrons        : 1194
charge                     : -1
spin                       : .0
first test random number   : .0094
           ------------------------------------------------- 
          |                 G F N 2 - x T B                 |
          | Geometry, Frequencies, Noncovalent interactions |
          |            JCTC 2018 parametrisation            |
           ------------------------------------------------- 
 
      method parameters     
 k(s)        :  1.8500
 k(p)        :  2.2300
 k(d)        :  2.2300
 k(f)        :  2.0000
 kEN (H0ij)  : -2.0000
 D4 a1       :  0.5200
 D4 a2       :  5.0000
 D4 s6       :  1.0000
 D4 s8       :  2.7000
 D4 s9       :  5.0000
 alphaj      :  2.0000

 Solvent             : h2o
 Using internal parameter file: .param_gbsa2_h2o
 Gsolv ref. state (COSMO-RS): gsolv [1 M gas/solution]
 temperature (mdtemp)       :    298.150000000000     
 dielectric constant        :    80.2000000000000     
 rho                        :    1.00000000000000     
 mass                       :    18.0000000000000     
 surface tension            :    15.5689454083859     
 probe radius               :   0.975313790000000     
 vdW radii scaling          :    1.00000000000000     
 Gshift (Eh)                :   1.857443126794793E-003
 c1                         :    1.55243817000000     
 soset                      :   0.130326360000000     
 HB correction              :  T

            Z     q(EN)     CN     RAES       Cart. coordinates
     1  N   5.0   -0.24    3.26    1.97   275.62976   137.72323   212.77936
     2  C   4.0    0.03    4.39    4.36   278.12987   138.70966   212.16331
     3  C   4.0    0.16    3.44    3.09   279.43756   136.96545   210.26036
     4  O   6.0   -0.29    1.27    1.80   280.28604   137.82527   208.29504
     5  C   4.0   -0.05    4.38    4.34   279.67377   138.93643   214.59728
     6  C   4.0   -0.04    4.26    4.12   279.95156   141.63307   215.61773
     7  C   4.0    0.25    3.14    3.03   281.61074   143.29414   213.93398
     8  O   6.0   -0.26    1.17    1.80   283.84062   143.70232   214.59917
     9  O   6.0   -0.27    1.18    1.80   280.66966   144.12184   211.93843
    10  H   1.0    0.10    1.09    1.44   275.40488   137.40953   214.35728
    11  H   1.0    0.06    1.13    1.45   277.98058   140.36884   211.39608
    12  H   1.0    0.04    1.10    1.44   278.88954   137.89897   215.88796
    13  H   1.0    0.06    1.10    1.44   281.34618   138.24668   214.29870
    14  H   1.0    0.05    1.09    1.44   278.29238   142.39463   215.77080
    15  H   1.0    0.05    1.09    1.44   280.67155   141.57071   217.30337
    16  N   5.0   -0.17    3.49    2.07   279.55283   134.52203   210.83105
    17  C   4.0    0.03    4.50    4.53   280.79438   132.65876   209.15487
    18  C   4.0    0.16    3.48    3.11   279.57929   132.78159   206.49980
    19  O   6.0   -0.32    1.28    1.80   280.90209   132.84207   204.62331
    20  C   4.0   -0.03    4.42    4.42   280.47502   129.88653   210.21122
    21  C   4.0   -0.06    4.32    4.23   281.67121   129.66355   212.86440
    22  C   4.0   -0.09    4.29    4.17   281.60696   128.01004   208.46134
    23  C   4.0   -0.09    4.16    3.92   281.68444   127.04439   213.95099
    24  H   1.0    0.09    1.13    1.45   278.92355   133.88330   212.18599
    25  H   1.0    0.05    1.11    1.45   282.58017   133.06694   209.07172
    26  H   1.0    0.04    1.13    1.45   278.68167   129.52938   210.34540
    27  H   1.0    0.05    1.09    1.44   283.39842   130.27393   212.78314
    28  H   1.0    0.04    1.09    1.44   280.76603   130.77093   214.01146
    29  H   1.0    0.04    1.07    1.44   281.38964   126.32440   209.14731
    30  H   1.0    0.05    1.07    1.44   280.77737   128.11775   206.83051
    31  H   1.0    0.04    1.06    1.44   283.39464   128.36152   208.26103
    32  H   1.0    0.05    1.06    1.44   282.46490   127.07462   215.61017
    33  H   1.0    0.04    1.06    1.44   279.96290   126.43400   214.09650
    34  H   1.0    0.04    1.06    1.44   282.63497   125.92945   212.84928
    35  N   5.0   -0.17    3.52    2.09   277.05650   132.81183   206.41854
    36  C   4.0    0.04    4.49    4.53   275.64299   132.86474   204.01859
    37  C   4.0    0.19    3.51    3.12   276.51037   135.14753   202.52571
    38  O   6.0   -0.29    1.30    1.80   277.23414   134.91698   200.33930
    39  C   4.0   -0.04    4.40    4.38   272.81974   132.96301   204.61953
    40  C   4.0    0.16    3.29    3.05   271.16245   132.39987   202.33485
    41  O   6.0   -0.27    1.22    1.80   271.66133   133.32017   200.21646
    42  N   5.0   -0.25    3.22    1.96   269.23870   130.84651   202.70712
    43  H   1.0    0.09    1.13    1.45   276.11353   132.80238   207.74324
    44  H   1.0    0.06    1.12    1.45   275.95101   131.36619   203.00759
    45  H   1.0    0.04    1.10    1.44   272.44557   131.75547   205.94611
    46  H   1.0    0.05    1.09    1.44   272.40022   134.62408   205.27148
    47  H   1.0    0.12    1.09    1.44   268.27494   130.43455   201.46557
    48  H   1.0    0.10    1.09    1.44   268.95147   130.24936   204.19056
    49  N   5.0   -0.15    3.51    2.08   276.50281   137.37174   203.72569
    50  C   4.0    0.04    4.48    4.50   277.30217   139.75279   202.45957
    51  C   4.0    0.17    3.52    3.12   279.89676   139.31249   201.29739
    52  O   6.0   -0.29    1.25    1.80   280.28604   139.90208   199.07318
    53  C   4.0   -0.03    4.43    4.43   277.49681   141.89574   204.36630
    54  C   4.0    0.17    3.30    3.05   275.04961   143.30548   204.74047
    55  O   6.0   -0.27    1.21    1.80   274.27860   144.77757   203.12286
    56  N   5.0   -0.24    3.23    1.96   273.83452   142.88218   206.89665
    57  H   1.0    0.10    1.13    1.45   276.04361   137.56071   205.27337
    58  H   1.0    0.08    1.12    1.45   276.06817   140.21011   201.18211
    59  H   1.0    0.06    1.11    1.44   278.04672   141.21544   205.97635
    60  H   1.0    0.07    1.10    1.44   278.78749   143.07304   203.81261
    61  H   1.0    0.12    1.09    1.44   272.43990   143.65697   207.20845
    62  H   1.0    0.11    1.09    1.44   274.44301   141.83338   207.97946
    63  N   5.0   -0.15    3.54    2.10   281.68255   138.36384   202.80350
    64  C   4.0    0.04    4.52    4.56   284.25258   137.82338   202.02493
    65  C   4.0    0.17    3.50    3.11   284.25447   136.21712   199.65144
    66  O   6.0   -0.32    1.27    1.80   285.44121   136.89364   197.82974
    67  C   4.0   -0.04    4.42    4.42   285.73790   136.45522   204.09607
    68  C   4.0    0.17    3.31    3.06   286.13096   138.08039   206.40343
    69  O   6.0   -0.27    1.21    1.80   286.47490   140.39341   206.27115
    70  N   5.0   -0.23    3.24    1.96   286.15553   136.86151   208.60118
    71  H   1.0    0.13    1.16    1.45   281.40476   138.00858   204.36441
    72  H   1.0    0.07    1.13    1.45   285.06894   139.43154   201.69423
    73  H   1.0    0.06    1.10    1.44   284.84406   134.92832   204.57417
    74  H   1.0    0.04    1.09    1.44   287.36685   135.93744   203.43278
    75  H   1.0    0.13    1.09    1.44   286.41442   137.67976   209.98068
    76  H   1.0    0.10    1.09    1.44   285.91176   135.25525   208.64275
    77  N   5.0   -0.16    3.55    2.11   282.98835   134.03448   199.76671
    78  C   4.0    0.03    4.51    4.56   282.82017   132.29782   197.62565
    79  C   4.0    0.16    3.50    3.11   281.76381   133.58095   195.29940
    80  O   6.0   -0.32    1.29    1.80   282.75969   133.28048   193.19991
    81  C   4.0   -0.05    4.46    4.48   281.25925   129.96779   198.37587
    82  C   4.0   -0.03    4.33    4.26   282.52915   128.46168   200.50559
    83  C   4.0   -0.09    4.22    4.05   280.77359   126.38109   201.41644
    84  C   4.0   -0.10    4.24    4.08   284.98390   127.32218   199.51727
    85  H   1.0    0.12    1.16    1.46   282.20222   133.52237   201.09519
    86  H   1.0    0.05    1.14    1.45   284.51336   131.74791   197.18534
    87  H   1.0    0.06    1.09    1.44   279.58873   130.49880   198.91444
    88  H   1.0    0.04    1.09    1.44   281.03248   128.88687   196.91322
    89  H   1.0    0.05    1.13    1.45   282.89575   129.57662   201.91344
    90  H   1.0    0.04    1.06    1.44   281.58806   125.43812   202.76004
    91  H   1.0    0.05    1.06    1.44   279.22024   127.12375   202.04572
    92  H   1.0    0.04    1.06    1.44   280.38998   125.25104   200.02560
    93  H   1.0    0.04    1.06    1.44   285.79648   126.36786   200.85330
    94  H   1.0    0.04    1.06    1.44   284.61729   126.20913   198.10753
    95  H   1.0    0.04    1.06    1.44   286.10073   128.66388   198.95980
    96  N   5.0   -0.16    3.58    2.14   279.74747   135.02092   195.68490
    97  C   4.0    0.03    4.46    4.48   278.53049   136.38719   193.64022
    98  C   4.0    0.17    3.48    3.11   280.51470   138.07094   192.32875
    99  O   6.0   -0.29    1.24    1.80   280.67722   138.23912   190.01572
   100  C   4.0   -0.05    4.38    4.34   276.43100   138.06716   194.82697
   101  C   4.0   -0.03    4.30    4.20   274.08396   136.58561   195.56963
   102  C   4.0    0.17    3.28    3.05   272.10353   138.25046   196.82630
   103  O   6.0   -0.26    1.21    1.80   271.93534   138.44699   199.13365
   104  N   5.0   -0.24    3.22    1.96   270.49726   139.47500   195.27672
   105  H   1.0    0.13    1.17    1.46   279.05016   135.23068   197.13810
   106  H   1.0    0.05    1.11    1.45   277.81428   135.19666   192.44591
   107  H   1.0    0.08    1.10    1.44   277.10185   138.90998   196.31040
   108  H   1.0    0.05    1.09    1.44   275.96235   139.37485   193.63266
   109  H   1.0    0.04    1.09    1.44   273.36209   135.80138   194.07863
   110  H   1.0    0.08    1.10    1.44   274.55450   135.23257   196.71291
   111  H   1.0    0.10    1.09    1.44   270.64277   139.31627   193.66478
   112  H   1.0    0.12    1.08    1.44   269.32752   140.41609   195.89655
   113  N   5.0   -0.15    3.55    2.12   282.17955   139.17643   193.85565
   114  C   4.0    0.04    4.46    4.48   284.22234   140.78269   192.91456
   115  C   4.0    0.17    3.47    3.10   285.89097   139.14430   191.13633
   116  O   6.0   -0.30    1.22    1.80   286.54481   139.96066   189.04063
   117  C   4.0   -0.05    4.37    4.32   285.80782   141.86362   195.11609
   118  C   4.0   -0.05    4.28    4.16   287.78825   143.78736   194.25249
   119  C   4.0   -0.01    4.34    4.28   286.51647   146.04936   193.04117
   120  N   5.0   -0.16    3.43    2.04   288.13785   148.31703   192.91834
   121  C   4.0    0.11    3.48    3.11   288.21911   149.92141   190.98893
   122  N   5.0   -0.23    3.33    1.99   286.77725   149.50756   188.98204
   123  N   5.0   -0.24    3.30    1.98   289.50979   152.04735   191.17224
   124  H   1.0    0.13    1.15    1.45   282.15687   139.01580   195.47325
   125  H   1.0    0.07    1.12    1.45   283.53070   142.21511   192.00372
   126  H   1.0    0.06    1.09    1.44   284.68721   142.65919   196.32930
   127  H   1.0    0.06    1.10    1.44   286.64875   140.48601   195.98537
   128  H   1.0    0.05    1.09    1.44   288.79359   144.33160   195.68490
   129  H   1.0    0.05    1.09    1.44   288.93721   143.00501   193.05818
   130  H   1.0    0.06    1.10    1.44   285.99113   145.59960   191.34420
   131  H   1.0    0.06    1.09    1.44   284.99713   146.45376   193.98226
   132  H   1.0    0.10    1.14    1.45   289.10161   148.62128   194.19013
   133  H   1.0    0.13    1.10    1.44   285.80026   148.20932   188.93669
   134  H   1.0    0.11    1.09    1.44   286.81883   150.53746   187.72538
   135  H   1.0    0.11    1.09    1.44   290.30348   152.40073   192.54607
   136  H   1.0    0.11    1.09    1.44   289.55704   153.07914   189.91746
   137  N   5.0   -0.16    3.54    2.10   286.49568   136.83695   191.98104
   138  C   4.0    0.03    4.58    4.64   288.03203   135.08139   190.55241
   139  C   4.0    0.16    3.56    3.14   286.94733   134.75258   187.91813
   140  O   6.0   -0.31    1.32    1.80   288.28336   135.17021   186.06242
   141  C   4.0   -0.03    4.42    4.41   288.22478   132.50758   191.86388
   142  C   4.0   -0.09    4.24    4.08   289.37940   130.50636   190.09698
   143  C   4.0   -0.09    4.23    4.05   289.72711   132.63420   194.29784
   144  H   1.0    0.12    1.15    1.45   286.00813   136.26058   193.42101
   145  H   1.0    0.05    1.13    1.45   289.72144   135.78248   190.44280
   146  H   1.0    0.06    1.15    1.45   286.51080   132.01625   192.28528
   147  H   1.0    0.04    1.05    1.44   289.47956   128.90010   190.97381
   148  H   1.0    0.05    1.06    1.44   288.32683   130.32495   188.60788
   149  H   1.0    0.04    1.05    1.44   291.06126   131.03171   189.59431
   150  H   1.0    0.04    1.06    1.44   289.79892   130.96935   195.05940
   151  H   1.0    0.04    1.06    1.44   291.42787   133.21434   193.93690
   152  H   1.0    0.05    1.06    1.44   288.91642   133.80016   195.45624
   153  N   5.0   -0.16    3.51    2.09   284.52848   134.07228   187.77829
   154  C   4.0    0.03    4.49    4.53   283.21890   133.68677   185.35377
   155  C   4.0    0.17    3.51    3.12   283.93132   135.61429   183.35444
   156  O   6.0   -0.29    1.25    1.80   284.68155   134.92832   181.28519
   157  C   4.0   -0.06    4.42    4.41   280.36730   133.79071   185.76006
   158  C   4.0   -0.06    4.32    4.24   279.37708   131.79705   187.56664
   159  C   4.0   -0.02    4.35    4.29   276.52927   131.69311   187.42491
   160  N   5.0   -0.17    3.46    2.05   275.51826   129.49347   188.76661
   161  C   4.0    0.11    3.50    3.11   273.37720   128.35775   188.13923
   162  N   5.0   -0.24    3.32    1.99   271.96747   129.12875   186.21171
   163  N   5.0   -0.24    3.33    1.99   272.59864   126.46424   189.51495
   164  H   1.0    0.12    1.15    1.45   283.59117   133.81905   189.08220
   165  H   1.0    0.05    1.13    1.45   283.74424   132.04082   184.74150
   166  H   1.0    0.06    1.10    1.44   279.91755   135.44800   186.40068
   167  H   1.0    0.04    1.10    1.44   279.52826   133.59607   184.14246
   168  H   1.0    0.04    1.10    1.44   280.08573   130.16054   187.14334
   169  H   1.0    0.06    1.09    1.44   279.90621   132.18444   189.27873
   170  H   1.0    0.04    1.09    1.44   275.82440   133.22568   188.14301
   171  H   1.0    0.04    1.10    1.44   276.00581   131.63264   185.66935
   172  H   1.0    0.09    1.14    1.45   276.35919   128.90766   190.02895
   173  H   1.0    0.10    1.10    1.44   272.43612   130.40621   185.32164
   174  H   1.0    0.10    1.09    1.44   270.58608   128.35019   185.85266
   175  H   1.0    0.11    1.10    1.44   273.47169   125.97858   190.79807
   176  H   1.0    0.10    1.10    1.44   271.21347   125.70268   189.13889
   177  N   5.0   -0.15    3.55    2.12   283.87652   138.01236   184.06687
   178  C   4.0    0.03    4.49    4.52   284.52092   140.10239   182.35477
   179  C   4.0    0.17    3.48    3.11   287.17787   139.83027   181.29464
   180  O   6.0   -0.27    1.22    1.80   287.62574   140.10239   179.03264
   181  C   4.0   -0.05    4.41    4.40   284.34895   142.58927   183.81175
   182  C   4.0   -0.03    4.29    4.17   281.74113   143.12973   184.92291
   183  C   4.0    0.25    3.15    3.03   281.83562   145.42764   186.62556
   184  O   6.0   -0.29    1.17    1.80   281.94900   147.59705   185.66368
   185  O   6.0   -0.29    1.18    1.80   281.80160   145.10072   188.96126
   186  H   1.0    0.11    1.14    1.45   283.46456   138.49046   185.56353
   187  H   1.0    0.06    1.12    1.45   283.33984   140.07594   180.95260
   188  H   1.0    0.07    1.10    1.44   285.57916   142.56659   185.17047
   189  H   1.0    0.06    1.09    1.44   284.81194   143.96499   182.69304
   190  H   1.0    0.05    1.09    1.44   280.53549   143.40752   183.57176
   191  H   1.0    0.06    1.09    1.44   281.15721   141.67464   185.87344
   192  N   5.0   -0.15    3.59    2.15   288.92209   139.18399   182.97460
   193  C   4.0    0.04    4.52    4.56   291.59038   138.80415   182.32265
   194  C   4.0    0.17    3.50    3.11   291.81148   136.66120   180.44237
   195  O   6.0   -0.28    1.24    1.80   292.98500   136.94844   178.47139
   196  C   4.0   -0.06    4.46    4.48   293.14185   138.27692   184.66591
   197  C   4.0   -0.02    4.32    4.24   293.08327   140.45010   186.60666
   198  C   4.0   -0.09    4.23    4.06   293.88640   139.51847   189.17858
   199  C   4.0   -0.09    4.20    4.01   294.73489   142.68754   185.78085
   200  H   1.0    0.12    1.16    1.45   288.59517   138.94777   184.54875
   201  H   1.0    0.06    1.13    1.45   292.24801   140.33483   181.55920
   202  H   1.0    0.06    1.10    1.44   292.52202   136.74624   185.46148
   203  H   1.0    0.04    1.09    1.44   294.87851   137.95944   184.17458
   204  H   1.0    0.06    1.13    1.45   291.35417   141.04914   186.70303
   205  H   1.0    0.04    1.06    1.44   293.83916   140.90742   190.37477
   206  H   1.0    0.04    1.06    1.44   292.74501   138.19566   189.73415
   207  H   1.0    0.04    1.06    1.44   295.59093   138.85328   189.08409
   208  H   1.0    0.04    1.05    1.44   294.64796   144.01035   187.04507
   209  H   1.0    0.04    1.05    1.44   296.47155   142.13007   185.59754
   210  H   1.0    0.05    1.05    1.44   294.12829   143.33571   184.17647
   211  N   5.0   -0.16    3.52    2.09   290.44899   134.61463   180.96016
   212  C   4.0    0.04    4.34    4.28   290.41497   132.45278   179.27452
   213  C   4.0    0.11    3.25    3.04   289.55326   133.20300   176.61568
   214  O   6.0   -0.28    1.11    1.80   290.53781   132.22790   174.73918
   215  C   4.0   -0.08    4.22    4.04   288.68776   130.39865   180.32521
   216  H   1.0    0.12    1.15    1.45   289.52869   134.44644   182.28863
   217  H   1.0    0.06    1.13    1.45   292.12518   131.80461   179.15736
   218  H   1.0    0.05    1.06    1.44   288.67832   128.96435   179.18381
   219  H   1.0    0.04    1.06    1.44   289.29815   129.86764   181.96927
   220  H   1.0    0.06    1.06    1.44   286.98512   131.05627   180.49150
   221  N   5.0   -0.24    3.25    1.97   304.05124   141.32882   192.63866
   222  C   4.0    0.03    4.41    4.40   301.66262   141.93921   193.90856
   223  C   4.0    0.15    3.48    3.11   300.45887   139.45422   194.74949
   224  O   6.0   -0.31    1.28    1.80   299.97888   139.12162   197.01149
   225  C   4.0   -0.06    4.39    4.36   299.90518   143.43587   192.18324
   226  C   4.0   -0.04    4.31    4.22   297.24444   143.77602   193.24716
   227  C   4.0    0.25    3.16    3.03   297.13673   145.39362   195.57341
   228  O   6.0   -0.30    1.19    1.80   295.13551   146.60305   195.95891
   229  O   6.0   -0.28    1.21    1.80   298.87528   145.34638   197.15322
   230  H   1.0    0.10    1.08    1.44   304.10604   141.69354   191.05507
   231  H   1.0    0.07    1.13    1.45   301.97821   143.00690   195.36365
   232  H   1.0    0.05    1.09    1.44   300.63839   145.08749   191.87332
   233  H   1.0    0.04    1.09    1.44   299.79557   142.58549   190.56374
   234  H   1.0    0.04    1.10    1.44   296.17864   144.52057   191.95458
   235  H   1.0    0.05    1.10    1.44   296.54335   142.12818   193.63644
   236  N   5.0   -0.18    3.51    2.08   300.13194   137.71189   192.95992
   237  C   4.0    0.02    4.54    4.59   299.02457   135.23257   193.51739
   238  C   4.0    0.16    3.51    3.12   300.21887   133.99291   195.86065
   239  O   6.0   -0.32    1.26    1.80   298.87150   132.76837   197.35164
   240  C   4.0   -0.03    4.45    4.46   299.32881   133.45245   191.21003
   241  C   4.0   -0.06    4.33    4.25   298.12506   134.59762   188.82520
   242  C   4.0   -0.08    4.29    4.18   298.04002   130.95423   191.77695
   243  C   4.0   -0.09    4.17    3.94   298.27812   132.77403   186.61422
   244  H   1.0    0.09    1.14    1.45   300.54013   137.92732   191.40089
   245  H   1.0    0.05    1.12    1.45   297.24633   135.50469   193.87265
   246  H   1.0    0.05    1.12    1.45   301.12027   133.21056   190.90578
   247  H   1.0    0.04    1.09    1.44   296.37139   135.01714   189.15968
   248  H   1.0    0.04    1.09    1.44   298.97732   136.16231   188.39434
   249  H   1.0    0.04    1.06    1.44   298.22332   129.83173   190.34076
   250  H   1.0    0.06    1.06    1.44   298.81292   130.18889   193.25282
   251  H   1.0    0.04    1.06    1.44   296.25990   131.24336   192.10198
   252  H   1.0    0.04    1.05    1.44   297.50900   133.53748   185.13645
   253  H   1.0    0.04    1.06    1.44   300.03557   132.39042   186.25706
   254  H   1.0    0.04    1.06    1.44   297.38995   131.22635   187.03374
   255  N   5.0   -0.16    3.51    2.08   302.69063   134.28204   196.18946
   256  C   4.0    0.03    4.49    4.53   303.96431   133.17277   198.35508
   257  C   4.0    0.16    3.47    3.10   303.00244   134.33873   200.84196
   258  O   6.0   -0.30    1.29    1.80   302.33725   132.99135   202.61075
   259  C   4.0    0.04    4.28    4.17   306.92551   133.48457   198.15666
   260  O   6.0   -0.28    2.14    1.84   307.70408   132.75136   195.63010
   261  C   4.0   -0.07    4.19    3.98   308.28422   131.77815   199.98403
   262  H   1.0    0.09    1.13    1.45   303.65817   135.11163   195.18223
   263  H   1.0    0.06    1.12    1.45   303.57503   131.38131   198.35697
   264  H   1.0    0.04    1.10    1.44   307.34125   135.22879   198.53839
   265  H   1.0    0.14    1.07    1.44   307.20330   133.83795   194.58508
   266  H   1.0    0.05    1.06    1.44   310.09458   132.01625   199.81395
   267  H   1.0    0.05    1.06    1.44   307.77400   132.18633   201.69612
   268  H   1.0    0.06    1.06    1.44   307.86092   130.03204   199.62120
   269  N   5.0   -0.16    3.58    2.14   302.92118   136.84639   200.97991
   270  C   4.0    0.03    4.54    4.59   301.94797   138.18999   203.17389
   271  C   4.0    0.17    3.59    3.16   299.33448   137.22245   203.70112
   272  O   6.0   -0.30    1.28    1.80   298.65985   136.76892   205.89887
   273  C   4.0   -0.05    4.47    4.50   301.87616   140.94899   202.63720
   274  C   4.0   -0.03    4.32    4.23   299.91841   142.49667   204.15276
   275  C   4.0    0.17    3.27    3.05   300.23777   145.34827   203.79183
   276  O   6.0   -0.28    1.20    1.80   298.41985   146.81092   204.01103
   277  N   5.0   -0.23    3.25    1.97   302.55835   146.15329   203.18333
   278  H   1.0    0.10    1.14    1.45   303.43519   137.82338   199.78750
   279  H   1.0    0.05    1.13    1.45   303.02511   137.91409   204.63086
   280  H   1.0    0.04    1.11    1.44   303.54101   141.64441   202.96413
   281  H   1.0    0.07    1.11    1.44   301.53790   141.18143   200.85141
   282  H   1.0    0.06    1.09    1.44   298.22899   142.00724   203.63687
   283  H   1.0    0.05    1.09    1.44   300.07336   142.09038   205.93289
   284  H   1.0    0.10    1.10    1.44   303.77723   145.08749   203.04727
   285  H   1.0    0.12    1.08    1.44   302.82858   147.73500   202.93011
   286  N   5.0   -0.15    3.52    2.09   297.86238   136.94466   201.66966
   287  C   4.0    0.04    4.53    4.58   295.25645   135.98090   201.88698
   288  C   4.0    0.16    3.49    3.11   295.19409   133.51859   203.33640
   289  O   6.0   -0.31    1.29    1.80   294.23978   133.39009   205.43022
   290  C   4.0   -0.06    4.41    4.39   293.97711   135.63130   199.31884
   291  C   4.0   -0.06    4.30    4.21   293.02846   138.06149   198.11698
   292  C   4.0   -0.01    4.39    4.36   291.65085   139.68287   200.00104
   293  N   5.0   -0.16    3.44    2.04   292.37840   142.34550   199.80450
   294  C   4.0    0.13    3.47    3.10   293.03035   143.74011   201.80005
   295  N   5.0   -0.23    3.30    1.98   293.08138   142.74801   204.12631
   296  N   5.0   -0.21    3.30    1.98   293.53491   146.17975   201.45046
   297  H   1.0    0.12    1.15    1.45   298.32726   137.29993   200.15221
   298  H   1.0    0.05    1.15    1.45   294.31348   137.25646   202.80728
   299  H   1.0    0.06    1.10    1.44   295.16385   134.83195   198.17367
   300  H   1.0    0.04    1.10    1.44   292.56359   134.48046   199.51538
   301  H   1.0    0.06    1.10    1.44   294.44387   138.99501   197.42156
   302  H   1.0    0.04    1.09    1.44   291.91164   137.66087   196.71858
   303  H   1.0    0.05    1.09    1.44   289.84428   139.52414   199.73647
   304  H   1.0    0.04    1.13    1.45   292.00045   139.07816   201.69612
   305  H   1.0    0.10    1.13    1.45   292.38596   143.04092   198.33619
   306  H   1.0    0.11    1.10    1.44   292.69020   141.18709   204.35307
   307  H   1.0    0.12    1.09    1.44   293.50657   143.67208   205.39431
   308  H   1.0    0.13    1.10    1.44   293.43665   146.82415   199.96135
   309  H   1.0    0.13    1.09    1.44   293.95821   147.11139   202.71279
   310  N   5.0   -0.16    3.52    2.09   296.35816   131.57217   202.22902
   311  C   4.0    0.03    4.45    4.46   296.49989   129.04372   203.43845
   312  C   4.0    0.17    3.45    3.10   297.55625   129.19678   206.10674
   313  O   6.0   -0.29    1.23    1.80   296.69453   127.84563   207.81127
   314  C   4.0   -0.05    4.45    4.46   298.13639   127.32784   201.76037
   315  C   4.0   -0.03    4.29    4.17   297.27846   126.69857   199.08641
   316  C   4.0   -0.07    4.19    3.98   299.33826   125.21324   197.61809
   317  C   4.0   -0.09    4.23    4.05   294.86150   125.15277   199.13365
   318  H   1.0    0.12    1.15    1.45   297.08382   131.65910   200.77771
   319  H   1.0    0.05    1.12    1.45   294.81237   128.34641   203.59151
   320  H   1.0    0.06    1.10    1.44   299.79179   128.10452   201.63376
   321  H   1.0    0.05    1.10    1.44   298.35560   125.74047   202.65043
   322  H   1.0    0.05    1.13    1.45   296.97421   128.28972   198.22847
   323  H   1.0    0.06    1.05    1.44   298.73544   124.84286   195.92679
   324  H   1.0    0.05    1.05    1.44   300.86516   126.22424   197.51416
   325  H   1.0    0.06    1.05    1.44   299.70298   123.64477   198.49303
   326  H   1.0    0.05    1.06    1.44   294.34560   124.77105   197.41589
   327  H   1.0    0.05    1.06    1.44   295.15252   123.58997   200.04450
   328  H   1.0    0.04    1.06    1.44   293.54058   126.10897   199.96891
   329  N   5.0   -0.14    3.51    2.08   299.45164   130.79549   206.49980
   330  C   4.0    0.05    4.49    4.52   300.67052   131.12619   208.99802
   331  C   4.0    0.16    3.44    3.09   298.92441   132.22979   210.99168
   332  O   6.0   -0.27    1.25    1.80   298.70898   131.23202   213.04959
   333  C   4.0   -0.03    4.38    4.35   303.15173   132.62286   208.69189
   334  C   4.0    0.17    3.31    3.05   305.13594   131.19044   207.19900
   335  O   6.0   -0.28    1.24    1.80   304.79768   128.97569   206.68311
   336  N   5.0   -0.24    3.23    1.96   307.16550   132.49058   206.50358
   337  H   1.0    0.13    1.16    1.46   300.08470   131.73280   205.33195
   338  H   1.0    0.08    1.14    1.45   301.11082   129.44434   209.58195
   339  H   1.0    0.06    1.09    1.44   302.79835   134.21401   207.85285
   340  H   1.0    0.05    1.09    1.44   303.82069   133.02915   210.34917
   341  H   1.0    0.11    1.09    1.44   308.33524   131.77059   205.63431
   342  H   1.0    0.10    1.09    1.44   307.31101   134.05527   206.91932
   343  N   5.0   -0.15    3.56    2.12   297.54302   134.25180   210.33217
   344  C   4.0    0.04    4.47    4.49   295.77802   135.49524   212.03103
   345  C   4.0    0.17    3.52    3.12   293.85050   133.45245   212.80771
   346  O   6.0   -0.25    1.23    1.80   293.31003   133.11230   215.03758
   347  C   4.0   -0.04    4.37    4.33   294.42875   137.66654   210.64208
   348  C   4.0   -0.03    4.28    4.16   292.17053   138.78147   212.11985
   349  C   4.0    0.26    3.15    3.03   292.95854   140.13074   214.51602
   350  O   6.0   -0.27    1.18    1.80   295.06370   141.24379   214.54815
   351  O   6.0   -0.26    1.17    1.80   291.49779   140.02302   216.35661
   352  H   1.0    0.13    1.17    1.46   297.61861   134.93588   208.86007
   353  H   1.0    0.07    1.11    1.45   296.62650   136.21145   213.48990
   354  H   1.0    0.07    1.09    1.44   295.63818   139.00257   210.30571
   355  H   1.0    0.06    1.09    1.44   293.83538   137.05804   209.01692
   356  H   1.0    0.06    1.09    1.44   291.26346   139.95310   211.04081
   357  H   1.0    0.06    1.09    1.44   291.00457   137.43221   212.54504
   358  N   5.0   -0.16    3.54    2.11   292.97555   132.00870   210.91987
   359  C   4.0    0.04    4.52    4.56   291.13685   130.02826   211.28270
   360  C   4.0    0.11    3.35    3.06   291.96077   128.28027   213.36329
   361  O   6.0   -0.28    1.13    1.80   290.62095   127.82106   215.16042
   362  C   4.0   -0.03    4.48    4.51   290.73812   128.47113   208.88464
   363  C   4.0   -0.05    4.33    4.26   289.86506   130.14165   206.70011
   364  C   4.0   -0.09    4.30    4.19   288.75013   126.48314   209.43077
   365  C   4.0   -0.09    4.13    3.86   289.31326   128.68656   204.23969
   366  H   1.0    0.12    1.16    1.45   293.45743   132.17499   209.37786
   367  H   1.0    0.05    1.13    1.45   289.55704   130.84651   211.72490
   368  H   1.0    0.06    1.13    1.45   292.32171   127.68878   208.39709
   369  H   1.0    0.04    1.09    1.44   288.35139   131.04116   207.21034
   370  H   1.0    0.07    1.12    1.45   291.15197   131.40398   206.36752
   371  H   1.0    0.04    1.06    1.44   288.46856   125.47213   207.92844
   372  H   1.0    0.05    1.06    1.44   289.32460   125.40221   210.79515
   373  H   1.0    0.04    1.06    1.44   287.18354   127.30139   209.91832
   374  H   1.0    0.04    1.05    1.44   288.77091   129.86197   202.94145
   375  H   1.0    0.04    1.05    1.44   290.83260   127.82295   203.68600
   376  H   1.0    0.04    1.05    1.44   287.98857   127.45635   204.54016
   377  N   5.0   -0.25    3.24    1.96   292.17809   115.06730   197.30629
   378  C   4.0    0.02    4.29    4.18   292.99823   117.29907   195.91545
   379  C   4.0    0.07    3.22    3.04   295.60983   118.06630   196.86409
   380  O   6.0   -0.32    1.13    1.80   296.55469   120.06752   196.20836
   381  C   4.0   -0.06    4.42    4.42   291.08016   119.44958   196.21214
   382  C   4.0   -0.03    4.26    4.12   288.66509   119.32486   194.56429
   383  C   4.0   -0.09    4.20    4.00   287.12685   121.76638   194.95736
   384  C   4.0   -0.09    4.20    4.00   289.26224   119.05273   191.72971
   385  H   1.0    0.10    1.08    1.44   292.11762   115.26950   198.91822
   386  H   1.0    0.04    1.13    1.45   293.10027   116.91923   194.12588
   387  H   1.0    0.04    1.09    1.44   290.56615   119.51383   197.96958
   388  H   1.0    0.05    1.10    1.44   291.93620   121.02939   195.84742
   389  H   1.0    0.04    1.12    1.45   287.72022   117.84331   195.08397
   390  H   1.0    0.04    1.05    1.44   285.60940   121.70591   193.93124
   391  H   1.0    0.04    1.05    1.44   286.66387   121.91945   196.72425
   392  H   1.0    0.04    1.05    1.44   288.13785   123.21391   194.46414
   393  H   1.0    0.04    1.05    1.44   287.69755   118.98281   190.77917
   394  H   1.0    0.04    1.05    1.44   290.25057   120.49082   191.17224
   395  H   1.0    0.04    1.05    1.44   290.21466   117.51261   191.45003
   396  N   5.0   -0.22    3.25    1.97   300.26234   119.18124   191.25916
   397  C   4.0    0.03    4.28    4.15   299.17007   120.55696   189.12188
   398  C   4.0    0.08    3.27    3.05   301.21287   122.39377   188.25261
   399  O   6.0   -0.30    1.15    1.80   301.82325   124.13988   189.59998
   400  C   4.0   -0.05    4.44    4.45   296.77768   122.02527   189.94769
   401  C   4.0   -0.03    4.34    4.28   296.01423   124.24003   188.22048
   402  C   4.0   -0.10    4.23    4.07   294.62150   123.31029   185.91691
   403  C   4.0   -0.09    4.23    4.07   294.41930   126.10708   189.68880
   404  H   1.0    0.12    1.08    1.44   299.95809   119.84831   192.70858
   405  H   1.0    0.03    1.11    1.45   298.66174   119.41367   187.78207
   406  H   1.0    0.04    1.09    1.44   295.37550   120.84797   190.04029
   407  H   1.0    0.06    1.10    1.44   297.04791   122.67345   191.64089
   408  H   1.0    0.05    1.14    1.45   297.53546   125.08285   187.64223
   409  H   1.0    0.04    1.06    1.44   294.16230   124.73703   184.86244
   410  H   1.0    0.04    1.06    1.44   295.70054   122.17267   184.96827
   411  H   1.0    0.04    1.06    1.44   293.10405   122.42212   186.43658
   412  H   1.0    0.04    1.06    1.44   293.94309   127.49792   188.59465
   413  H   1.0    0.04    1.06    1.44   292.90941   125.26993   190.30485
   414  H   1.0    0.04    1.06    1.44   295.38306   126.74959   191.10987
   415  N   5.0   -0.24    3.20    1.96   283.07528   118.82597   186.95626
   416  C   4.0    0.02    4.33    4.26   282.35529   121.04640   188.47182
   417  C   4.0    0.07    3.24    3.04   279.59629   120.89900   189.32786
   418  O   6.0   -0.30    1.11    1.80   278.99914   121.24860   191.55207
   419  C   4.0   -0.03    4.43    4.42   282.81828   123.59564   187.06208
   420  C   4.0   -0.06    4.32    4.24   285.66609   124.11342   186.71815
   421  C   4.0   -0.08    4.28    4.17   281.58617   125.77449   188.44158
   422  C   4.0   -0.09    4.19    3.97   286.17254   126.45101   185.27251
   423  H   1.0    0.09    1.08    1.44   283.71023   119.21147   185.51062
   424  H   1.0    0.04    1.13    1.45   283.44566   121.01427   189.94391
   425  H   1.0    0.04    1.13    1.45   282.05294   123.44635   185.40290
   426  H   1.0    0.04    1.10    1.44   286.45978   124.23814   188.36599
   427  H   1.0    0.04    1.10    1.44   286.43899   122.69235   185.85644
   428  H   1.0    0.04    1.07    1.44   281.90176   127.33351   187.52884
   429  H   1.0    0.05    1.06    1.44   279.77960   125.48536   188.55119
   430  H   1.0    0.05    1.06    1.44   282.28726   125.90488   190.13100
   431  H   1.0    0.04    1.06    1.44   287.98290   126.68912   185.11000
   432  H   1.0    0.04    1.06    1.44   285.42232   126.31495   183.60577
   433  H   1.0    0.04    1.06    1.44   285.44499   127.88531   186.15312
   434  H   1.0    0.10    1.08    1.44   274.44482   138.85510   212.32401
   435  H   1.0    0.08    1.04    1.43   288.18645   134.48883   176.39305
   436  H   1.0    0.10    1.08    1.44   305.32164   142.18561   193.37661
   437  H   1.0    0.07    1.05    1.44   293.66033   127.45749   213.28855
   438  H   1.0    0.09    1.08    1.44   290.61510   114.62622   196.80125
   439  H   1.0    0.05    1.05    1.44   296.56286   116.92731   198.03264
   440  H   1.0    0.09    1.08    1.44   299.63484   117.60094   191.29751
   441  H   1.0    0.05    1.04    1.44   302.04548   122.15515   186.57306
   442  H   1.0    0.09    1.07    1.44   284.23895   117.91624   187.79937
   443  H   1.0    0.05    1.04    1.44   278.23704   120.51270   188.07316

  Z AO/shell   Hii/eV     exponent
  1     Wed Apr 25 08:07:45 CEST 2018   EN: 2.200 GM2: 0.406  GM3: 0.0800  RAES: 1.40
     1s    -10.707211    1.230000
  6     Wed Apr 25 08:07:45 CEST 2018   EN: 2.550 GM2: 0.538  GM3: 0.1500  RAES: 3.00
     2s    -13.970922    2.096432
     2p    -10.063292    1.800000
  7     Wed Apr 25 08:07:45 CEST 2018   EN: 3.040 GM2: 0.461  GM3:-0.0640  RAES: 1.90
     2s    -16.686243    2.339881
     2p    -12.523956    2.014332
  8     Wed Apr 25 08:07:45 CEST 2018   EN: 3.440 GM2: 0.452  GM3:-0.0517  RAES: 1.80
     2s    -20.229985    2.439742
     2p    -15.503117    2.137023
 no old-style atom pair restraining (fixing) potential

molecular fragmentation (1/2 indicates fragments):
111111111111111111111111111111111111111111111111111111111111111111111111
111111111111111111111111111111111111111111111111111111111111111111111111
111111111111111111111111111111111111111111111111111111111111111111111111
111122222222222222222222222222222222222222222222222222222222222222222222
222222222222222222222222222222222222222222222222222222222222222222222222
222222222222222222222222222222222222222222222222222222222222222222222222
21122222222
# atoms in fragment 1/2:   222   221
 fragment masses (1/2) :     1552.75     1443.77
CMA distance (Bohr)    :  15.213
constraining FC (au)   :  0.0500
           ------------------------------------------------- 
          |        Self-Consistent Charge Iterations        |
           ------------------------------------------------- 

 Ncao       : 1073
 Nao        : 1073
 Nshell     : 653
 Nel        : 1194
 T(el)      :   500.0
 intcut     :    35.0
 scfconv/Eh :  0.100E-06
   qconv/e  :  0.100E-04
 intneglect :  0.100E-08
 broydamp   :      0.400
 iter      E             dE          RMSdq      gap      omega  full diag
   1   -687.4156851 -0.687416E+03  0.458E+00    3.24       0.0  T
   2   -689.1385828 -0.172290E+01  0.211E+00    2.04       1.0  T
   3   -689.2327821 -0.941994E-01  0.123E+00    2.34       1.0  T
   4   -689.3276929 -0.949108E-01  0.235E-01    1.81       1.0  T
   5   -689.3351594 -0.746647E-02  0.112E-01    1.98       1.0  T
   6   -689.3357367 -0.577261E-03  0.473E-02    1.99       1.0  T
   7   -689.3359426 -0.205876E-03  0.181E-02    2.05       1.0  T
   8   -689.3359619 -0.193162E-04  0.933E-03    2.05       1.0  T
   9   -689.3359704 -0.853524E-05  0.348E-03    2.06       1.4  T
  10   -689.3359715 -0.106576E-05  0.171E-03    2.06       2.8  T
  11   -689.3359718 -0.293348E-06  0.745E-04    2.06       6.4  T
  12   -689.3359718 -0.518017E-07  0.332E-04    2.06      14.3  T
  13   -689.3359718 -0.103747E-07  0.151E-04    2.06      31.4  T
  14   -689.3359718 -0.206592E-08  0.575E-05    2.06      82.6  T
  15   -689.3359718 -0.346517E-09  0.241E-05    2.06     197.1  T
speedup  1.00
cpu  time for SCC    7.39 s
wall time for SCC    7.39 s

   *** convergence criteria satisfied after 15 iterations ***

          eigenvalues
 #    :         585        586        587        588        589        590        591        592
 occ. :        2.000      2.000      2.000      2.000      2.000      2.000      2.000      2.000
 eps  :       -10.407    -10.333    -10.094    -10.003     -9.858     -9.850     -9.847     -9.839
 #    :         593        594        595        596        597        598        599        600
 occ. :        2.000      2.000      2.000      2.000      2.000      0.000      0.000      0.000
 eps  :        -9.751     -9.708     -9.704     -9.632     -9.628     -7.569     -7.551     -7.538
 #    :         601        602        603        604        605        606        607        608
 occ. :        0.000      0.000      0.000      0.000      0.000      0.000      0.000      0.000
 eps  :        -7.366     -7.250     -6.854     -6.799     -6.682     -6.604     -6.602     -6.558


   #   Z            q   n(s)   n(p)   n(d)      C6AA      α(0)
   1   7 N     -0.421  1.278  4.143  0.000    30.971     8.265
   2   6 C      0.021  1.035  2.944  0.000    20.234     6.406
   3   6 C      0.264  1.051  2.686  0.000    22.554     7.777
   4   8 O     -0.513  1.747  4.766  0.000    24.080     6.579
   5   6 C     -0.072  1.007  3.065  0.000    21.870     6.656
   6   6 C     -0.114  1.015  3.100  0.000    22.678     6.778
   7   6 C      0.370  1.023  2.607  0.000    20.733     7.452
   8   8 O     -0.683  1.793  4.890  0.000    28.256     7.127
   9   8 O     -0.655  1.767  4.887  0.000    27.501     7.031
  10   1 H      0.195  0.805  0.000  0.000     1.132     1.666
  11   1 H      0.055  0.945  0.000  0.000     2.259     2.350
  12   1 H      0.068  0.932  0.000  0.000     2.104     2.268
  13   1 H      0.027  0.973  0.000  0.000     2.630     2.536
  14   1 H      0.049  0.951  0.000  0.000     2.337     2.390
  15   1 H      0.034  0.966  0.000  0.000     2.532     2.488
  16   7 N     -0.196  1.214  3.982  0.000    25.264     7.465
  17   6 C     -0.007  1.059  2.948  0.000    20.711     6.481
  18   6 C      0.274  1.043  2.683  0.000    22.358     7.743
  19   8 O     -0.464  1.728  4.736  0.000    23.006     6.431
  20   6 C     -0.047  1.048  2.999  0.000    21.378     6.576
  21   6 C     -0.088  1.003  3.085  0.000    22.160     6.700
  22   6 C     -0.159  0.974  3.185  0.000    23.617     6.924
  23   6 C     -0.151  0.974  3.177  0.000    23.463     6.903
  24   1 H      0.224  0.776  0.000  0.000     0.992     1.560
  25   1 H      0.075  0.925  0.000  0.000     2.027     2.226
  26   1 H      0.078  0.922  0.000  0.000     2.002     2.213
  27   1 H      0.041  0.959  0.000  0.000     2.437     2.441
  28   1 H      0.043  0.957  0.000  0.000     2.413     2.429
  29   1 H      0.090  0.910  0.000  0.000     1.882     2.145
  30   1 H      0.073  0.927  0.000  0.000     2.052     2.240
  31   1 H      0.063  0.937  0.000  0.000     2.158     2.297
  32   1 H      0.051  0.949  0.000  0.000     2.306     2.374
  33   1 H      0.068  0.932  0.000  0.000     2.111     2.272
  34   1 H      0.068  0.932  0.000  0.000     2.106     2.269
  35   7 N     -0.198  1.211  3.986  0.000    25.289     7.469
  36   6 C      0.017  1.041  2.942  0.000    20.291     6.414
  37   6 C      0.286  1.036  2.678  0.000    22.150     7.707
  38   8 O     -0.458  1.727  4.730  0.000    22.867     6.411
  39   6 C     -0.133  1.018  3.116  0.000    23.045     6.832
  40   6 C      0.278  1.034  2.688  0.000    22.297     7.732
  41   8 O     -0.493  1.770  4.723  0.000    23.630     6.517
  42   7 N     -0.291  1.197  4.094  0.000    27.513     7.790
  43   1 H      0.223  0.777  0.000  0.000     0.997     1.564
  44   1 H      0.117  0.883  0.000  0.000     1.637     2.001
  45   1 H      0.106  0.894  0.000  0.000     1.735     2.059
  46   1 H      0.091  0.909  0.000  0.000     1.864     2.135
  47   1 H      0.253  0.747  0.000  0.000     0.871     1.462
  48   1 H      0.246  0.754  0.000  0.000     0.897     1.483
  49   7 N     -0.197  1.211  3.986  0.000    25.287     7.468
  50   6 C      0.028  1.042  2.930  0.000    20.105     6.384
  51   6 C      0.276  1.041  2.684  0.000    22.339     7.740
  52   8 O     -0.489  1.739  4.750  0.000    23.535     6.504
  53   6 C     -0.122  1.011  3.110  0.000    22.812     6.796
  54   6 C      0.288  1.032  2.680  0.000    22.110     7.699
  55   8 O     -0.490  1.751  4.738  0.000    23.556     6.507
  56   7 N     -0.296  1.194  4.102  0.000    27.628     7.806
  57   1 H      0.204  0.796  0.000  0.000     1.088     1.634
  58   1 H      0.106  0.894  0.000  0.000     1.730     2.056
  59   1 H      0.080  0.920  0.000  0.000     1.974     2.197
  60   1 H      0.088  0.912  0.000  0.000     1.894     2.152
  61   1 H      0.252  0.748  0.000  0.000     0.877     1.467
  62   1 H      0.218  0.782  0.000  0.000     1.020     1.582
  63   7 N     -0.184  1.205  3.979  0.000    24.986     7.424
  64   6 C      0.016  1.034  2.950  0.000    20.309     6.416
  65   6 C      0.267  1.036  2.697  0.000    22.487     7.765
  66   8 O     -0.469  1.720  4.749  0.000    23.105     6.445
  67   6 C     -0.135  1.017  3.117  0.000    23.068     6.835
  68   6 C      0.286  1.035  2.679  0.000    22.153     7.707
  69   8 O     -0.506  1.766  4.740  0.000    23.908     6.556
  70   7 N     -0.283  1.186  4.097  0.000    27.309     7.761
  71   1 H      0.217  0.783  0.000  0.000     1.021     1.583
  72   1 H      0.098  0.902  0.000  0.000     1.801     2.099
  73   1 H      0.110  0.890  0.000  0.000     1.692     2.034
  74   1 H      0.116  0.884  0.000  0.000     1.644     2.005
  75   1 H      0.200  0.800  0.000  0.000     1.106     1.648
  76   1 H      0.227  0.773  0.000  0.000     0.977     1.548
  77   7 N     -0.190  1.214  3.976  0.000    25.111     7.442
  78   6 C     -0.003  1.044  2.960  0.000    20.640     6.468
  79   6 C      0.260  1.043  2.696  0.000    22.613     7.787
  80   8 O     -0.490  1.737  4.753  0.000    23.570     6.509
  81   6 C     -0.111  1.019  3.092  0.000    22.602     6.766
  82   6 C     -0.040  1.036  3.004  0.000    21.246     6.555
  83   6 C     -0.159  0.979  3.180  0.000    23.618     6.925
  84   6 C     -0.171  0.983  3.188  0.000    23.858     6.960
  85   1 H      0.232  0.768  0.000  0.000     0.957     1.532
  86   1 H      0.112  0.888  0.000  0.000     1.677     2.025
  87   1 H      0.072  0.928  0.000  0.000     2.065     2.247
  88   1 H      0.097  0.903  0.000  0.000     1.811     2.104
  89   1 H      0.056  0.944  0.000  0.000     2.246     2.343
  90   1 H      0.063  0.937  0.000  0.000     2.163     2.300
  91   1 H      0.047  0.953  0.000  0.000     2.363     2.403
  92   1 H      0.072  0.928  0.000  0.000     2.065     2.247
  93   1 H      0.064  0.936  0.000  0.000     2.146     2.291
  94   1 H      0.074  0.926  0.000  0.000     2.036     2.231
  95   1 H      0.055  0.945  0.000  0.000     2.261     2.351
  96   7 N     -0.183  1.213  3.970  0.000    24.974     7.422
  97   6 C      0.003  1.049  2.948  0.000    20.532     6.452
  98   6 C      0.273  1.043  2.684  0.000    22.378     7.746
  99   8 O     -0.494  1.745  4.749  0.000    23.643     6.519
 100   6 C     -0.093  1.012  3.082  0.000    22.262     6.715
 101   6 C     -0.129  1.014  3.115  0.000    22.964     6.820
 102   6 C      0.288  1.042  2.670  0.000    22.126     7.702
 103   8 O     -0.504  1.762  4.742  0.000    23.868     6.550
 104   7 N     -0.316  1.203  4.114  0.000    28.145     7.879
 105   1 H      0.232  0.768  0.000  0.000     0.958     1.533
 106   1 H      0.111  0.889  0.000  0.000     1.686     2.030
 107   1 H      0.071  0.929  0.000  0.000     2.069     2.249
 108   1 H      0.069  0.931  0.000  0.000     2.101     2.266
 109   1 H      0.095  0.905  0.000  0.000     1.829     2.115
 110   1 H      0.107  0.893  0.000  0.000     1.721     2.051
 111   1 H      0.240  0.760  0.000  0.000     0.922     1.504
 112   1 H      0.230  0.770  0.000  0.000     0.964     1.538
 113   7 N     -0.187  1.211  3.976  0.000    25.054     7.434
 114   6 C      0.007  1.047  2.946  0.000    20.469     6.443
 115   6 C      0.271  1.050  2.679  0.000    22.412     7.752
 116   8 O     -0.504  1.754  4.750  0.000    23.863     6.549
 117   6 C     -0.113  1.016  3.096  0.000    22.640     6.772
 118   6 C     -0.104  1.006  3.097  0.000    22.464     6.746
 119   6 C     -0.041  1.012  3.028  0.000    21.367     6.592
 120   7 N     -0.160  1.186  3.974  0.000    24.452     7.344
 121   6 C      0.231  1.015  2.755  0.000    23.159     7.879
 122   7 N     -0.252  1.167  4.085  0.000    26.556     7.654
 123   7 N     -0.269  1.173  4.096  0.000    26.965     7.712
 124   1 H      0.218  0.782  0.000  0.000     1.017     1.580
 125   1 H      0.099  0.901  0.000  0.000     1.796     2.095
 126   1 H      0.076  0.924  0.000  0.000     2.025     2.225
 127   1 H      0.095  0.905  0.000  0.000     1.831     2.116
 128   1 H      0.084  0.916  0.000  0.000     1.937     2.176
 129   1 H      0.079  0.921  0.000  0.000     1.986     2.204
 130   1 H      0.092  0.908  0.000  0.000     1.857     2.131
 131   1 H      0.098  0.902  0.000  0.000     1.805     2.101
 132   1 H      0.237  0.763  0.000  0.000     0.934     1.514
 133   1 H      0.228  0.772  0.000  0.000     0.973     1.545
 134   1 H      0.253  0.747  0.000  0.000     0.871     1.462
 135   1 H      0.258  0.742  0.000  0.000     0.853     1.447
 136   1 H      0.264  0.736  0.000  0.000     0.832     1.429
 137   7 N     -0.183  1.207  3.976  0.000    24.959     7.420
 138   6 C      0.004  1.040  2.956  0.000    20.504     6.446
 139   6 C      0.277  1.041  2.683  0.000    22.323     7.737
 140   8 O     -0.498  1.744  4.755  0.000    23.750     6.534
 141   6 C     -0.056  1.043  3.013  0.000    21.541     6.600
 142   6 C     -0.163  0.983  3.181  0.000    23.707     6.939
 143   6 C     -0.170  0.980  3.190  0.000    23.840     6.958
 144   1 H      0.225  0.775  0.000  0.000     0.987     1.556
 145   1 H      0.086  0.914  0.000  0.000     1.919     2.166
 146   1 H      0.092  0.908  0.000  0.000     1.863     2.134
 147   1 H      0.088  0.912  0.000  0.000     1.899     2.155
 148   1 H      0.061  0.939  0.000  0.000     2.190     2.314
 149   1 H      0.065  0.935  0.000  0.000     2.145     2.290
 150   1 H      0.085  0.915  0.000  0.000     1.929     2.172
 151   1 H      0.062  0.938  0.000  0.000     2.170     2.303
 152   1 H      0.052  0.948  0.000  0.000     2.291     2.367
 153   7 N     -0.191  1.213  3.979  0.000    25.154     7.449
 154   6 C      0.003  1.043  2.954  0.000    20.533     6.451
 155   6 C      0.280  1.033  2.686  0.000    22.254     7.725
 156   8 O     -0.493  1.744  4.748  0.000    23.619     6.516
 157   6 C     -0.109  1.010  3.100  0.000    22.565     6.759
 158   6 C     -0.114  1.007  3.108  0.000    22.669     6.776
 159   6 C     -0.047  1.011  3.036  0.000    21.476     6.608
 160   7 N     -0.154  1.180  3.974  0.000    24.330     7.326
 161   6 C      0.225  1.013  2.763  0.000    23.267     7.898
 162   7 N     -0.262  1.168  4.094  0.000    26.794     7.688
 163   7 N     -0.259  1.170  4.089  0.000    26.727     7.678
 164   1 H      0.234  0.766  0.000  0.000     0.949     1.526
 165   1 H      0.105  0.895  0.000  0.000     1.740     2.062
 166   1 H      0.078  0.922  0.000  0.000     2.002     2.212
 167   1 H      0.087  0.913  0.000  0.000     1.903     2.157
 168   1 H      0.099  0.901  0.000  0.000     1.793     2.094
 169   1 H      0.080  0.920  0.000  0.000     1.977     2.199
 170   1 H      0.094  0.906  0.000  0.000     1.840     2.121
 171   1 H      0.103  0.897  0.000  0.000     1.762     2.075
 172   1 H      0.236  0.764  0.000  0.000     0.939     1.517
 173   1 H      0.246  0.754  0.000  0.000     0.897     1.483
 174   1 H      0.260  0.740  0.000  0.000     0.844     1.439
 175   1 H      0.252  0.748  0.000  0.000     0.874     1.464
 176   1 H      0.264  0.736  0.000  0.000     0.833     1.429
 177   7 N     -0.191  1.210  3.981  0.000    25.145     7.447
 178   6 C      0.015  1.042  2.943  0.000    20.317     6.417
 179   6 C      0.279  1.037  2.684  0.000    22.276     7.729
 180   8 O     -0.517  1.757  4.760  0.000    24.175     6.592
 181   6 C     -0.075  1.004  3.071  0.000    21.918     6.662
 182   6 C     -0.114  1.012  3.102  0.000    22.666     6.776
 183   6 C      0.363  1.025  2.612  0.000    20.843     7.472
 184   8 O     -0.663  1.777  4.886  0.000    27.707     7.057
 185   8 O     -0.645  1.767  4.878  0.000    27.250     6.999
 186   1 H      0.217  0.783  0.000  0.000     1.024     1.585
 187   1 H      0.079  0.921  0.000  0.000     1.986     2.203
 188   1 H      0.063  0.937  0.000  0.000     2.167     2.302
 189   1 H      0.054  0.946  0.000  0.000     2.270     2.356
 190   1 H      0.042  0.958  0.000  0.000     2.426     2.436
 191   1 H      0.052  0.948  0.000  0.000     2.296     2.369
 192   7 N     -0.187  1.212  3.975  0.000    25.058     7.435
 193   6 C      0.016  1.036  2.948  0.000    20.308     6.416
 194   6 C      0.280  1.036  2.683  0.000    22.259     7.726
 195   8 O     -0.511  1.755  4.756  0.000    24.033     6.573
 196   6 C     -0.109  1.014  3.095  0.000    22.560     6.759
 197   6 C     -0.032  1.034  2.998  0.000    21.111     6.535
 198   6 C     -0.156  0.977  3.178  0.000    23.543     6.914
 199   6 C     -0.156  0.979  3.177  0.000    23.548     6.916
 200   1 H      0.231  0.769  0.000  0.000     0.959     1.534
 201   1 H      0.080  0.920  0.000  0.000     1.975     2.198
 202   1 H      0.089  0.911  0.000  0.000     1.891     2.150
 203   1 H      0.076  0.924  0.000  0.000     2.024     2.225
 204   1 H      0.050  0.950  0.000  0.000     2.324     2.384
 205   1 H      0.055  0.945  0.000  0.000     2.256     2.349
 206   1 H      0.055  0.945  0.000  0.000     2.262     2.352
 207   1 H      0.066  0.934  0.000  0.000     2.125     2.279
 208   1 H      0.055  0.945  0.000  0.000     2.256     2.349
 209   1 H      0.059  0.941  0.000  0.000     2.205     2.322
 210   1 H      0.044  0.956  0.000  0.000     2.392     2.418
 211   7 N     -0.183  1.209  3.974  0.000    24.960     7.420
 212   6 C      0.023  1.035  2.943  0.000    20.197     6.399
 213   6 C      0.212  1.086  2.702  0.000    23.508     7.940
 214   8 O     -0.379  1.758  4.621  0.000    21.271     6.183
 215   6 C     -0.166  0.983  3.183  0.000    23.750     6.944
 216   1 H      0.237  0.763  0.000  0.000     0.936     1.515
 217   1 H      0.104  0.896  0.000  0.000     1.749     2.068
 218   1 H      0.093  0.907  0.000  0.000     1.850     2.127
 219   1 H      0.100  0.900  0.000  0.000     1.781     2.087
 220   1 H      0.090  0.910  0.000  0.000     1.874     2.141
 221   7 N     -0.432  1.286  4.146  0.000    31.290     8.308
 222   6 C      0.018  1.037  2.945  0.000    20.275     6.412
 223   6 C      0.262  1.054  2.684  0.000    22.581     7.782
 224   8 O     -0.514  1.750  4.764  0.000    24.098     6.582
 225   6 C     -0.081  1.006  3.075  0.000    22.034     6.681
 226   6 C     -0.116  1.012  3.104  0.000    22.702     6.781
 227   6 C      0.360  1.023  2.617  0.000    20.898     7.482
 228   8 O     -0.670  1.766  4.904  0.000    27.910     7.083
 229   8 O     -0.645  1.774  4.870  0.000    27.239     6.997
 230   1 H      0.189  0.811  0.000  0.000     1.161     1.688
 231   1 H      0.071  0.929  0.000  0.000     2.073     2.251
 232   1 H      0.045  0.955  0.000  0.000     2.386     2.415
 233   1 H      0.055  0.945  0.000  0.000     2.261     2.351
 234   1 H      0.052  0.948  0.000  0.000     2.298     2.370
 235   1 H      0.047  0.953  0.000  0.000     2.351     2.398
 236   7 N     -0.189  1.210  3.978  0.000    25.093     7.440
 237   6 C     -0.006  1.053  2.953  0.000    20.679     6.475
 238   6 C      0.269  1.047  2.684  0.000    22.456     7.760
 239   8 O     -0.488  1.749  4.739  0.000    23.522     6.502
 240   6 C     -0.045  1.047  2.998  0.000    21.338     6.569
 241   6 C     -0.095  1.008  3.087  0.000    22.300     6.721
 242   6 C     -0.160  0.979  3.181  0.000    23.633     6.927
 243   6 C     -0.155  0.977  3.178  0.000    23.528     6.913
 244   1 H      0.223  0.777  0.000  0.000     0.996     1.563
 245   1 H      0.098  0.902  0.000  0.000     1.805     2.101
 246   1 H      0.067  0.933  0.000  0.000     2.121     2.277
 247   1 H      0.067  0.933  0.000  0.000     2.114     2.273
 248   1 H      0.044  0.956  0.000  0.000     2.389     2.417
 249   1 H      0.085  0.915  0.000  0.000     1.924     2.169
 250   1 H      0.059  0.941  0.000  0.000     2.212     2.325
 251   1 H      0.075  0.925  0.000  0.000     2.031     2.228
 252   1 H      0.055  0.945  0.000  0.000     2.252     2.347
 253   1 H      0.057  0.943  0.000  0.000     2.238     2.339
 254   1 H      0.071  0.929  0.000  0.000     2.070     2.250
 255   7 N     -0.178  1.198  3.980  0.000    24.857     7.405
 256   6 C     -0.009  1.053  2.956  0.000    20.747     6.486
 257   6 C      0.267  1.044  2.689  0.000    22.501     7.767
 258   8 O     -0.485  1.750  4.734  0.000    23.450     6.493
 259   6 C      0.095  1.035  2.870  0.000    19.114     6.244
 260   8 O     -0.485  1.693  4.792  0.000    22.580     6.415
 261   6 C     -0.166  0.980  3.187  0.000    23.768     6.948
 262   1 H      0.213  0.787  0.000  0.000     1.039     1.597
 263   1 H      0.110  0.890  0.000  0.000     1.700     2.039
 264   1 H      0.059  0.941  0.000  0.000     2.215     2.327
 265   1 H      0.335  0.665  0.000  0.000     0.624     1.240
 266   1 H      0.095  0.905  0.000  0.000     1.828     2.114
 267   1 H      0.064  0.936  0.000  0.000     2.150     2.293
 268   1 H      0.086  0.914  0.000  0.000     1.922     2.168
 269   7 N     -0.188  1.207  3.981  0.000    25.078     7.437
 270   6 C      0.015  1.030  2.955  0.000    20.320     6.417
 271   6 C      0.274  1.038  2.688  0.000    22.375     7.747
 272   8 O     -0.515  1.760  4.755  0.000    24.113     6.584
 273   6 C     -0.108  1.008  3.100  0.000    22.540     6.756
 274   6 C     -0.119  1.013  3.106  0.000    22.776     6.793
 275   6 C      0.283  1.044  2.673  0.000    22.205     7.715
 276   8 O     -0.508  1.759  4.749  0.000    23.964     6.563
 277   7 N     -0.298  1.196  4.103  0.000    27.687     7.815
 278   1 H      0.225  0.775  0.000  0.000     0.987     1.556
 279   1 H      0.091  0.909  0.000  0.000     1.870     2.138
 280   1 H      0.084  0.916  0.000  0.000     1.935     2.175
 281   1 H      0.099  0.901  0.000  0.000     1.791     2.093
 282   1 H      0.076  0.924  0.000  0.000     2.021     2.223
 283   1 H      0.087  0.913  0.000  0.000     1.912     2.162
 284   1 H      0.237  0.763  0.000  0.000     0.934     1.514
 285   1 H      0.239  0.761  0.000  0.000     0.925     1.507
 286   7 N     -0.187  1.215  3.973  0.000    25.061     7.435
 287   6 C     -0.002  1.041  2.961  0.000    20.610     6.463
 288   6 C      0.273  1.035  2.692  0.000    22.388     7.748
 289   8 O     -0.500  1.748  4.752  0.000    23.776     6.538
 290   6 C     -0.120  1.014  3.106  0.000    22.776     6.792
 291   6 C     -0.111  1.006  3.105  0.000    22.609     6.767
 292   6 C     -0.049  1.008  3.041  0.000    21.516     6.614
 293   7 N     -0.149  1.180  3.970  0.000    24.230     7.311
 294   6 C      0.228  1.021  2.750  0.000    23.201     7.886
 295   7 N     -0.256  1.161  4.096  0.000    26.661     7.669
 296   7 N     -0.245  1.173  4.072  0.000    26.400     7.631
 297   1 H      0.239  0.761  0.000  0.000     0.926     1.507
 298   1 H      0.079  0.921  0.000  0.000     1.988     2.205
 299   1 H      0.110  0.890  0.000  0.000     1.697     2.037
 300   1 H      0.097  0.903  0.000  0.000     1.816     2.107
 301   1 H      0.083  0.917  0.000  0.000     1.943     2.180
 302   1 H      0.105  0.895  0.000  0.000     1.741     2.063
 303   1 H      0.107  0.893  0.000  0.000     1.723     2.052
 304   1 H      0.078  0.922  0.000  0.000     1.996     2.209
 305   1 H      0.233  0.767  0.000  0.000     0.951     1.528
 306   1 H      0.225  0.775  0.000  0.000     0.987     1.556
 307   1 H      0.237  0.763  0.000  0.000     0.937     1.516
 308   1 H      0.258  0.742  0.000  0.000     0.853     1.447
 309   1 H      0.250  0.750  0.000  0.000     0.882     1.471
 310   7 N     -0.191  1.220  3.971  0.000    25.144     7.447
 311   6 C      0.008  1.048  2.944  0.000    20.448     6.439
 312   6 C      0.276  1.042  2.682  0.000    22.335     7.739
 313   8 O     -0.515  1.757  4.758  0.000    24.126     6.585
 314   6 C     -0.101  1.011  3.091  0.000    22.413     6.737
 315   6 C     -0.032  1.036  2.997  0.000    21.113     6.535
 316   6 C     -0.150  0.982  3.168  0.000    23.443     6.900
 317   6 C     -0.159  0.979  3.180  0.000    23.618     6.925
 318   1 H      0.242  0.758  0.000  0.000     0.915     1.498
 319   1 H      0.104  0.896  0.000  0.000     1.750     2.069
 320   1 H      0.065  0.935  0.000  0.000     2.144     2.290
 321   1 H      0.071  0.929  0.000  0.000     2.079     2.255
 322   1 H      0.067  0.933  0.000  0.000     2.117     2.275
 323   1 H      0.074  0.926  0.000  0.000     2.044     2.235
 324   1 H      0.043  0.957  0.000  0.000     2.403     2.424
 325   1 H      0.055  0.945  0.000  0.000     2.255     2.348
 326   1 H      0.076  0.924  0.000  0.000     2.021     2.223
 327   1 H      0.052  0.948  0.000  0.000     2.294     2.368
 328   1 H      0.056  0.944  0.000  0.000     2.246     2.344
 329   7 N     -0.187  1.215  3.973  0.000    25.063     7.435
 330   6 C      0.020  1.039  2.940  0.000    20.235     6.405
 331   6 C      0.279  1.039  2.682  0.000    22.279     7.729
 332   8 O     -0.501  1.754  4.747  0.000    23.800     6.541
 333   6 C     -0.128  1.016  3.112  0.000    22.930     6.815
 334   6 C      0.293  1.028  2.678  0.000    22.023     7.684
 335   8 O     -0.478  1.745  4.733  0.000    23.307     6.473
 336   7 N     -0.302  1.192  4.110  0.000    27.768     7.826
 337   1 H      0.230  0.770  0.000  0.000     0.965     1.539
 338   1 H      0.104  0.896  0.000  0.000     1.750     2.069
 339   1 H      0.090  0.910  0.000  0.000     1.878     2.143
 340   1 H      0.092  0.908  0.000  0.000     1.855     2.130
 341   1 H      0.244  0.756  0.000  0.000     0.907     1.492
 342   1 H      0.235  0.765  0.000  0.000     0.944     1.522
 343   7 N     -0.206  1.219  3.987  0.000    25.487     7.498
 344   6 C      0.028  1.037  2.934  0.000    20.104     6.385
 345   6 C      0.285  1.045  2.671  0.000    22.176     7.712
 346   8 O     -0.517  1.763  4.754  0.000    24.175     6.592
 347   6 C     -0.084  1.011  3.072  0.000    22.082     6.688
 348   6 C     -0.108  1.013  3.095  0.000    22.552     6.760
 349   6 C      0.370  1.023  2.607  0.000    20.731     7.451
 350   8 O     -0.663  1.772  4.891  0.000    27.707     7.057
 351   8 O     -0.668  1.782  4.887  0.000    27.855     7.076
 352   1 H      0.241  0.759  0.000  0.000     0.920     1.502
 353   1 H      0.062  0.938  0.000  0.000     2.172     2.304
 354   1 H      0.072  0.928  0.000  0.000     2.060     2.244
 355   1 H      0.072  0.928  0.000  0.000     2.059     2.244
 356   1 H      0.051  0.949  0.000  0.000     2.312     2.378
 357   1 H      0.030  0.970  0.000  0.000     2.581     2.512
 358   7 N     -0.196  1.209  3.987  0.000    25.260     7.465
 359   6 C      0.023  1.032  2.945  0.000    20.187     6.396
 360   6 C      0.221  1.074  2.705  0.000    23.338     7.912
 361   8 O     -0.368  1.742  4.626  0.000    21.056     6.152
 362   6 C     -0.040  1.039  3.000  0.000    21.241     6.554
 363   6 C     -0.105  1.009  3.095  0.000    22.481     6.748
 364   6 C     -0.158  0.979  3.180  0.000    23.594     6.920
 365   6 C     -0.157  0.981  3.177  0.000    23.593     6.923
 366   1 H      0.232  0.768  0.000  0.000     0.956     1.531
 367   1 H      0.081  0.919  0.000  0.000     1.968     2.194
 368   1 H      0.077  0.923  0.000  0.000     2.012     2.218
 369   1 H      0.046  0.954  0.000  0.000     2.372     2.408
 370   1 H      0.062  0.938  0.000  0.000     2.172     2.304
 371   1 H      0.096  0.904  0.000  0.000     1.822     2.111
 372   1 H      0.049  0.951  0.000  0.000     2.337     2.390
 373   1 H      0.068  0.932  0.000  0.000     2.107     2.270
 374   1 H      0.072  0.928  0.000  0.000     2.060     2.244
 375   1 H      0.057  0.943  0.000  0.000     2.234     2.337
 376   1 H      0.079  0.921  0.000  0.000     1.988     2.205
 377   7 N     -0.428  1.289  4.139  0.000    31.173     8.292
 378   6 C      0.023  1.036  2.941  0.000    20.203     6.402
 379   6 C      0.190  1.089  2.721  0.000    23.941     8.013
 380   8 O     -0.368  1.750  4.619  0.000    21.061     6.153
 381   6 C     -0.100  1.015  3.085  0.000    22.390     6.735
 382   6 C     -0.031  1.040  2.991  0.000    21.090     6.532
 383   6 C     -0.157  0.981  3.175  0.000    23.572     6.919
 384   6 C     -0.150  0.978  3.173  0.000    23.437     6.899
 385   1 H      0.177  0.823  0.000  0.000     1.230     1.737
 386   1 H      0.097  0.903  0.000  0.000     1.816     2.107
 387   1 H      0.054  0.946  0.000  0.000     2.273     2.358
 388   1 H      0.072  0.928  0.000  0.000     2.064     2.247
 389   1 H      0.045  0.955  0.000  0.000     2.386     2.415
 390   1 H      0.061  0.939  0.000  0.000     2.188     2.313
 391   1 H      0.055  0.945  0.000  0.000     2.257     2.349
 392   1 H      0.063  0.937  0.000  0.000     2.161     2.298
 393   1 H      0.053  0.947  0.000  0.000     2.285     2.364
 394   1 H      0.059  0.941  0.000  0.000     2.208     2.323
 395   1 H      0.044  0.956  0.000  0.000     2.390     2.418
 396   7 N     -0.409  1.287  4.122  0.000    30.626     8.219
 397   6 C      0.023  1.035  2.942  0.000    20.200     6.402
 398   6 C      0.206  1.084  2.711  0.000    23.633     7.962
 399   8 O     -0.360  1.748  4.612  0.000    20.904     6.130
 400   6 C     -0.101  1.018  3.083  0.000    22.411     6.737
 401   6 C     -0.028  1.030  2.998  0.000    21.034     6.523
 402   6 C     -0.156  0.977  3.179  0.000    23.551     6.915
 403   6 C     -0.161  0.980  3.180  0.000    23.644     6.928
 404   1 H      0.185  0.815  0.000  0.000     1.188     1.707
 405   1 H      0.060  0.940  0.000  0.000     2.203     2.321
 406   1 H      0.062  0.938  0.000  0.000     2.177     2.307
 407   1 H      0.068  0.932  0.000  0.000     2.110     2.272
 408   1 H      0.035  0.965  0.000  0.000     2.522     2.483
 409   1 H      0.057  0.943  0.000  0.000     2.234     2.337
 410   1 H      0.042  0.958  0.000  0.000     2.416     2.430
 411   1 H      0.062  0.938  0.000  0.000     2.174     2.306
 412   1 H      0.061  0.939  0.000  0.000     2.184     2.311
 413   1 H      0.063  0.937  0.000  0.000     2.165     2.301
 414   1 H      0.058  0.942  0.000  0.000     2.220     2.330
 415   7 N     -0.421  1.289  4.132  0.000    30.962     8.264
 416   6 C      0.018  1.042  2.940  0.000    20.292     6.416
 417   6 C      0.195  1.094  2.711  0.000    23.839     7.996
 418   8 O     -0.382  1.761  4.620  0.000    21.320     6.191
 419   6 C     -0.046  1.049  2.997  0.000    21.358     6.573
 420   6 C     -0.086  1.000  3.086  0.000    22.130     6.695
 421   6 C     -0.162  0.979  3.183  0.000    23.681     6.934
 422   6 C     -0.153  0.972  3.180  0.000    23.484     6.906
 423   1 H      0.189  0.811  0.000  0.000     1.163     1.690
 424   1 H      0.068  0.932  0.000  0.000     2.102     2.267
 425   1 H      0.066  0.934  0.000  0.000     2.126     2.280
 426   1 H      0.062  0.938  0.000  0.000     2.178     2.308
 427   1 H      0.050  0.950  0.000  0.000     2.320     2.382
 428   1 H      0.070  0.930  0.000  0.000     2.081     2.256
 429   1 H      0.055  0.945  0.000  0.000     2.263     2.352
 430   1 H      0.069  0.931  0.000  0.000     2.100     2.266
 431   1 H      0.056  0.944  0.000  0.000     2.250     2.346
 432   1 H      0.053  0.947  0.000  0.000     2.278     2.360
 433   1 H      0.054  0.946  0.000  0.000     2.273     2.357
 434   1 H      0.183  0.817  0.000  0.000     1.199     1.715
 435   1 H      0.063  0.937  0.000  0.000     2.161     2.299
 436   1 H      0.181  0.819  0.000  0.000     1.206     1.720
 437   1 H      0.056  0.944  0.000  0.000     2.243     2.342
 438   1 H      0.184  0.816  0.000  0.000     1.189     1.708
 439   1 H      0.059  0.941  0.000  0.000     2.213     2.326
 440   1 H      0.181  0.819  0.000  0.000     1.209     1.722
 441   1 H      0.053  0.947  0.000  0.000     2.280     2.361
 442   1 H      0.174  0.826  0.000  0.000     1.251     1.752
 443   1 H      0.076  0.924  0.000  0.000     2.019     2.222

 Mol. C6AA /au·bohr⁶  :    1739974.316029
 Mol. C8AA /au·bohr⁸  :   38384323.099788
 Mol. α(0) /au        :       1960.702492

 
molecular dipole:
                 x           y           z       tot (Debye)
 q only:     -303.795    -161.348    -228.253
   full:     -304.034    -158.356    -225.315    1042.697
molecular quadrupole (traceless):
                xx          xy          yy          xz          yz          zz
 q only:   -53081.876  -72503.399   46506.500 -103372.843  -54092.800    6575.376
  q+dip:   -54173.146  -71236.717   46779.317 -102203.028  -52603.037    7393.829
   full:   -54173.534  -71237.720   46782.311 -102202.583  -52603.430    7391.223
speedup  1.00
cpu  time for grad    9.71 s
wall time for grad    9.72 s

SCC energy    :    -689.3508724
rep           :      14.7942283
ES            :       2.4963459
AES           :      -0.1034527
AXC           :       0.0815047
disp          :      -0.5930103
XB            :       0.0000000
fix           :       0.0000000
Gborn         :       0.0000000
Gsasa         :       0.0000000
Ghb           :       0.0000000
Gshift        :       0.0000000
Gsolv         :      -0.6819751     -427.95
Etot ala COSMO:    -689.3508724
grad norm     :       2.7467053
total E       :    -674.4898834
atomizationE  :     119.9753001    75285.64
(atE without considering molecular charge,
 total energy contains solvation terms)
H-L gap (eV)  :          2.0592

------------------------------------------------------------------------
 * finished run on 2019/03/07 at 11:37:57.221     
------------------------------------------------------------------------
 total:
 * wall-time:     0 d,  0 h,  0 min, 10.514 sec
 *  cpu-time:     0 d,  0 h,  0 min, 10.360 sec
 * ratio c/w:     0.985 speedup
 SCF:
 * wall-time:     0 d,  0 h,  0 min, 10.195 sec
 *  cpu-time:     0 d,  0 h,  0 min, 10.195 sec
 * ratio c/w:     1.000 speedup

