      -----------------------------------------------------------      
     |                   =====================                   |     
     |                           x T B                           |     
     |                   =====================                   |     
     |                         S. Grimme                         |     
     |          Mulliken Center for Theoretical Chemistry        |     
     |                    University of Bonn                     |     
     |                Version 6.1 RC1 (SAW190329)                |     
      -----------------------------------------------------------      

   This program is distributed in the hope that it will be useful,
   but WITHOUT ANY WARRANTY; without even the implied warranty of
   MERCHANTABILITY or FITNESS FOR A PARTICULAR PURPOSE.
   
   FOR NON-COMMERCIAL, ACADEMIA USE ONLY.
   
   Cite this work as:
   S. Grimme, C. Bannwarth, P. Shushkov, J. Comput. Theory Chem., 2017,
   13, 1989-2009. DOI: 10.1021/acs.jctc.7b00118
   C. Bannwarth, S. Ehlert and S. Grimme., J. Comput. Theory Chem., 2019,
   just accepted. DOI: 10.1021/acs.jctc.8b01176
   
   for sTDA-xTB:
   S. Grimme and C. Bannwarth, J. Chem. Phys., 2016, 145, 054103.
   DOI: 10.1063/1.4959605
   
   in the mass-spec context:
   V. Asgeirsson, C. Bauer and S. Grimme, Chem. Sci., 2017, 8, 4879.
   DOI: 10.1039/c7sc00601b
   
   for metadynamics refer to:
   S. Grimme, ChemRxiv, Preprint. DOI: 10.26434/chemrxiv.7660532.v1
   
   with help from (in alphabetical order)
   C. Bannwarth, F. Bohle, G. Brandenburg, E. Caldeweyher, M. Checinski,
   S. Dohm, S. Ehlert, S. Ehrlich, F. März, H. Neugebauer, J. Pisarek,
   P. Pracht, P. Shushkov, and S. Spicher.
   
 * started run on 2019/05/31 at 07:36:44.984     

           -------------------------------------------------
          |                Calculation Setup                |
           -------------------------------------------------

          program call               : /home/lum/install/xtb/xtb-190329/bin/xtb xtb_tmp.xyz --chrg 0 --grad --gfn 2 --etemp 500 --acc 0.1 --gbsa h2o --parallel 1
          hostname                   : cu05
          coordinate file            : xtb_tmp.xyz
          omp threads                :                     1
          number of atoms            :                   172
          number of electrons        :                   454
          charge                     :                     0
          spin                       :                   0.0
          first test random number   :      0.76384162061221


########################################################################
# WARNING! Please study the warnings concerning your input carefully
#  - XTBPATH is not set, using XTBHOME instead
########################################################################

           ------------------------------------------------- 
          |                 G F N 2 - x T B                 |
          | Geometry, Frequencies, Noncovalent interactions |
          |            JCTC 2018 parametrisation            |
           ------------------------------------------------- 
 
             k(s)              :                1.8500
             k(p)              :                2.2300
             k(d)              :                2.2300
             k(f)              :                2.0000
             kEN (H0ij)        :               -2.0000
             D4 a1             :                0.5200
             D4 a2             :                5.0000
             D4 s6             :                1.0000
             D4 s8             :                2.7000
             D4 s9             :                5.0000
             alphaj            :                2.0000

  Z AO/shell   Hii/eV     exponent
  1     Wed Apr 25 08:07:45 CEST 2018   EN: 2.200 GM2: 0.406  GM3: 0.0800  RAES: 1.40
     1s    -10.707211    1.230000
  6     Wed Apr 25 08:07:45 CEST 2018   EN: 2.550 GM2: 0.538  GM3: 0.1500  RAES: 3.00
     2s    -13.970922    2.096432
     2p    -10.063292    1.800000
  7     Wed Apr 25 08:07:45 CEST 2018   EN: 3.040 GM2: 0.461  GM3:-0.0640  RAES: 1.90
     2s    -16.686243    2.339881
     2p    -12.523956    2.014332
  8     Wed Apr 25 08:07:45 CEST 2018   EN: 3.440 GM2: 0.452  GM3:-0.0517  RAES: 1.80
     2s    -20.229985    2.439742
     2p    -15.503117    2.137023

 Solvent             : h2o
 Using internal parameter file: .param_gbsa2_h2o
 Gsolv ref. state (COSMO-RS): gsolv [1 M gas/solution]
 temperature (mdtemp)       :    298.150000000000     
 dielectric constant        :    80.2000000000000     
 rho                        :    1.00000000000000     
 mass                       :    18.0000000000000     
 surface tension            :    15.5689454083859     
 probe radius               :   0.975313790000000     
 vdW radii scaling          :    1.00000000000000     
 Gshift (Eh)                :   1.857443126794793E-003
 c1                         :    1.55243817000000     
 soset                      :   0.130326360000000     
 HB correction              :  T
 Number of grid points      :          230

            Z     q(EN)     CN     RAES       Cart. coordinates
     1  N   5.0   -0.72    3.00    1.93    81.88317    55.22021    54.05518
     2  C   4.0    0.07    3.99    3.60    82.58543    52.59033    53.75662
     3  C   4.0    0.28    3.01    3.02    80.57684    51.03009    52.38044
     4  O   6.0   -0.42    1.00    1.80    81.12505    49.57270    50.66747
     5  C   4.0   -0.08    3.98    3.59    83.13695    51.45013    56.37864
     6  C   4.0   -0.17    3.98    3.59    85.59818    52.57100    57.42635
     7  C   4.0   -0.21    3.98    3.59    83.25463    48.57064    56.27034
     8  C   4.0   -0.24    3.98    3.58    85.71587    52.46817    60.30181
     9  H   1.0    0.24    1.00    1.43    81.31230    55.79861    55.79300
    10  H   1.0    0.11    0.99    1.43    84.28076    52.50951    52.56129
    11  H   1.0    0.12    0.99    1.43    81.57427    52.00545    57.61611
    12  H   1.0    0.10    0.99    1.43    87.19965    51.56014    56.60743
    13  H   1.0    0.10    0.99    1.43    85.73497    54.54495    56.84440
    14  H   1.0    0.10    0.99    1.43    83.98743    47.82778    58.03715
    15  H   1.0    0.14    0.99    1.43    81.38248    47.78551    55.96217
    16  H   1.0    0.11    0.99    1.43    84.48132    47.96340    54.73705
    17  H   1.0    0.10    0.99    1.43    87.49742    53.24437    60.96660
    18  H   1.0    0.10    0.99    1.43    84.18185    53.58408    61.09085
    19  H   1.0    0.10    0.99    1.43    85.54401    50.53855    60.97983
    20  N   5.0   -0.47    3.01    1.93    78.21961    51.30322    53.24785
    21  C   4.0    0.09    3.99    3.61    76.23672    49.53844    52.63371
    22  C   4.0    0.27    3.01    3.02    74.45287    50.46359    50.55940
    23  O   6.0   -0.48    1.00    1.80    73.01262    48.99392    49.49253
    24  C   4.0    0.03    3.98    3.58    74.79662    48.87353    55.09082
    25  O   6.0   -0.49    1.99    1.82    76.66769    48.39964    56.94005
    26  C   4.0   -0.22    3.98    3.59    73.05985    46.60582    54.73664
    27  H   1.0    0.24    1.00    1.43    77.80322    52.61627    54.58185
    28  H   1.0    0.15    0.99    1.43    77.15683    47.82583    51.90491
    29  H   1.0    0.10    0.99    1.43    73.69864    50.55388    55.64997
    30  H   1.0    0.24    0.99    1.43    75.87781    47.58706    58.37148
    31  H   1.0    0.09    0.99    1.43    72.05575    46.20607    56.48547
    32  H   1.0    0.12    0.99    1.43    71.69382    46.99697    53.25991
    33  H   1.0    0.11    0.99    1.43    74.18054    44.96619    54.21487
    34  N   5.0   -0.48    3.01    1.93    74.57557    52.92180    50.01113
    35  C   4.0    0.07    4.00    3.61    73.15742    54.05531    47.96078
    36  C   4.0    0.27    3.00    3.02    74.92258    54.54866    45.70508
    37  O   6.0   -0.44    1.00    1.80    74.70324    53.36980    43.71966
    38  C   4.0   -0.10    3.98    3.58    71.81358    56.48449    48.82043
    39  C   4.0   -0.22    3.98    3.59    70.31242    57.63044    46.63940
    40  C   4.0   -0.22    3.98    3.59    70.09996    55.92739    51.07372
    41  H   1.0    0.24    1.00    1.43    75.72830    54.06007    51.02798
    42  H   1.0    0.13    0.99    1.43    71.76596    52.65344    47.33972
    43  H   1.0    0.10    0.99    1.43    73.25991    57.83908    49.40542
    44  H   1.0    0.10    0.99    1.43    69.65741    59.50841    47.14739
    45  H   1.0    0.12    0.99    1.43    71.47484    57.77528    44.95217
    46  H   1.0    0.12    0.99    1.43    68.67515    56.47734    46.17968
    47  H   1.0    0.10    0.99    1.43    69.11921    57.64239    51.63175
    48  H   1.0    0.11    0.99    1.43    68.70117    54.50736    50.57717
    49  H   1.0    0.11    0.99    1.43    71.20473    55.24182    52.66592
    50  N   5.0   -0.49    3.01    1.93    76.69893    56.29201    46.12192
    51  C   4.0    0.06    3.99    3.60    78.23353    57.45038    44.17009
    52  C   4.0    0.29    3.01    3.02    79.53966    55.57976    42.40485
    53  O   6.0   -0.40    1.00    1.80    79.99565    56.15188    40.21278
    54  C   4.0   -0.22    3.99    3.60    80.20827    59.15693    45.39249
    55  H   1.0    0.22    1.00    1.43    76.83909    57.11828    47.84743
    56  H   1.0    0.12    0.99    1.43    77.00381    58.59129    42.94507
    57  H   1.0    0.11    0.99    1.43    81.36999    60.01925    43.93684
    58  H   1.0    0.09    0.99    1.43    79.26752    60.62008    46.48859
    59  H   1.0    0.12    0.99    1.43    81.40928    58.05510    46.64430
    60  N   5.0   -0.48    3.00    1.93    80.20030    53.34751    43.40843
    61  C   4.0    0.03    3.99    3.61    81.36500    51.41422    41.87757
    62  C   4.0    0.29    3.00    3.02    80.00020    50.90443    39.37577
    63  O   6.0   -0.42    1.00    1.80    81.17640    50.08070    37.56288
    64  H   1.0    0.27    1.00    1.43    79.78283    52.93220    45.21894
    65  H   1.0    0.13    0.99    1.43    83.30527    51.94038    41.38495
    66  H   1.0    0.12    0.99    1.43    81.40828    49.65041    42.94385
    67  N   5.0   -0.47    3.01    1.93    77.49895    51.25778    39.37821
    68  C   4.0    0.08    3.99    3.61    75.93746    50.63421    37.21487
    69  C   4.0    0.28    3.02    3.02    74.25273    52.89041    36.57446
    70  O   6.0   -0.44    1.00    1.80    72.67732    53.68200    38.10651
    71  C   4.0   -0.09    3.98    3.59    74.30692    48.34500    37.88248
    72  C   4.0    0.30    2.99    3.02    71.99593    48.04962    36.10242
    73  O   6.0   -0.46    1.00    1.80    72.07402    49.20351    34.04227
    74  O   6.0   -0.44    1.00    1.80    70.24228    46.70054    36.89199
    75  H   1.0    0.31    1.00    1.43    76.58078    52.02127    40.88325
    76  H   1.0    0.14    0.99    1.43    77.20517    50.20111    35.64904
    77  H   1.0    0.12    0.99    1.43    75.43376    46.62003    37.78703
    78  H   1.0    0.13    0.99    1.43    73.59216    48.57853    39.79703
    79  N   5.0   -0.33    3.03    1.93    74.59354    54.06960    34.37331
    80  C   4.0    0.07    4.03    3.67    73.15247    56.34696    33.83963
    81  C   4.0    0.28    3.01    3.02    70.29480    55.94073    33.88007
    82  O   6.0   -0.48    1.00    1.80    68.87239    57.72107    34.34794
    83  C   4.0   -0.14    4.01    3.63    74.06100    57.18658    31.21938
    84  C   4.0   -0.15    4.01    3.63    74.91783    54.71789    30.00022
    85  C   4.0   -0.04    4.01    3.64    76.06982    53.25346    32.20591
    86  H   1.0    0.12    0.99    1.43    73.55182    57.77306    35.28936
    87  H   1.0    0.10    0.99    1.43    72.56355    58.12591    30.16995
    88  H   1.0    0.10    0.99    1.43    75.65222    58.47615    31.42615
    89  H   1.0    0.11    0.99    1.43    73.29717    53.68496    29.26100
    90  H   1.0    0.09    0.99    1.43    76.27174    55.01733    28.48590
    91  H   1.0    0.12    0.99    1.43    75.88630    51.21774    31.94819
    92  H   1.0    0.12    0.99    1.43    78.06050    53.73959    32.49283
    93  N   5.0   -0.49    3.01    1.93    69.44007    53.65494    33.26508
    94  C   4.0    0.07    4.00    3.62    66.74743    53.14993    33.33995
    95  C   4.0    0.29    3.01    3.02    65.71164    53.46843    36.01209
    96  O   6.0   -0.43    1.00    1.80    63.61732    54.38790    36.39682
    97  C   4.0   -0.14    3.99    3.60    66.25213    50.51243    32.26846
    98  C   4.0   -0.10    3.98    3.58    63.48658    49.65673    32.28421
    99  C   4.0   -0.23    3.98    3.59    61.73426    51.55243    30.99546
   100  C   4.0   -0.23    3.99    3.60    63.33143    47.09427    30.96493
   101  H   1.0    0.30    1.00    1.43    70.61016    52.11513    33.24559
   102  H   1.0    0.12    0.99    1.43    65.80689    54.59015    32.18026
   103  H   1.0    0.11    0.99    1.43    66.94928    50.49874    30.32542
   104  H   1.0    0.15    0.99    1.43    67.38468    49.15900    33.34162
   105  H   1.0    0.13    0.99    1.43    62.88369    49.44077    34.25241
   106  H   1.0    0.10    0.99    1.43    59.85414    50.74995    30.79668
   107  H   1.0    0.11    0.99    1.43    61.57578    53.26765    32.11178
   108  H   1.0    0.09    0.99    1.43    62.43504    52.02704    29.12269
   109  H   1.0    0.10    0.99    1.43    61.42694    46.33690    31.07323
   110  H   1.0    0.10    0.99    1.43    63.83832    47.28368    28.98138
   111  H   1.0    0.11    0.99    1.43    64.62883    45.76423    31.84152
   112  N   5.0   -0.47    3.01    1.93    67.19690    52.69516    37.90303
   113  C   4.0    0.08    4.00    3.62    66.42611    53.12659    40.49208
   114  C   4.0    0.29    3.02    3.02    66.09557    55.94938    40.99092
   115  O   6.0   -0.39    1.00    1.80    64.31379    56.75079    42.23416
   116  C   4.0   -0.15    3.99    3.60    68.33321    52.06456    42.37417
   117  C   4.0   -0.15    3.98    3.59    68.43561    49.18779    42.30476
   118  C   4.0   -0.03    3.99    3.60    70.59139    48.19560    43.95443
   119  N   5.0   -0.47    3.02    1.93    71.03374    45.56491    43.35364
   120  C   4.0    0.37    3.00    3.02    71.15100    43.66264    44.99366
   121  N   5.0   -0.65    3.02    1.93    71.32031    44.04629    47.46486
   122  N   5.0   -0.65    3.02    1.93    71.12871    41.29342    44.13571
   123  H   1.0    0.29    1.00    1.43    69.01532    52.19954    37.59043
   124  H   1.0    0.14    0.99    1.43    64.56778    52.24455    40.76399
   125  H   1.0    0.15    0.99    1.43    70.19580    52.83406    41.93021
   126  H   1.0    0.10    0.99    1.43    67.79490    52.70032    44.26143
   127  H   1.0    0.12    0.99    1.43    66.64295    48.39342    42.94045
   128  H   1.0    0.15    0.99    1.43    68.74379    48.56833    40.36056
   129  H   1.0    0.14    0.99    1.43    72.29915    49.31414    43.60440
   130  H   1.0    0.14    0.99    1.43    70.12057    48.37294    45.95063
   131  H   1.0    0.25    1.00    1.43    70.96069    45.16591    41.48283
   132  H   1.0    0.30    1.00    1.43    71.78627    45.74789    48.20751
   133  H   1.0    0.26    1.00    1.43    71.29614    42.50830    48.59607
   134  H   1.0    0.26    1.00    1.43    70.77460    40.92122    42.30725
   135  H   1.0    0.26    1.00    1.43    71.01316    39.88488    45.43219
   136  N   5.0   -0.48    3.01    1.93    67.90833    57.43369    40.06783
   137  C   4.0    0.08    4.00    3.62    67.75705    60.15687    40.34133
   138  C   4.0    0.30    3.01    3.02    65.18725    61.05449    39.35498
   139  O   6.0   -0.38    1.00    1.80    63.85342    62.49391    40.58782
   140  C   4.0   -0.09    3.98    3.58    69.95645    61.47501    38.98465
   141  C   4.0   -0.22    3.98    3.59    69.61084    64.33893    39.07127
   142  C   4.0   -0.22    3.98    3.59    72.47390    60.74189    40.19801
   143  H   1.0    0.28    1.00    1.43    69.34565    56.67908    39.06347
   144  H   1.0    0.12    0.99    1.43    67.80009    60.62242    42.36505
   145  H   1.0    0.14    0.99    1.43    69.93917    60.85056    37.01362
   146  H   1.0    0.10    0.99    1.43    71.18882    65.26245    38.13957
   147  H   1.0    0.12    0.99    1.43    67.87831    64.89971    38.12140
   148  H   1.0    0.11    0.99    1.43    69.52276    64.99427    41.01662
   149  H   1.0    0.10    0.99    1.43    74.01792    61.64584    39.18848
   150  H   1.0    0.10    0.99    1.43    72.52435    61.36793    42.15577
   151  H   1.0    0.13    0.99    1.43    72.77860    58.70633    40.14051
   152  N   5.0   -0.47    3.01    1.93    64.50576    60.15508    37.10235
   153  C   4.0    0.08    4.00    3.61    62.10538    60.86906    35.98046
   154  C   4.0    0.10    3.00    3.02    59.94627    60.25206    37.80766
   155  O   6.0   -0.39    1.00    1.80    58.35680    61.84009    38.38385
   156  C   4.0   -0.09    3.98    3.59    61.70663    59.56631    33.41502
   157  C   4.0   -0.16    3.98    3.59    63.66110    60.54396    31.50942
   158  C   4.0   -0.22    3.98    3.59    59.00712    60.01195    32.49315
   159  C   4.0   -0.24    3.98    3.58    63.52093    59.22030    28.95247
   160  H   1.0    0.29    1.00    1.43    65.70215    59.04289    36.10359
   161  H   1.0    0.13    0.99    1.43    62.07027    62.93133    35.72570
   162  H   1.0    0.14    0.99    1.43    61.99699    57.53871    33.70195
   163  H   1.0    0.10    0.99    1.43    63.38762    62.57248    31.24594
   164  H   1.0    0.13    0.99    1.43    65.55159    60.25960    32.28333
   165  H   1.0    0.10    0.99    1.43    58.68062    59.01165    30.73376
   166  H   1.0    0.12    0.99    1.43    57.64300    59.33485    33.87195
   167  H   1.0    0.11    0.99    1.43    58.67937    62.01768    32.18777
   168  H   1.0    0.10    0.99    1.43    65.11371    59.78883    27.78670
   169  H   1.0    0.10    0.99    1.43    63.59268    57.17928    29.18676
   170  H   1.0    0.10    0.99    1.43    61.79324    59.70340    27.95733
   171  H   1.0    0.28    1.00    1.43    83.21159    56.20983    53.66979
   172  H   1.0    0.16    1.00    1.43    59.80948    58.52372    38.55944

           ------------------------------------------------- 
          |        Self-Consistent Charge Iterations        |
           ------------------------------------------------- 

          ...................................................
          :                      SETUP                      :
          :.................................................:
          :  # basis functions                 412          :
          :  # atomic orbitals                 412          :
          :  # shells                          252          :
          :  # electrons                       454          :
          :  max. iterations                   250          :
          :  Hamiltonian                  GFN2-xTB          :
          :  restarted?                      false          :
          :  GBSA solvation                   true          :
          :  PC potential                    false          :
          :  electronic temp.          500.0000000     K    :
          :  accuracy                    0.1000000          :
          :  -> integral cutoff          0.3500000E+02      :
          :  -> integral neglect         0.1000000E-08      :
          :  -> SCF convergence          0.1000000E-06 Eh   :
          :  -> wf. convergence          0.1000000E-04 e    :
          :  Broyden damping             0.4000000          :
          ...................................................

 iter      E             dE          RMSdq      gap      omega  full diag
   1   -258.8174445 -0.258817E+03  0.399E+00    1.90       0.0  T
   2   -259.5315908 -0.714146E+00  0.210E+00    2.01       1.0  T
   3   -259.5580829 -0.264921E-01  0.110E+00    2.59       1.0  T
   4   -259.5633182 -0.523523E-02  0.214E-01    2.31       1.0  T
   5   -259.5668567 -0.353854E-02  0.100E-01    2.54       1.0  T
   6   -259.5670910 -0.234327E-03  0.429E-02    2.54       1.0  T
   7   -259.5671137 -0.226367E-04  0.168E-02    2.56       1.0  T
   8   -259.5671234 -0.974238E-05  0.659E-03    2.56       1.2  T
   9   -259.5671246 -0.117916E-05  0.282E-03    2.56       2.7  T
  10   -259.5671247 -0.136999E-06  0.120E-03    2.56       6.4  T
  11   -259.5671248 -0.532708E-07  0.348E-04    2.56      21.9  T
  12   -259.5671248 -0.304078E-08  0.165E-04    2.56      46.2  T
  13   -259.5671248 -0.631246E-09  0.661E-05    2.56     115.4  T
  14   -259.5671248 -0.106411E-09  0.257E-05    2.56     296.2  T

   *** convergence criteria satisfied after 14 iterations ***

         #    Occupation            Energy/Eh            Energy/eV
      -------------------------------------------------------------
         1        2.0000           -0.7306342             -19.8816
       ...           ...                  ...                  ...
       221        2.0000           -0.3990203             -10.8579
       222        2.0000           -0.3975600             -10.8182
       223        2.0000           -0.3964768             -10.7887
       224        2.0000           -0.3960077             -10.7759
       225        2.0000           -0.3942584             -10.7283
       226        2.0000           -0.3757521             -10.2247
       227        2.0000           -0.3744278             -10.1887 (HOMO)
       228                         -0.2803410              -7.6285 (LUMO)
       229                         -0.2506175              -6.8196
       230                         -0.2373863              -6.4596
       231                         -0.2369885              -6.4488
       232                         -0.2344307              -6.3792
       ...                                ...                  ...
       412                          0.6295654              17.1313
      -------------------------------------------------------------
                  HL-Gap            0.0940868 Eh            2.5602 eV
             Fermi-level           -0.3270885 Eh           -8.9005 eV

 SCC (total)                   0 d,  0 h,  0 min,  1.637 sec
 SCC setup                      ...        0 min,  0.033 sec (  2.003%)
 Dispersion                     ...        0 min,  0.033 sec (  1.993%)
 integral evaluation            ...        0 min,  0.151 sec (  9.216%)
 zeroth order Hamiltonian       ...        0 min,  0.001 sec (  0.072%)
 iterations                     ...        0 min,  0.930 sec ( 56.819%)
 molecular gradient             ...        0 min,  0.464 sec ( 28.360%)
 printout                       ...        0 min,  0.021 sec (  1.286%)

         :::::::::::::::::::::::::::::::::::::::::::::::::::::
         ::                     SUMMARY                     ::
         :::::::::::::::::::::::::::::::::::::::::::::::::::::
         :: total energy             -256.501373230001 Eh   ::
         :: total w/o Gsasa/hb       -256.473080397644 Eh   ::
         :: gradient norm               0.226972094108 Eh/α ::
         :: HOMO-LUMO gap               2.560232949336 eV   ::
         ::.................................................::
         :: SCC energy               -259.575277971425 Eh   ::
         :: -> isotropic ES             0.741533823410 Eh   ::
         :: -> anisotropic ES          -0.026963159602 Eh   ::
         :: -> anisotropic XC           0.079869346633 Eh   ::
         :: -> dispersion              -0.216909504894 Eh   ::
         :: -> Gsolv                   -0.158180691559 Eh   ::
         ::    -> Gborn                -0.129887859202 Eh   ::
         ::    -> Gsasa                -0.010010615974 Eh   ::
         ::    -> Ghb                  -0.020139659510 Eh   ::
         ::    -> Gshift                0.001857443127 Eh   ::
         :: repulsion energy            3.057913131023 Eh   ::
         :: add. restraining            0.000000000000 Eh   ::
         :::::::::::::::::::::::::::::::::::::::::::::::::::::

           -------------------------------------------------
          |                Property Printout                |
           -------------------------------------------------

    * Orbital Energies and Occupations

         #    Occupation            Energy/Eh            Energy/eV
      -------------------------------------------------------------
         1        2.0000           -0.7306342             -19.8816
       ...           ...                  ...                  ...
       215        2.0000           -0.4104891             -11.1700
       216        2.0000           -0.4097673             -11.1503
       217        2.0000           -0.4076502             -11.0927
       218        2.0000           -0.4073721             -11.0852
       219        2.0000           -0.4032822             -10.9739
       220        2.0000           -0.4000060             -10.8847
       221        2.0000           -0.3990203             -10.8579
       222        2.0000           -0.3975600             -10.8182
       223        2.0000           -0.3964768             -10.7887
       224        2.0000           -0.3960077             -10.7759
       225        2.0000           -0.3942584             -10.7283
       226        2.0000           -0.3757521             -10.2247
       227        2.0000           -0.3744278             -10.1887 (HOMO)
       228                         -0.2803410              -7.6285 (LUMO)
       229                         -0.2506175              -6.8196
       230                         -0.2373863              -6.4596
       231                         -0.2369885              -6.4488
       232                         -0.2344307              -6.3792
       233                         -0.2302546              -6.2655
       234                         -0.2278227              -6.1994
       235                         -0.2271732              -6.1817
       236                         -0.2230426              -6.0693
       237                         -0.2207869              -6.0079
       238                         -0.2187912              -5.9536
       ...                                ...                  ...
       412                          0.6295654              17.1313
      -------------------------------------------------------------
                  HL-Gap            0.0940868 Eh            2.5602 eV
             Fermi-level           -0.3270885 Eh           -8.9005 eV

   #   Z        covCN         q      C6AA      α(0)
   1   7 N      2.635    -0.396    30.252     8.169
   2   6 C      3.789     0.023    20.205     6.402
   3   6 C      2.755     0.274    22.365     7.744
   4   8 O      0.859    -0.498    23.737     6.532
   5   6 C      3.855    -0.025    20.975     6.514
   6   6 C      3.804    -0.059    21.640     6.623
   7   6 C      3.754    -0.114    22.731     6.798
   8   6 C      3.752    -0.109    22.641     6.786
   9   1 H      0.860     0.165     1.306     1.790
  10   1 H      0.923     0.040     2.446     2.446
  11   1 H      0.924     0.044     2.397     2.421
  12   1 H      0.924     0.034     2.536     2.491
  13   1 H      0.924     0.034     2.528     2.486
  14   1 H      0.925     0.047     2.359     2.402
  15   1 H      0.925     0.046     2.373     2.409
  16   1 H      0.925     0.032     2.558     2.501
  17   1 H      0.925     0.038     2.477     2.461
  18   1 H      0.925     0.039     2.457     2.451
  19   1 H      0.925     0.039     2.461     2.453
  20   7 N      2.690    -0.171    24.690     7.380
  21   6 C      3.797     0.006    20.475     6.443
  22   6 C      2.753     0.262    22.576     7.780
  23   8 O      0.859    -0.467    23.071     6.440
  24   6 C      3.726     0.117    18.763     6.185
  25   8 O      1.656    -0.485    22.581     6.415
  26   6 C      3.752    -0.146    23.376     6.895
  27   1 H      0.860     0.211     1.054     1.608
  28   1 H      0.923     0.099     1.793     2.094
  29   1 H      0.923     0.025     2.656     2.549
  30   1 H      0.805     0.343     0.605     1.221
  31   1 H      0.925     0.064     2.153     2.295
  32   1 H      0.925     0.072     2.060     2.244
  33   1 H      0.925     0.068     2.110     2.272
  34   7 N      2.689    -0.164    24.538     7.357
  35   6 C      3.799    -0.000    20.585     6.460
  36   6 C      2.751     0.267    22.492     7.766
  37   8 O      0.858    -0.480    23.354     6.479
  38   6 C      3.852    -0.027    21.016     6.520
  39   6 C      3.756    -0.112    22.702     6.794
  40   6 C      3.756    -0.124    22.935     6.828
  41   1 H      0.860     0.206     1.076     1.625
  42   1 H      0.924     0.099     1.797     2.096
  43   1 H      0.924     0.056     2.247     2.344
  44   1 H      0.925     0.055     2.262     2.352
  45   1 H      0.925     0.031     2.573     2.508
  46   1 H      0.925     0.039     2.468     2.457
  47   1 H      0.925     0.061     2.192     2.315
  48   1 H      0.925     0.052     2.299     2.371
  49   1 H      0.925     0.056     2.247     2.344
  50   7 N      2.689    -0.181    24.925     7.415
  51   6 C      3.791     0.020    20.246     6.408
  52   6 C      2.758     0.280    22.255     7.725
  53   8 O      0.859    -0.495    23.672     6.523
  54   6 C      3.758    -0.139    23.219     6.870
  55   1 H      0.860     0.225     0.987     1.556
  56   1 H      0.923     0.072     2.064     2.247
  57   1 H      0.925     0.075     2.034     2.230
  58   1 H      0.925     0.086     1.915     2.164
  59   1 H      0.925     0.075     2.032     2.229
  60   7 N      2.685    -0.166    24.590     7.365
  61   6 C      3.747    -0.033    21.228     6.572
  62   6 C      2.751     0.286    22.148     7.706
  63   8 O      0.858    -0.505    23.894     6.554
  64   1 H      0.860     0.209     1.059     1.612
  65   1 H      0.924     0.091     1.865     2.136
  66   1 H      0.924     0.099     1.796     2.096
  67   7 N      2.692    -0.187    25.044     7.432
  68   6 C      3.795     0.042    19.878     6.349
  69   6 C      2.767     0.270    22.442     7.758
  70   8 O      0.860    -0.526    24.368     6.618
  71   6 C      3.806    -0.105    22.495     6.752
  72   6 C      2.684     0.369    20.743     7.453
  73   8 O      0.856    -0.626    26.759     6.935
  74   8 O      0.856    -0.609    26.329     6.880
  75   1 H      0.860     0.220     1.009     1.573
  76   1 H      0.924     0.054     2.272     2.357
  77   1 H      0.924     0.040     2.442     2.444
  78   1 H      0.925     0.058     2.220     2.330
  79   7 N      2.756    -0.088    22.959     7.116
  80   6 C      3.831     0.026    20.108     6.380
  81   6 C      2.760     0.277    22.320     7.737
  82   8 O      0.859    -0.509    23.981     6.566
  83   6 C      3.830    -0.072    21.855     6.652
  84   6 C      3.830    -0.073    21.878     6.655
  85   6 C      3.766    -0.006    20.725     6.489
  86   1 H      0.924     0.065     2.138     2.287
  87   1 H      0.925     0.069     2.092     2.262
  88   1 H      0.925     0.076     2.019     2.222
  89   1 H      0.925     0.061     2.192     2.315
  90   1 H      0.925     0.081     1.964     2.192
  91   1 H      0.925     0.067     2.120     2.277
  92   1 H      0.924     0.064     2.157     2.297
  93   7 N      2.690    -0.198    25.306     7.471
  94   6 C      3.801     0.033    20.018     6.370
  95   6 C      2.760     0.278    22.296     7.733
  96   8 O      0.859    -0.497    23.707     6.528
  97   6 C      3.811    -0.069    21.811     6.648
  98   6 C      3.849    -0.005    20.626     6.460
  99   6 C      3.755    -0.115    22.766     6.803
 100   6 C      3.759    -0.116    22.771     6.803
 101   1 H      0.859     0.227     0.977     1.548
 102   1 H      0.924     0.070     2.083     2.257
 103   1 H      0.924     0.055     2.257     2.349
 104   1 H      0.924     0.051     2.312     2.378
 105   1 H      0.924     0.021     2.718     2.578
 106   1 H      0.925     0.050     2.324     2.384
 107   1 H      0.925     0.038     2.482     2.464
 108   1 H      0.925     0.043     2.405     2.425
 109   1 H      0.925     0.050     2.326     2.385
 110   1 H      0.925     0.046     2.365     2.405
 111   1 H      0.925     0.037     2.487     2.466
 112   7 N      2.690    -0.185    25.010     7.427
 113   6 C      3.803     0.029    20.084     6.380
 114   6 C      2.762     0.281    22.249     7.724
 115   8 O      0.859    -0.499    23.753     6.534
 116   6 C      3.809    -0.073    21.882     6.659
 117   6 C      3.805    -0.079    22.012     6.679
 118   6 C      3.739    -0.020    21.005     6.539
 119   7 N      2.701    -0.141    24.053     7.284
 120   6 C      2.736     0.233    23.121     7.873
 121   7 N      2.651    -0.246    26.418     7.634
 122   7 N      2.655    -0.266    26.893     7.702
 123   1 H      0.860     0.199     1.112     1.652
 124   1 H      0.923     0.072     2.068     2.249
 125   1 H      0.924     0.069     2.097     2.265
 126   1 H      0.924     0.059     2.214     2.327
 127   1 H      0.924     0.065     2.143     2.289
 128   1 H      0.924     0.061     2.185     2.311
 129   1 H      0.924     0.071     2.077     2.254
 130   1 H      0.925     0.099     1.793     2.094
 131   1 H      0.860     0.212     1.045     1.601
 132   1 H      0.860     0.255     0.863     1.455
 133   1 H      0.860     0.255     0.866     1.458
 134   1 H      0.860     0.241     0.919     1.501
 135   1 H      0.860     0.262     0.839     1.435
 136   7 N      2.691    -0.179    24.883     7.409
 137   6 C      3.803     0.025    20.155     6.392
 138   6 C      2.759     0.286    22.150     7.707
 139   8 O      0.859    -0.500    23.788     6.539
 140   6 C      3.852    -0.023    20.944     6.509
 141   6 C      3.757    -0.118    22.819     6.811
 142   6 C      3.756    -0.114    22.728     6.797
 143   1 H      0.860     0.200     1.108     1.649
 144   1 H      0.923     0.070     2.085     2.258
 145   1 H      0.924     0.053     2.279     2.361
 146   1 H      0.925     0.065     2.146     2.291
 147   1 H      0.925     0.034     2.533     2.489
 148   1 H      0.925     0.053     2.278     2.360
 149   1 H      0.925     0.057     2.236     2.338
 150   1 H      0.925     0.055     2.259     2.350
 151   1 H      0.925     0.030     2.584     2.514
 152   7 N      2.689    -0.180    24.893     7.410
 153   6 C      3.799     0.034    20.004     6.368
 154   6 C      2.765     0.220    23.361     7.915
 155   8 O      0.856    -0.369    21.077     6.155
 156   6 C      3.853    -0.019    20.882     6.499
 157   6 C      3.804    -0.065    21.746     6.639
 158   6 C      3.755    -0.117    22.788     6.807
 159   6 C      3.751    -0.110    22.659     6.788
 160   1 H      0.860     0.214     1.035     1.594
 161   1 H      0.923     0.071     2.076     2.253
 162   1 H      0.924     0.053     2.287     2.365
 163   1 H      0.924     0.045     2.389     2.417
 164   1 H      0.924     0.043     2.412     2.429
 165   1 H      0.925     0.067     2.116     2.275
 166   1 H      0.925     0.032     2.555     2.499
 167   1 H      0.925     0.052     2.290     2.366
 168   1 H      0.925     0.047     2.355     2.400
 169   1 H      0.925     0.034     2.524     2.484
 170   1 H      0.925     0.051     2.303     2.373
 171   1 H      0.862     0.181     1.209     1.723
 172   1 H      0.930     0.061     2.188     2.313

 Mol. C6AA /au·bohr⁶  :     259224.591029
 Mol. C8AA /au·bohr⁸  :    5687558.298614
 Mol. α(0) /au        :        756.681967


Wiberg/Mayer (AO) data.
largest (>0.10) Wiberg bond orders for each atom
          total WBO             WBO to atom ...
     1  N   2.994        C    2 1.014    H  171 0.955    H    9 0.952
     2  C   3.983        N    1 1.014    H   10 0.965    C    5 0.957    C    3 0.941
     3  C   3.940        O    4 1.643    N   20 1.279    C    2 0.941
     4  O   1.949        C    3 1.643    N   20 0.188
     5  C   3.992        C    7 1.010    C    6 0.994    H   11 0.962    C    2 0.957
     6  C   3.997        C    8 1.019    C    5 0.994    H   12 0.978    H   13 0.973
     7  C   3.995        C    5 1.010    H   16 0.987    H   15 0.982    H   14 0.982
     8  C   3.995        C    6 1.019    H   18 0.987    H   17 0.986    H   19 0.985
     9  H   0.973        N    1 0.952
    10  H   0.998        C    2 0.965
    11  H   0.998        C    5 0.962
    12  H   0.999        C    6 0.978
    13  H   0.999        C    6 0.973
    14  H   0.998        C    7 0.982
    15  H   0.998        C    7 0.982
    16  H   0.999        C    7 0.987
    17  H   0.998        C    8 0.986
    18  H   0.998        C    8 0.987
    19  H   0.998        C    8 0.985
    20  N   3.461        C    3 1.279    C   21 0.991    H   27 0.922    O    4 0.188
    21  C   3.965        N   20 0.991    C   24 0.951    C   22 0.942    H   28 0.939
    22  C   3.950        O   23 1.621    N   34 1.302    C   21 0.942
    23  O   1.974        C   22 1.621    N   34 0.192
    24  C   3.956        C   26 1.005    O   25 0.990    H   29 0.959    C   21 0.951
    25  O   1.929        C   24 0.990    H   30 0.864
    26  C   3.987        C   24 1.005    H   33 0.983    H   31 0.980    H   32 0.977
    27  H   0.956        N   20 0.922
    28  H   0.990        C   21 0.939
    29  H   0.999        C   24 0.959
    30  H   0.882        O   25 0.864
    31  H   0.995        C   26 0.980
    32  H   0.995        C   26 0.977
    33  H   0.995        C   26 0.983
    34  N   3.479        C   22 1.302    C   35 0.979    H   41 0.918    O   23 0.192
    35  C   3.956        N   34 0.979    C   38 0.966    H   42 0.949    C   36 0.926
    36  C   3.944        O   37 1.629    N   50 1.302    C   35 0.926
    37  O   1.988        C   36 1.629    N   50 0.196
    38  C   3.989        C   40 1.008    C   39 1.008    C   35 0.966    H   43 0.959
    39  C   3.993        C   38 1.008    H   44 0.984    H   46 0.982    H   45 0.980
    40  C   3.991        C   38 1.008    H   48 0.985    H   49 0.984    H   47 0.983
    41  H   0.957        N   34 0.918
    42  H   0.990        C   35 0.949
    43  H   0.997        C   38 0.959
    44  H   0.996        C   39 0.984
    45  H   0.999        C   39 0.980
    46  H   0.999        C   39 0.982
    47  H   0.996        C   40 0.983
    48  H   0.997        C   40 0.985
    49  H   0.997        C   40 0.984
    50  N   3.465        C   36 1.302    C   51 0.977    H   55 0.910    O   37 0.196
    51  C   3.964        C   54 0.990    N   50 0.977    H   56 0.945    C   52 0.942
    52  C   3.946        O   53 1.643    N   60 1.283    C   51 0.942
    53  O   1.959        C   52 1.643    N   60 0.195
    54  C   3.979        C   51 0.990    H   59 0.982    H   57 0.980    H   58 0.977
    55  H   0.949        N   50 0.910
    56  H   0.995        C   51 0.945
    57  H   0.994        C   54 0.980
    58  H   0.992        C   54 0.977
    59  H   0.994        C   54 0.982
    60  N   3.465        C   52 1.283    C   61 0.999    H   64 0.927    O   53 0.195
    61  C   3.964        N   60 0.999    H   65 0.955    H   66 0.952    C   62 0.949
    62  C   3.947        O   63 1.625    N   67 1.306    C   61 0.949
    63  O   1.940        C   62 1.625    N   67 0.196
    64  H   0.956        N   60 0.927
    65  H   0.991        C   61 0.955
    66  H   0.990        C   61 0.952
    67  N   3.468        C   62 1.306    C   68 0.975    H   75 0.891    O   63 0.196
    68  C   3.967        C   71 0.977    N   67 0.975    H   76 0.958    C   69 0.942
    69  C   3.948        O   70 1.566    N   79 1.322    C   68 0.942
    70  O   1.909        C   69 1.566    N   79 0.185
    71  C   3.984        C   68 0.977    H   77 0.965    H   78 0.962    C   72 0.919
    72  C   3.936        O   74 1.518    O   73 1.460    C   71 0.919
    73  O   1.835        C   72 1.460    O   74 0.207
    74  O   1.828        C   72 1.518    O   73 0.207
    75  H   0.951        N   67 0.891
    76  H   0.997        C   68 0.958
    77  H   0.998        C   71 0.965
    78  H   0.996        C   71 0.962
    79  N   3.533        C   69 1.322    C   85 0.971    C   80 0.968    O   70 0.185
    80  C   3.965        C   83 0.974    N   79 0.968    H   86 0.952    C   81 0.944
    81  C   3.948        O   82 1.585    N   93 1.327    C   80 0.944
    82  O   1.935        C   81 1.585    N   93 0.191
    83  C   3.986        C   84 1.006    H   87 0.974    H   88 0.974    C   80 0.974
    84  C   3.989        C   83 1.006    C   85 1.003    H   89 0.977    H   90 0.973
    85  C   3.960        C   84 1.003    N   79 0.971    H   92 0.965    H   91 0.965
    86  H   0.995        C   80 0.952
    87  H   0.995        C   83 0.974
    88  H   0.994        C   83 0.974
    89  H   0.996        C   84 0.977
    90  H   0.993        C   84 0.973
    91  H   0.995        C   85 0.965
    92  H   0.996        C   85 0.965
    93  N   3.470        C   81 1.327    C   94 0.977    H  101 0.864    O   82 0.191
    94  C   3.964        N   93 0.977    C   97 0.977    H  102 0.947    C   95 0.940
    95  C   3.945        O   96 1.624    N  112 1.298    C   94 0.940
    96  O   1.946        C   95 1.624    N  112 0.192
    97  C   3.986        C   98 0.994    C   94 0.977    H  103 0.971    H  104 0.969
    98  C   3.994        C   99 1.009    C  100 1.007    C   97 0.994    H  105 0.970
    99  C   3.995        C   98 1.009    H  108 0.986    H  106 0.985    H  107 0.982
   100  C   3.995        C   98 1.007    H  111 0.987    H  110 0.986    H  109 0.986
   101  H   0.948        N   93 0.864
   102  H   0.995        C   94 0.947
   103  H   0.997        C   97 0.971
   104  H   0.997        C   97 0.969
   105  H   1.000        C   98 0.970
   106  H   0.997        C   99 0.985
   107  H   0.999        C   99 0.982
   108  H   0.998        C   99 0.986
   109  H   0.997        C  100 0.986
   110  H   0.998        C  100 0.986
   111  H   0.999        C  100 0.987
   112  N   3.463        C   95 1.298    C  113 0.976    H  123 0.909    O   96 0.192
   113  C   3.961        C  116 0.980    N  112 0.976    H  124 0.953    C  114 0.934
   114  C   3.946        O  115 1.631    N  136 1.302    C  113 0.934
   115  O   1.947        C  114 1.631    N  136 0.195
   116  C   3.985        C  117 1.004    C  113 0.980    H  126 0.968    H  125 0.965
   117  C   3.990        C  116 1.004    C  118 0.998    H  127 0.975    H  128 0.961
   118  C   3.955        C  117 0.998    N  119 0.988    H  130 0.957    H  129 0.954
   119  N   3.472        C  120 1.309    C  118 0.988    H  131 0.917    N  121 0.103
   120  C   3.976        N  121 1.333    N  119 1.309    N  122 1.301
   121  N   3.400        C  120 1.333    H  133 0.914    H  132 0.888    N  119 0.103    N  122 0.102
   122  N   3.372        C  120 1.301    H  134 0.922    H  135 0.910    N  121 0.102
   123  H   0.960        N  112 0.909
   124  H   0.994        C  113 0.953
   125  H   0.995        C  116 0.965
   126  H   0.996        C  116 0.968
   127  H   0.996        C  117 0.975
   128  H   0.996        C  117 0.961
   129  H   0.995        C  118 0.954
   130  H   0.990        C  118 0.957
   131  H   0.955        N  119 0.917
   132  H   0.935        N  121 0.888
   133  H   0.935        N  121 0.914
   134  H   0.942        N  122 0.922
   135  H   0.931        N  122 0.910
   136  N   3.467        C  114 1.302    C  137 0.973    H  143 0.916    O  115 0.195
   137  C   3.958        N  136 0.973    C  140 0.969    H  144 0.951    C  138 0.933
   138  C   3.945        O  139 1.626    N  152 1.307    C  137 0.933
   139  O   1.950        C  138 1.626    N  152 0.196
   140  C   3.987        C  141 1.008    C  142 1.007    C  137 0.969    H  145 0.958
   141  C   3.992        C  140 1.008    H  148 0.985    H  147 0.985    H  146 0.983
   142  C   3.994        C  140 1.007    H  149 0.983    H  150 0.983    H  151 0.981
   143  H   0.960        N  136 0.916
   144  H   0.995        C  137 0.951
   145  H   0.997        C  140 0.958
   146  H   0.995        C  141 0.983
   147  H   0.999        C  141 0.985
   148  H   0.997        C  141 0.985
   149  H   0.996        C  142 0.983
   150  H   0.997        C  142 0.983
   151  H   0.999        C  142 0.981
   152  N   3.471        C  138 1.307    C  153 0.974    H  160 0.899    O  139 0.196
   153  C   3.962        N  152 0.974    C  154 0.972    C  156 0.954    H  161 0.950
   154  C   3.899        O  155 1.891    C  153 0.972    H  172 0.956
   155  O   2.033        C  154 1.891
   156  C   3.983        C  158 1.007    C  157 0.993    H  162 0.957    C  153 0.954
   157  C   3.994        C  159 1.017    C  156 0.993    H  163 0.976    H  164 0.970
   158  C   3.992        C  156 1.007    H  167 0.985    H  166 0.981    H  165 0.980
   159  C   3.994        C  157 1.017    H  168 0.986    H  170 0.985    H  169 0.984
   160  H   0.954        N  152 0.899
   161  H   0.995        C  153 0.950
   162  H   0.997        C  156 0.957
   163  H   0.998        C  157 0.976
   164  H   0.998        C  157 0.970
   165  H   0.995        C  158 0.980
   166  H   0.999        C  158 0.981
   167  H   0.997        C  158 0.985
   168  H   0.997        C  159 0.986
   169  H   0.999        C  159 0.984
   170  H   0.997        C  159 0.985
   171  H   0.967        N    1 0.955
   172  H   0.996        C  154 0.956
 
molecular dipole:
                 x           y           z       tot (Debye)
 q only:        5.002      -5.568      10.834
   full:        6.345      -6.028      11.670      37.078
molecular quadrupole (traceless):
                xx          xy          yy          xz          yz          zz
 q only:      407.857     -91.521   -1367.632    1528.523     446.243     959.774
  q+dip:      583.426     -20.895   -1556.599    1707.424     493.046     973.173
   full:      582.675     -20.649   -1555.814    1709.091     492.570     973.139


           -------------------------------------------------
          | TOTAL ENERGY             -256.501373230001 Eh   |
          | GRADIENT NORM               0.226972094108 Eh/α |
          | HOMO-LUMO GAP               2.560232949336 eV   |
           -------------------------------------------------

------------------------------------------------------------------------
 * finished run on 2019/05/31 at 07:36:47.045     
------------------------------------------------------------------------
 total:
 * wall-time:     0 d,  0 h,  0 min,  2.061 sec
 *  cpu-time:     0 d,  0 h,  0 min,  0.975 sec
 * ratio c/w:     0.473 speedup
 SCF:
 * wall-time:     0 d,  0 h,  0 min,  1.638 sec
 *  cpu-time:     0 d,  0 h,  0 min,  0.865 sec
 * ratio c/w:     0.528 speedup

