      -----------------------------------------------------------      
     |                   =====================                   |     
     |                           x T B                           |     
     |                   =====================                   |     
     |                         S. Grimme                         |     
     |          Mulliken Center for Theoretical Chemistry        |     
     |                    University of Bonn                     |     
     |                Version 6.1 RC1 (SAW190329)                |     
      -----------------------------------------------------------      

   This program is distributed in the hope that it will be useful,
   but WITHOUT ANY WARRANTY; without even the implied warranty of
   MERCHANTABILITY or FITNESS FOR A PARTICULAR PURPOSE.
   
   FOR NON-COMMERCIAL, ACADEMIA USE ONLY.
   
   Cite this work as:
   S. Grimme, C. Bannwarth, P. Shushkov, J. Comput. Theory Chem., 2017,
   13, 1989-2009. DOI: 10.1021/acs.jctc.7b00118
   C. Bannwarth, S. Ehlert and S. Grimme., J. Comput. Theory Chem., 2019,
   just accepted. DOI: 10.1021/acs.jctc.8b01176
   
   for sTDA-xTB:
   S. Grimme and C. Bannwarth, J. Chem. Phys., 2016, 145, 054103.
   DOI: 10.1063/1.4959605
   
   in the mass-spec context:
   V. Asgeirsson, C. Bauer and S. Grimme, Chem. Sci., 2017, 8, 4879.
   DOI: 10.1039/c7sc00601b
   
   for metadynamics refer to:
   S. Grimme, ChemRxiv, Preprint. DOI: 10.26434/chemrxiv.7660532.v1
   
   with help from (in alphabetical order)
   C. Bannwarth, F. Bohle, G. Brandenburg, E. Caldeweyher, M. Checinski,
   S. Dohm, S. Ehlert, S. Ehrlich, F. März, H. Neugebauer, J. Pisarek,
   P. Pracht, P. Shushkov, and S. Spicher.
   
 * started run on 2019/05/31 at 06:33:53.484     

           -------------------------------------------------
          |                Calculation Setup                |
           -------------------------------------------------

          program call               : /home/lum/qr/xtb-190329/bin/xtb xtb_tmp.xyz --chrg 1 --grad --gfn 2 --etemp 500 --acc 0.1 --gbsa h2o --parallel 2
          hostname                   : cu39
          coordinate file            : xtb_tmp.xyz
          omp threads                :                     2
          number of atoms            :                   380
          number of electrons        :                   984
          charge                     :                     1
          spin                       :                   0.0
          first test random number   :      0.28790677314255


molecular fragmentation (1/2 indicates fragments):
111111111111111111111111111111111111112222222222222222222222222222222222
222222222222222222222222222222222222222222222222222222222222222222222222
222222222222222222222222222222222222222222222222222222222222222222222222
222222222222222222222222222222222222222222222222222222222222222222222222
222222222222222222222222222222222222222222222222222222222222222222222222
22112222222222222222
# atoms in fragment 1/2:    40   340
 fragment masses (1/2) :      228.33     2250.83
CMA distance (Bohr)    :  15.210
constraining FC (au)   :  0.0500

########################################################################
# WARNING! Please study the warnings concerning your input carefully
#  - XTBPATH is not set, using XTBHOME instead
#  - Process number higher than OMP_NUM_THREADS, I hope you know what you are doing.
########################################################################

           ------------------------------------------------- 
          |                 G F N 2 - x T B                 |
          | Geometry, Frequencies, Noncovalent interactions |
          |            JCTC 2018 parametrisation            |
           ------------------------------------------------- 
 
             k(s)              :                1.8500
             k(p)              :                2.2300
             k(d)              :                2.2300
             k(f)              :                2.0000
             kEN (H0ij)        :               -2.0000
             D4 a1             :                0.5200
             D4 a2             :                5.0000
             D4 s6             :                1.0000
             D4 s8             :                2.7000
             D4 s9             :                5.0000
             alphaj            :                2.0000

  Z AO/shell   Hii/eV     exponent
  1     Wed Apr 25 08:07:45 CEST 2018   EN: 2.200 GM2: 0.406  GM3: 0.0800  RAES: 1.40
     1s    -10.707211    1.230000
  6     Wed Apr 25 08:07:45 CEST 2018   EN: 2.550 GM2: 0.538  GM3: 0.1500  RAES: 3.00
     2s    -13.970922    2.096432
     2p    -10.063292    1.800000
  7     Wed Apr 25 08:07:45 CEST 2018   EN: 3.040 GM2: 0.461  GM3:-0.0640  RAES: 1.90
     2s    -16.686243    2.339881
     2p    -12.523956    2.014332
  8     Wed Apr 25 08:07:45 CEST 2018   EN: 3.440 GM2: 0.452  GM3:-0.0517  RAES: 1.80
     2s    -20.229985    2.439742
     2p    -15.503117    2.137023
 16     Tue Apr 24 11:44:34 CEST 2018   EN: 2.580 GM2: 0.340  GM3:-0.0502  RAES: 3.10
     3s    -20.029654    1.981333
     3p    -11.377694    2.025643
     3d     -0.420282    1.702555

 Solvent             : h2o
 Using internal parameter file: .param_gbsa2_h2o
 Gsolv ref. state (COSMO-RS): gsolv [1 M gas/solution]
 temperature (mdtemp)       :    298.150000000000     
 dielectric constant        :    80.2000000000000     
 rho                        :    1.00000000000000     
 mass                       :    18.0000000000000     
 surface tension            :    15.5689454083859     
 probe radius               :   0.975313790000000     
 vdW radii scaling          :    1.00000000000000     
 Gshift (Eh)                :   1.857443126794793E-003
 c1                         :    1.55243817000000     
 soset                      :   0.130326360000000     
 HB correction              :  T
 Number of grid points      :          230

            Z     q(EN)     CN     RAES       Cart. coordinates
     1  N   5.0   -0.71    3.00    1.93   106.35871    47.00865    37.59186
     2  C   4.0    0.07    3.99    3.60   104.93597    45.77199    39.57684
     3  C   4.0    0.27    3.01    3.02   106.52150    43.68249    40.79734
     4  O   6.0   -0.46    1.00    1.80   106.89746    43.62685    43.08761
     5  C   4.0   -0.09    3.98    3.59   102.44387    44.78530    38.44728
     6  C   4.0   -0.17    3.98    3.59   100.70267    47.04894    37.94306
     7  C   4.0   -0.22    3.98    3.59   101.14826    42.84603    40.15172
     8  C   4.0   -0.24    3.98    3.58    98.45806    46.39650    36.26222
     9  H   1.0    0.25    1.00    1.43   105.81079    46.65906    35.78968
    10  H   1.0    0.10    0.99    1.43   104.56547    47.14590    41.09068
    11  H   1.0    0.11    0.99    1.43   102.92736    43.85556    36.66141
    12  H   1.0    0.10    0.99    1.43   100.02730    47.76416    39.75913
    13  H   1.0    0.10    0.99    1.43   101.81637    48.52551    37.03195
    14  H   1.0    0.11    0.99    1.43    99.80978    41.71249    39.08173
    15  H   1.0    0.13    0.99    1.43   102.50013    41.54508    40.99486
    16  H   1.0    0.10    0.99    1.43   100.13680    43.78337    41.67238
    17  H   1.0    0.09    0.99    1.43    97.21039    48.02113    36.10756
    18  H   1.0    0.10    0.99    1.43    99.11408    45.86264    34.38665
    19  H   1.0    0.10    0.99    1.43    97.38719    44.83283    37.05119
    20  N   5.0   -0.49    3.01    1.93   107.47844    41.98272    39.19913
    21  C   4.0    0.06    3.99    3.60   108.78307    39.75486    40.10767
    22  C   4.0    0.09    3.00    3.02   111.08797    40.45769    41.70832
    23  O   6.0   -0.36    1.00    1.80   111.83093    39.13967    43.46197
    24  C   4.0   -0.14    3.99    3.60   109.60805    38.10739    37.88153
    25  C   4.0   -0.10    3.98    3.58   110.41103    35.44953    38.71743
    26  C   4.0   -0.21    3.98    3.59   108.09381    33.83547    39.32846
    27  C   4.0   -0.22    3.98    3.59   111.99835    34.17946    36.66466
    28  H   1.0    0.23    1.00    1.43   107.03857    42.03857    37.33344
    29  H   1.0    0.15    0.99    1.43   107.51990    38.68377    41.36031
    30  H   1.0    0.11    0.99    1.43   108.02629    37.97498    36.55734
    31  H   1.0    0.11    0.99    1.43   111.16989    39.06970    36.93056
    32  H   1.0    0.15    0.99    1.43   111.55268    35.63706    40.43773
    33  H   1.0    0.12    0.99    1.43   108.67110    31.94345    39.88167
    34  H   1.0    0.13    0.99    1.43   107.01652    34.63434    40.88961
    35  H   1.0    0.11    0.99    1.43   106.85151    33.70312    37.69298
    36  H   1.0    0.11    0.99    1.43   112.62176    32.33058    37.30713
    37  H   1.0    0.11    0.99    1.43   110.87893    33.94347    34.95616
    38  H   1.0    0.11    0.99    1.43   113.65457    35.31825    36.23377
    39  N   5.0   -0.66    3.00    1.93   111.76938    44.74925    45.68229
    40  C   4.0    0.08    3.98    3.59   111.26521    45.40516    48.29061
    41  C   4.0    0.08    3.00    3.02   112.02011    43.19841    50.02259
    42  O   6.0   -0.35    1.00    1.80   111.08475    41.09506    49.83689
    43  C   4.0   -0.13    4.01    3.64   108.47342    46.02114    48.67101
    44  C   4.0   -0.14    3.98    3.58   107.63298    48.27090    47.09892
    45  S   6.0   -0.15    2.02    3.10   109.16323    51.19641    48.07031
    46  C   4.0   -0.21    3.98    3.58   107.87770    53.18908    45.58877
    47  H   1.0    0.32    1.00    1.43   110.28580    44.27902    44.56681
    48  H   1.0    0.11    0.99    1.43   112.44627    47.05130    48.74640
    49  H   1.0    0.14    0.99    1.43   107.38095    44.35622    48.11535
    50  H   1.0    0.10    0.99    1.43   108.17391    46.39805    50.67833
    51  H   1.0    0.12    0.99    1.43   108.08648    47.97202    45.11143
    52  H   1.0    0.09    0.99    1.43   105.60025    48.54681    47.29919
    53  H   1.0    0.12    0.99    1.43   108.77045    55.02363    45.74015
    54  H   1.0    0.11    0.99    1.43   108.30166    52.33837    43.76699
    55  H   1.0    0.10    0.99    1.43   105.85008    53.36643    45.85206
    56  N   5.0   -0.68    3.00    1.93   112.59363    42.03245    58.11053
    57  C   4.0    0.07    3.98    3.58   111.32739    43.14574    60.25856
    58  C   4.0    0.07    3.00    3.02   111.01996    41.20612    62.33677
    59  O   6.0   -0.37    1.00    1.80   110.49948    38.98728    61.92921
    60  C   4.0   -0.14    3.99    3.60   108.67961    44.15108    59.50624
    61  C   4.0   -0.02    3.02    3.02   107.06928    42.15436    58.29739
    62  C   4.0   -0.09    3.03    3.02   107.38207    41.51488    55.76318
    63  C   4.0   -0.09    3.03    3.02   105.22674    40.89064    59.67969
    64  C   4.0   -0.06    3.02    3.02   105.86642    39.72633    54.61149
    65  C   4.0   -0.07    3.03    3.02   103.67263    39.13054    58.54299
    66  C   4.0    0.13    3.03    3.02   103.94584    38.55855    55.98337
    67  O   6.0   -0.48    1.99    1.83   102.24383    36.97979    54.93628
    68  H   1.0    0.30    1.00    1.43   112.94081    40.14672    58.10428
    69  H   1.0    0.11    0.99    1.43   112.43124    44.76697    60.93042
    70  H   1.0    0.10    0.99    1.43   107.77951    44.90941    61.20124
    71  H   1.0    0.10    0.99    1.43   109.00559    45.71507    58.20328
    72  H   1.0    0.11    0.99    1.43   108.80989    42.45496    54.64758
    73  H   1.0    0.12    1.00    1.43   104.99263    41.34332    61.65239
    74  H   1.0    0.16    0.99    1.43   106.15527    39.23680    52.64836
    75  H   1.0    0.12    1.00    1.43   102.22078    38.15929    59.58561
    76  H   1.0    0.32    0.99    1.43   102.60743    36.77230    53.11508
    77  N   5.0   -0.70    3.01    1.93    78.17343    53.91686    45.79026
    78  C   4.0    0.06    3.98    3.59    80.90651    54.08398    46.10502
    79  C   4.0    0.07    3.01    3.02    81.26301    55.75510    48.44112
    80  O   6.0   -0.39    1.00    1.80    80.45589    57.92602    48.46854
    81  C   4.0   -0.13    3.99    3.59    82.29053    55.23486    43.83557
    82  C   4.0   -0.11    3.98    3.58    85.07089    54.40819    43.73994
    83  C   4.0   -0.24    3.98    3.59    85.31503    51.61979    43.02574
    84  C   4.0   -0.22    3.98    3.59    86.48112    56.06032    41.83726
    85  H   1.0    0.30    1.00    1.43    77.18918    55.45233    46.35119
    86  H   1.0    0.11    0.99    1.43    81.59354    52.17085    46.46333
    87  H   1.0    0.11    0.99    1.43    81.36457    54.66617    42.08597
    88  H   1.0    0.13    0.99    1.43    82.19191    57.28845    44.00203
    89  H   1.0    0.11    0.99    1.43    85.90925    54.70584    45.61385
    90  H   1.0    0.09    0.99    1.43    87.30006    51.12925    42.85077
    91  H   1.0    0.09    0.99    1.43    84.49359    50.40505    44.46487
    92  H   1.0    0.10    0.99    1.43    84.38546    51.26783    41.22769
    93  H   1.0    0.10    0.99    1.43    88.49273    55.64057    41.85400
    94  H   1.0    0.11    0.99    1.43    85.76224    55.74717    39.93844
    95  H   1.0    0.11    0.99    1.43    86.21789    58.03565    42.32924
    96  N   5.0   -0.68    3.00    1.93    77.00882    27.46707    39.05461
    97  C   4.0    0.07    3.98    3.59    79.62971    27.94998    39.68088
    98  C   4.0    0.28    3.01    3.02    80.95349    29.33318    37.50536
    99  O   6.0   -0.39    1.00    1.80    80.52980    28.88876    35.27792
   100  C   4.0   -0.21    3.98    3.59    81.04913    25.51413    40.27429
   101  H   1.0    0.27    1.00    1.43    76.54200    25.96057    37.94764
   102  H   1.0    0.12    0.99    1.43    79.59347    29.19731    41.33488
   103  H   1.0    0.12    0.99    1.43    82.96438    25.98371    40.84759
   104  H   1.0    0.11    0.99    1.43    80.09461    24.52286    41.79629
   105  H   1.0    0.12    0.99    1.43    81.06482    24.31978    38.60181
   106  N   5.0   -0.49    3.01    1.93    82.76240    30.93723    38.28881
   107  C   4.0    0.08    4.00    3.62    84.18009    32.51018    36.54986
   108  C   4.0    0.27    3.01    3.02    86.82461    31.37080    36.28421
   109  O   6.0   -0.44    1.00    1.80    88.11632    30.83973    38.12232
   110  C   4.0   -0.09    3.98    3.59    84.30404    35.23785    37.52087
   111  C   4.0   -0.22    3.98    3.59    85.95278    36.80851    35.75242
   112  C   4.0   -0.21    3.98    3.59    81.63206    36.30340    37.71748
   113  H   1.0    0.24    1.00    1.43    82.81985    31.44006    40.12985
   114  H   1.0    0.13    0.99    1.43    83.19190    32.47121    34.72746
   115  H   1.0    0.12    0.99    1.43    85.16235    35.21335    39.40361
   116  H   1.0    0.10    0.99    1.43    85.91730    38.78804    36.29747
   117  H   1.0    0.13    0.99    1.43    87.90237    36.16028    35.79541
   118  H   1.0    0.12    0.99    1.43    85.26206    36.68388    33.81711
   119  H   1.0    0.10    0.99    1.43    81.67271    38.24904    38.37127
   120  H   1.0    0.11    0.99    1.43    80.70954    36.25246    35.87457
   121  H   1.0    0.13    0.99    1.43    80.47119    35.20193    39.00853
   122  N   5.0   -0.51    3.00    1.93    87.57825    30.92313    33.90978
   123  C   4.0    0.07    3.99    3.60    89.91690    29.64268    33.30095
   124  C   4.0    0.26    3.01    3.02    91.94273    31.34178    32.10498
   125  O   6.0   -0.39    1.00    1.80    94.03119    30.48527    31.64373
   126  C   4.0   -0.14    3.98    3.59    89.45583    27.40190    31.48924
   127  C   4.0   -0.16    3.98    3.58    89.89884    24.77185    32.61624
   128  C   4.0   -0.15    3.98    3.58    87.61730    23.65725    34.01462
   129  C   4.0   -0.04    3.98    3.58    87.27389    24.55223    36.73840
   130  N   5.0   -0.72    3.98    2.81    89.08043    23.25894    38.46722
   131  H   1.0    0.23    1.00    1.43    86.40120    31.36450    32.47602
   132  H   1.0    0.15    0.99    1.43    90.71957    29.00806    35.09808
   133  H   1.0    0.12    0.99    1.43    87.53284    27.54138    30.75897
   134  H   1.0    0.12    0.99    1.43    90.72847    27.64035    29.88640
   135  H   1.0    0.11    0.99    1.43    90.32958    23.52321    31.03520
   136  H   1.0    0.12    0.99    1.43    91.57590    24.86295    33.80698
   137  H   1.0    0.11    0.99    1.43    85.91226    24.13310    32.95835
   138  H   1.0    0.11    0.99    1.43    87.77322    21.60099    33.99834
   139  H   1.0    0.16    0.99    1.43    87.55307    26.58404    36.88825
   140  H   1.0    0.11    0.99    1.43    85.35130    24.12640    37.34177
   141  H   1.0    0.32    0.99    1.43    89.52199    24.39820    40.04551
   142  H   1.0    0.25    1.00    1.43    88.36109    21.56785    39.08982
   143  H   1.0    0.25    1.00    1.43    90.75421    22.91992    37.54076
   144  N   5.0   -0.47    3.01    1.93    91.25124    33.70455    31.52879
   145  C   4.0    0.08    3.99    3.61    92.87446    35.42371    30.16154
   146  C   4.0    0.23    3.03    3.02    91.61841    38.01097    30.25771
   147  O   6.0   -0.45    1.00    1.80    89.49085    38.26348    31.15632
   148  C   4.0   -0.09    3.98    3.59    93.33473    34.47619    27.44062
   149  C   4.0    0.29    3.00    3.02    95.92017    33.19322    27.31245
   150  O   6.0   -0.41    1.00    1.80    97.80286    34.25156    28.11354
   151  N   5.0   -0.63    3.00    1.93    95.99114    30.94160    26.16153
   152  H   1.0    0.27    1.00    1.43    89.52589    34.42096    31.95877
   153  H   1.0    0.15    0.99    1.43    94.71570    35.52745    31.11618
   154  H   1.0    0.12    0.99    1.43    91.81761    33.20124    26.87989
   155  H   1.0    0.11    0.99    1.43    93.38927    36.05851    26.12012
   156  H   1.0    0.29    1.00    1.43    97.65386    30.01270    26.16968
   157  H   1.0    0.27    1.00    1.43    94.41662    29.96209    25.75039
   158  N   5.0   -0.36    3.03    1.93    92.89667    39.97401    29.30694
   159  C   4.0    0.07    4.03    3.68    91.85208    42.48003    29.68077
   160  C   4.0    0.07    3.00    3.02    89.49228    43.03547    28.15170
   161  O   6.0   -0.46    1.00    1.80    88.38675    45.04458    28.49594
   162  C   4.0   -0.14    4.01    3.64    94.03720    44.30404    29.10462
   163  C   4.0   -0.15    4.01    3.64    96.37481    42.65923    29.51029
   164  C   4.0   -0.05    4.02    3.65    95.52058    40.10106    28.49442
   165  H   1.0    0.12    0.99    1.43    91.25143    42.67000    31.66107
   166  H   1.0    0.12    0.99    1.43    93.94179    44.94185    27.15038
   167  H   1.0    0.10    0.99    1.43    93.97543    45.94559    30.33690
   168  H   1.0    0.10    0.99    1.43    98.01939    43.35503    28.49915
   169  H   1.0    0.10    0.99    1.43    96.79502    42.51900    31.52196
   170  H   1.0    0.12    0.99    1.43    95.61708    40.09477    26.42420
   171  H   1.0    0.13    0.99    1.43    96.61488    38.52188    29.22957
   172  N   5.0   -0.69    3.00    1.93    84.17198    45.81043    31.43582
   173  C   4.0    0.08    3.98    3.59    85.13650    47.84236    32.99516
   174  C   4.0    0.09    3.00    3.02    85.48745    50.28692    31.48204
   175  O   6.0   -0.41    1.00    1.80    84.84369    52.33332    32.34315
   176  C   4.0   -0.09    3.98    3.58    87.65898    47.10464    34.26669
   177  C   4.0   -0.23    3.98    3.59    88.38081    49.08128    36.24047
   178  C   4.0   -0.23    3.98    3.59    87.45085    44.51265    35.51519
   179  H   1.0    0.32    1.00    1.43    85.34373    44.97184    30.16347
   180  H   1.0    0.13    0.99    1.43    83.72146    48.22474    34.45600
   181  H   1.0    0.13    0.99    1.43    89.10595    47.03336    32.79173
   182  H   1.0    0.09    0.99    1.43    90.23159    48.65617    37.02016
   183  H   1.0    0.12    0.99    1.43    88.42704    50.95544    35.40728
   184  H   1.0    0.09    0.99    1.43    87.00199    49.08389    37.76179
   185  H   1.0    0.09    0.99    1.43    89.21220    44.08202    36.47356
   186  H   1.0    0.09    0.99    1.43    85.93519    44.50442    36.90324
   187  H   1.0    0.11    0.99    1.43    87.06783    43.02715    34.14471
   188  N   5.0   -0.50    3.02    1.93    98.95769    54.33646    55.01587
   189  C   4.0    0.06    4.01    3.64    98.16883    52.54417    53.08926
   190  C   4.0    0.27    3.00    3.02    95.28365    52.64874    52.67672
   191  O   6.0   -0.37    1.00    1.80    93.88929    53.95150    53.97175
   192  C   4.0   -0.13    4.01    3.64    99.16602    50.00351    54.05354
   193  C   4.0   -0.13    4.00    3.62    99.20489    50.31297    56.92562
   194  C   4.0   -0.03    4.01    3.64    99.95222    53.07517    57.24760
   195  H   1.0    0.09    0.99    1.43    99.01100    53.11174    51.28460
   196  H   1.0    0.12    0.99    1.43    97.93417    48.47440    53.48405
   197  H   1.0    0.10    0.99    1.43   101.06734    49.72033    53.31965
   198  H   1.0    0.13    0.99    1.43    97.32677    49.99575    57.71153
   199  H   1.0    0.10    0.99    1.43   100.58957    49.10194    57.84327
   200  H   1.0    0.12    0.99    1.43    99.21026    53.91028    58.97314
   201  H   1.0    0.10    0.99    1.43   102.00925    53.26454    57.33837
   202  N   5.0   -0.48    3.01    1.93    94.48378    51.25722    50.69414
   203  C   4.0    0.06    3.98    3.59    91.91344    51.32636    49.78083
   204  C   4.0    0.06    3.00    3.02    90.49435    48.89995    50.49083
   205  O   6.0   -0.44    1.00    1.80    91.52496    46.84446    50.66962
   206  C   4.0   -0.14    3.98    3.59    91.78310    51.88613    46.91601
   207  C   4.0   -0.09    3.97    3.58    93.58637    50.33258    45.24565
   208  C   4.0   -0.24    3.98    3.59    92.47579    49.95399    42.60475
   209  C   4.0   -0.23    3.98    3.59    96.14839    51.64640    44.95135
   210  H   1.0    0.23    1.00    1.43    95.63757    49.96995    49.89275
   211  H   1.0    0.13    0.99    1.43    91.01093    52.89410    50.78619
   212  H   1.0    0.09    0.99    1.43    89.83619    51.58734    46.30842
   213  H   1.0    0.11    0.99    1.43    92.21660    53.88246    46.64081
   214  H   1.0    0.15    0.99    1.43    93.83847    48.46287    46.08516
   215  H   1.0    0.10    0.99    1.43    93.83419    48.97244    41.41572
   216  H   1.0    0.09    0.99    1.43    90.75307    48.83601    42.65494
   217  H   1.0    0.09    0.99    1.43    92.04816    51.76560    41.73623
   218  H   1.0    0.09    0.99    1.43    97.42381    50.43870    43.88149
   219  H   1.0    0.10    0.99    1.43    95.89944    53.41382    43.92405
   220  H   1.0    0.10    0.99    1.43    97.00456    52.07130    46.76794
   221  N   5.0   -0.69    3.00    1.93    82.37321    45.47710    50.44220
   222  C   4.0    0.06    3.98    3.58    79.88254    45.46144    49.28932
   223  C   4.0    0.08    3.00    3.02    78.00958    44.02917    50.94446
   224  O   6.0   -0.37    1.00    1.80    78.64161    42.25280    52.27907
   225  C   4.0   -0.14    3.98    3.59    79.85541    44.39045    46.56828
   226  C   4.0   -0.02    3.02    3.02    80.26531    41.58976    46.28690
   227  C   4.0   -0.08    3.04    3.02    82.37045    40.38202    47.28389
   228  C   4.0   -0.10    3.04    3.02    78.62322    40.15733    44.81404
   229  C   4.0   -0.09    3.03    3.02    82.83861    37.85252    46.81717
   230  C   4.0   -0.08    3.03    3.02    79.10450    37.64887    44.27703
   231  C   4.0    0.10    3.03    3.02    81.24165    36.47410    45.25653
   232  O   6.0   -0.48    1.99    1.83    81.74524    34.03524    44.60428
   233  H   1.0    0.29    1.00    1.43    82.90875    43.87562    51.35730
   234  H   1.0    0.12    0.99    1.43    79.29902    47.44019    49.15694
   235  H   1.0    0.10    0.99    1.43    78.05164    44.88877    45.69968
   236  H   1.0    0.09    0.99    1.43    81.30232    45.42811    45.51782
   237  H   1.0    0.12    1.00    1.43    83.70660    41.41956    48.41199
   238  H   1.0    0.12    1.00    1.43    76.95589    41.02077    44.01617
   239  H   1.0    0.13    0.99    1.43    84.51383    36.97717    47.59476
   240  H   1.0    0.13    1.00    1.43    77.85521    36.59194    43.06623
   241  H   1.0    0.26    0.99    1.43    83.25634    33.48251    45.47204
   242  N   5.0   -0.68    3.00    1.93    87.21971    38.71151    54.48931
   243  C   4.0    0.08    3.98    3.59    89.08345    40.48900    53.56304
   244  C   4.0    0.27    3.01    3.02    89.76195    39.80252    50.82427
   245  O   6.0   -0.40    1.00    1.80    89.89310    37.60158    50.10822
   246  C   4.0   -0.12    3.99    3.60    91.44049    40.53125    55.23773
   247  C   4.0   -0.04    3.02    3.02    91.09926    41.78804    57.78137
   248  C   4.0   -0.09    3.03    3.02    88.90408    41.53320    59.19930
   249  C   4.0   -0.10    3.04    3.02    93.07641    43.19044    58.79922
   250  C   4.0   -0.10    3.03    3.02    88.69988    42.63136    61.56506
   251  C   4.0   -0.10    3.03    3.02    92.89192    44.25185    61.18213
   252  C   4.0   -0.10    3.03    3.02    90.69994    43.97352    62.57966
   253  H   1.0    0.34    1.00    1.43    87.85337    37.04668    55.21919
   254  H   1.0    0.12    0.99    1.43    88.19877    42.35735    53.55949
   255  H   1.0    0.13    0.99    1.43    92.02143    38.56940    55.51638
   256  H   1.0    0.11    0.99    1.43    92.91620    41.51953    54.19105
   257  H   1.0    0.11    1.00    1.43    87.31618    40.49981    58.45714
   258  H   1.0    0.12    1.00    1.43    94.76731    43.49408    57.70892
   259  H   1.0    0.12    1.00    1.43    86.96198    42.43444    62.61013
   260  H   1.0    0.11    1.00    1.43    94.46782    45.29259    61.94579
   261  H   1.0    0.12    1.00    1.43    90.53996    44.80954    64.42975
   262  N   5.0   -0.51    3.01    1.93    90.19053    41.78341    49.30897
   263  C   4.0    0.08    3.99    3.60    90.68513    41.51749    46.62751
   264  C   4.0    0.27    3.01    3.02    93.49664    41.95282    46.06351
   265  O   6.0   -0.47    1.00    1.80    94.31396    43.87961    45.11869
   266  C   4.0   -0.14    3.98    3.59    89.06973    43.35696    45.08676
   267  C   4.0   -0.11    3.98    3.58    88.44403    42.39516    42.42103
   268  C   4.0   -0.22    3.98    3.59    90.82228    41.70605    40.93950
   269  C   4.0   -0.23    3.98    3.59    86.58388    40.18999    42.47270
   270  H   1.0    0.28    1.00    1.43    90.27861    43.55877    50.03026
   271  H   1.0    0.13    0.99    1.43    90.21800    39.55402    46.16590
   272  H   1.0    0.10    0.99    1.43    87.30839    43.70265    46.09991
   273  H   1.0    0.12    0.99    1.43    90.12090    45.12762    44.93425
   274  H   1.0    0.09    0.99    1.43    87.52834    43.96576    41.43319
   275  H   1.0    0.09    0.99    1.43    90.31165    41.10135    39.04502
   276  H   1.0    0.11    0.99    1.43    92.07467    43.32942    40.81982
   277  H   1.0    0.12    0.99    1.43    91.86304    40.16454    41.81621
   278  H   1.0    0.10    0.99    1.43    86.32956    39.43601    40.58241
   279  H   1.0    0.11    0.99    1.43    87.24774    38.66536    43.67936
   280  H   1.0    0.11    0.99    1.43    84.75525    40.80709    43.17153
   281  N   5.0   -0.49    3.01    1.93    95.02522    40.01781    46.73937
   282  C   4.0    0.06    3.99    3.60    97.51500    39.70413    45.59689
   283  C   4.0    0.26    3.01    3.02    97.89183    36.89127    45.03089
   284  O   6.0   -0.40    1.00    1.80    98.12099    36.06464    42.90847
   285  C   4.0   -0.12    3.98    3.59    99.71941    40.67018    47.21847
   286  C   4.0   -0.15    3.98    3.59    99.85442    43.55568    47.45369
   287  C   4.0   -0.05    3.98    3.59   101.22742    44.34005    49.86588
   288  N   5.0   -0.48    3.02    1.93    99.79398    43.46125    52.04270
   289  C   4.0    0.37    3.00    3.02   100.58008    43.43790    54.42321
   290  N   5.0   -0.65    3.02    1.93   102.59740    44.75989    55.12782
   291  N   5.0   -0.65    3.02    1.93    99.17614    42.28917    56.17749
   292  H   1.0    0.26    1.00    1.43    94.21837    38.46520    47.50326
   293  H   1.0    0.13    0.99    1.43    97.49909    40.74206    43.80559
   294  H   1.0    0.14    0.99    1.43    99.60486    39.81664    49.09009
   295  H   1.0    0.14    0.99    1.43   101.46649    39.95969    46.37948
   296  H   1.0    0.10    0.99    1.43   100.88497    44.31975    45.84423
   297  H   1.0    0.15    0.99    1.43    97.95763    44.35698    47.42003
   298  H   1.0    0.12    0.99    1.43   103.11415    43.48714    49.87362
   299  H   1.0    0.09    0.99    1.43   101.39487    46.39966    49.91307
   300  H   1.0    0.24    1.00    1.43    98.14409    42.59386    51.62681
   301  H   1.0    0.25    1.00    1.43   103.73188    45.54107    53.81358
   302  H   1.0    0.26    1.00    1.43   103.35372    44.47056    56.85745
   303  H   1.0    0.25    1.00    1.43    97.86670    41.00255    55.66539
   304  H   1.0    0.25    1.00    1.43    99.85702    42.15234    57.95451
   305  N   5.0   -0.49    3.00    1.93    97.72485    35.39231    47.12713
   306  C   4.0    0.08    3.99    3.61    98.89180    32.90057    47.12549
   307  C   4.0    0.26    3.00    3.02    97.09488    30.70203    47.68652
   308  O   6.0   -0.43    1.00    1.80    97.90172    28.55167    47.81751
   309  C   4.0   -0.10    3.98    3.58   101.11816    32.88883    48.97441
   310  C   4.0    0.32    2.99    3.02   102.92588    35.14319    48.31795
   311  O   6.0   -0.38    1.00    1.80   103.86470    35.20071    46.18037
   312  O   6.0   -0.47    1.00    1.80   103.17214    36.76918    50.01856
   313  H   1.0    0.24    1.00    1.43    97.95371    36.30388    48.79488
   314  H   1.0    0.17    0.99    1.43    99.62844    32.57949    45.20976
   315  H   1.0    0.11    0.99    1.43   100.45798    33.10646    50.91962
   316  H   1.0    0.13    0.99    1.43   102.15979    31.12198    48.80418
   317  N   5.0   -0.49    3.00    1.93    94.62506    31.28568    47.99801
   318  C   4.0    0.07    3.98    3.59    92.60016    29.43178    48.26217
   319  C   4.0    0.27    3.01    3.02    92.49517    28.08870    50.86635
   320  O   6.0   -0.41    1.00    1.80    91.08147    26.30495    51.17183
   321  C   4.0   -0.07    3.99    3.60    92.67221    27.37553    46.21609
   322  C   4.0    0.29    3.00    3.02    91.35759    27.83425    43.72224
   323  O   6.0   -0.45    1.01    1.80    90.87260    26.01517    42.36287
   324  N   5.0   -0.64    3.00    1.93    90.75126    30.17968    43.05724
   325  H   1.0    0.26    1.00    1.43    94.13615    33.12966    47.97979
   326  H   1.0    0.13    0.99    1.43    90.80279    30.45709    48.16512
   327  H   1.0    0.16    0.99    1.43    94.64007    26.90360    45.80558
   328  H   1.0    0.14    0.99    1.43    91.83415    25.66322    47.00737
   329  H   1.0    0.33    1.00    1.43    89.92153    30.48840    41.35450
   330  H   1.0    0.27    1.00    1.43    91.29168    31.68676    44.07306
   331  N   5.0   -0.47    3.00    1.93    93.86799    29.14031    52.73240
   332  C   4.0    0.08    3.99    3.61    94.12579    27.91873    55.17070
   333  C   4.0    0.27    3.01    3.02    93.41257    29.54463    57.45109
   334  O   6.0   -0.41    1.00    1.80    92.89099    28.51810    59.45766
   335  C   4.0   -0.08    3.98    3.59    96.83492    26.91048    55.66647
   336  C   4.0   -0.20    3.98    3.59    97.26627    24.39859    54.31790
   337  C   4.0   -0.21    3.98    3.59    98.84668    28.84027    54.91110
   338  H   1.0    0.25    1.00    1.43    95.26758    30.34181    52.24603
   339  H   1.0    0.16    0.99    1.43    92.82056    26.31361    55.16010
   340  H   1.0    0.13    0.99    1.43    96.93829    26.57629    57.70531
   341  H   1.0    0.11    0.99    1.43    99.17060    23.71818    54.68225
   342  H   1.0    0.12    0.99    1.43    95.93016    22.98132    54.97612
   343  H   1.0    0.14    0.99    1.43    97.04070    24.60859    52.28276
   344  H   1.0    0.11    0.99    1.43   100.66658    28.26358    55.66418
   345  H   1.0    0.12    0.99    1.43    99.03661    28.92433    52.86216
   346  H   1.0    0.11    0.99    1.43    98.40318    30.70657    55.64696
   347  N   5.0   -0.47    3.01    1.93    93.67517    32.06769    57.24359
   348  C   4.0    0.07    4.00    3.62    93.01598    33.64608    59.39809
   349  C   4.0    0.07    3.00    3.02    90.24563    34.42423    59.12339
   350  O   6.0   -0.42    1.00    1.80    89.25869    34.60689    57.03055
   351  C   4.0   -0.09    3.98    3.58    94.85169    35.89418    59.67283
   352  C   4.0   -0.23    3.98    3.59    94.19552    37.44434    62.02285
   353  C   4.0   -0.21    3.98    3.59    97.56103    34.88180    59.76875
   354  H   1.0    0.26    1.00    1.43    93.55793    32.88400    55.52054
   355  H   1.0    0.14    0.99    1.43    93.18484    32.40338    61.04509
   356  H   1.0    0.11    0.99    1.43    94.65974    37.11812    58.02351
   357  H   1.0    0.10    0.99    1.43    95.60587    38.90283    62.32872
   358  H   1.0    0.12    0.99    1.43    92.38250    38.37508    61.78865
   359  H   1.0    0.11    0.99    1.43    94.10561    36.23467    63.67027
   360  H   1.0    0.10    0.99    1.43    98.80344    36.32293    60.53141
   361  H   1.0    0.12    0.99    1.43    97.66845    33.17914    60.91336
   362  H   1.0    0.12    0.99    1.43    98.25223    34.41523    57.89249
   363  H   1.0    0.29    1.00    1.43   106.25426    48.69520    37.78479
   364  H   1.0    0.15    1.00    1.43   112.04728    42.04323    41.33839
   365  H   1.0    0.29    1.00    1.43   112.50849    46.06534    44.89860
   366  H   1.0    0.13    1.00    1.43   113.32425    43.45498    51.36590
   367  H   1.0    0.30    1.00    1.43   111.67013    42.29735    56.70712
   368  H   1.0    0.13    1.00    1.43   111.24286    41.71361    64.14338
   369  H   1.0    0.30    1.00    1.43    77.80447    53.68383    44.14645
   370  H   1.0    0.13    1.00    1.43    82.16017    55.07712    49.95984
   371  H   1.0    0.30    1.00    1.43    76.12076    27.21572    40.48315
   372  H   1.0    0.15    1.00    1.43    88.86475    41.77515    26.89121
   373  H   1.0    0.29    1.00    1.43    83.64143    44.53559    32.42874
   374  H   1.0    0.15    1.00    1.43    86.25541    50.22802    29.75640
   375  H   1.0    0.27    1.00    1.43   100.05666    55.44637    54.34287
   376  H   1.0    0.12    1.00    1.43    88.63657    48.95735    50.83207
   377  H   1.0    0.28    1.00    1.43    83.55156    45.74075    49.24448
   378  H   1.0    0.13    1.00    1.43    76.18849    44.53343    50.96460
   379  H   1.0    0.29    1.00    1.43    86.32047    39.43206    55.74021
   380  H   1.0    0.13    1.00    1.43    89.21075    34.79266    60.66103

           ------------------------------------------------- 
          |        Self-Consistent Charge Iterations        |
           ------------------------------------------------- 

          ...................................................
          :                      SETUP                      :
          :.................................................:
          :  # basis functions                 908          :
          :  # atomic orbitals                 907          :
          :  # shells                          555          :
          :  # electrons                       984          :
          :  max. iterations                   250          :
          :  Hamiltonian                  GFN2-xTB          :
          :  restarted?                      false          :
          :  GBSA solvation                   true          :
          :  PC potential                    false          :
          :  electronic temp.          500.0000000     K    :
          :  accuracy                    0.1000000          :
          :  -> integral cutoff          0.3500000E+02      :
          :  -> integral neglect         0.1000000E-08      :
          :  -> SCF convergence          0.1000000E-06 Eh   :
          :  -> wf. convergence          0.1000000E-04 e    :
          :  Broyden damping             0.4000000          :
          ...................................................

 iter      E             dE          RMSdq      gap      omega  full diag
   1   -557.2522704 -0.557252E+03  0.410E+00    1.97       0.0  T
   2   -558.6109593 -0.135869E+01  0.213E+00    1.24       1.0  T
   3   -558.6654590 -0.544997E-01  0.116E+00    1.56       1.0  T
   4   -558.6947103 -0.292513E-01  0.267E-01    0.99       1.0  T
   5   -558.7088189 -0.141085E-01  0.104E-01    1.11       1.0  T
   6   -558.7093345 -0.515675E-03  0.467E-02    1.09       1.0  T
   7   -558.7094150 -0.804467E-04  0.219E-02    1.09       1.0  T
   8   -558.7094678 -0.528661E-04  0.799E-03    1.09       1.0  T
   9   -558.7094718 -0.392204E-05  0.370E-03    1.09       1.4  T
  10   -558.7094726 -0.844335E-06  0.163E-03    1.09       3.1  T
  11   -558.7094727 -0.132246E-06  0.699E-04    1.09       7.3  T
  12   -558.7094728 -0.381449E-07  0.332E-04    1.09      15.4  T
  13   -558.7094728 -0.918897E-08  0.151E-04    1.09      33.9  T
  14   -558.7094728 -0.120349E-08  0.747E-05    1.09      68.7  T
  15   -558.7094728 -0.311957E-09  0.334E-05    1.09     153.4  T

   *** convergence criteria satisfied after 15 iterations ***

         #    Occupation            Energy/Eh            Energy/eV
      -------------------------------------------------------------
         1        2.0000           -0.7435403             -20.2328
       ...           ...                  ...                  ...
       486        2.0000           -0.3697891             -10.0625
       487        2.0000           -0.3619823              -9.8500
       488        2.0000           -0.3612273              -9.8295
       489        2.0000           -0.3599462              -9.7946
       490        2.0000           -0.3594330              -9.7807
       491        2.0000           -0.3569351              -9.7127
       492        2.0000           -0.3409945              -9.2789 (HOMO)
       493        0.0000           -0.3011037              -8.1934 (LUMO)
       494        0.0000           -0.2968808              -8.0785
       495        0.0000           -0.2958522              -8.0505
       496                         -0.2859655              -7.7815
       497                         -0.2830371              -7.7018
       ...                                ...                  ...
       907                          0.6799082              18.5012
      -------------------------------------------------------------
                  HL-Gap            0.0398908 Eh            1.0855 eV
             Fermi-level           -0.3211287 Eh           -8.7384 eV

 SCC (total)                   0 d,  0 h,  0 min, 11.530 sec
 SCC setup                      ...        0 min,  0.121 sec (  1.051%)
 Dispersion                     ...        0 min,  0.104 sec (  0.898%)
 integral evaluation            ...        0 min,  0.549 sec (  4.759%)
 zeroth order Hamiltonian       ...        0 min,  0.014 sec (  0.125%)
 iterations                     ...        0 min,  7.955 sec ( 68.993%)
 molecular gradient             ...        0 min,  2.722 sec ( 23.606%)
 printout                       ...        0 min,  0.065 sec (  0.566%)

         :::::::::::::::::::::::::::::::::::::::::::::::::::::
         ::                     SUMMARY                     ::
         :::::::::::::::::::::::::::::::::::::::::::::::::::::
         :: total energy             -551.495271614745 Eh   ::
         :: total w/o Gsasa/hb       -551.434188292998 Eh   ::
         :: gradient norm               0.663455524944 Eh/α ::
         :: HOMO-LUMO gap               1.085484271310 eV   ::
         ::.................................................::
         :: SCC energy               -558.729796505387 Eh   ::
         :: -> isotropic ES             1.340439652990 Eh   ::
         :: -> anisotropic ES          -0.011481771479 Eh   ::
         :: -> anisotropic XC           0.229447210798 Eh   ::
         :: -> dispersion              -0.447719756677 Eh   ::
         :: -> Gsolv                   -0.307966006880 Eh   ::
         ::    -> Gborn                -0.246882685134 Eh   ::
         ::    -> Gsasa                -0.022181153574 Eh   ::
         ::    -> Ghb                  -0.040759611299 Eh   ::
         ::    -> Gshift                0.001857443127 Eh   ::
         :: repulsion energy            7.201638548788 Eh   ::
         :: add. restraining            0.000000000000 Eh   ::
         :::::::::::::::::::::::::::::::::::::::::::::::::::::

           -------------------------------------------------
          |                Property Printout                |
           -------------------------------------------------

    * Orbital Energies and Occupations

         #    Occupation            Energy/Eh            Energy/eV
      -------------------------------------------------------------
         1        2.0000           -0.7435403             -20.2328
       ...           ...                  ...                  ...
       480        2.0000           -0.3832702             -10.4293
       481        2.0000           -0.3824872             -10.4080
       482        2.0000           -0.3765494             -10.2464
       483        2.0000           -0.3723673             -10.1326
       484        2.0000           -0.3709080             -10.0929
       485        2.0000           -0.3704553             -10.0806
       486        2.0000           -0.3697891             -10.0625
       487        2.0000           -0.3619823              -9.8500
       488        2.0000           -0.3612273              -9.8295
       489        2.0000           -0.3599462              -9.7946
       490        2.0000           -0.3594330              -9.7807
       491        2.0000           -0.3569351              -9.7127
       492        2.0000           -0.3409945              -9.2789 (HOMO)
       493        0.0000           -0.3011037              -8.1934 (LUMO)
       494        0.0000           -0.2968808              -8.0785
       495        0.0000           -0.2958522              -8.0505
       496                         -0.2859655              -7.7815
       497                         -0.2830371              -7.7018
       498                         -0.2827886              -7.6951
       499                         -0.2814633              -7.6590
       500                         -0.2805886              -7.6352
       501                         -0.2764129              -7.5216
       502                         -0.2571064              -6.9962
       503                         -0.2450562              -6.6683
       ...                                ...                  ...
       907                          0.6799082              18.5012
      -------------------------------------------------------------
                  HL-Gap            0.0398908 Eh            1.0855 eV
             Fermi-level           -0.3211287 Eh           -8.7384 eV

   #   Z        covCN         q      C6AA      α(0)
   1   7 N      2.637    -0.399    30.342     8.181
   2   6 C      3.790     0.027    20.129     6.390
   3   6 C      2.756     0.271    22.424     7.755
   4   8 O      0.858    -0.499    23.770     6.537
   5   6 C      3.854    -0.027    21.020     6.521
   6   6 C      3.805    -0.060    21.646     6.623
   7   6 C      3.754    -0.109    22.637     6.784
   8   6 C      3.751    -0.114    22.740     6.800
   9   1 H      0.860     0.168     1.288     1.777
  10   1 H      0.923     0.045     2.384     2.415
  11   1 H      0.924     0.038     2.479     2.462
  12   1 H      0.924     0.040     2.446     2.446
  13   1 H      0.924     0.038     2.470     2.458
  14   1 H      0.925     0.046     2.366     2.405
  15   1 H      0.925     0.015     2.804     2.618
  16   1 H      0.925     0.050     2.325     2.385
  17   1 H      0.925     0.047     2.353     2.399
  18   1 H      0.925     0.040     2.446     2.446
  19   1 H      0.925     0.044     2.397     2.421
  20   7 N      2.690    -0.174    24.763     7.391
  21   6 C      3.794     0.035    19.984     6.366
  22   6 C      2.766     0.210    23.556     7.948
  23   8 O      0.856    -0.372    21.130     6.163
  24   6 C      3.810    -0.077    21.967     6.671
  25   6 C      3.849    -0.009    20.700     6.471
  26   6 C      3.755    -0.111    22.671     6.789
  27   6 C      3.756    -0.119    22.837     6.814
  28   1 H      0.860     0.219     1.015     1.578
  29   1 H      0.923     0.069     2.094     2.263
  30   1 H      0.924     0.072     2.060     2.244
  31   1 H      0.924     0.063     2.170     2.304
  32   1 H      0.924     0.031     2.569     2.507
  33   1 H      0.925     0.038     2.473     2.459
  34   1 H      0.925     0.028     2.615     2.529
  35   1 H      0.925     0.047     2.351     2.398
  36   1 H      0.925     0.044     2.400     2.423
  37   1 H      0.925     0.053     2.285     2.364
  38   1 H      0.925     0.043     2.408     2.427
  39   7 N      2.636    -0.388    30.043     8.140
  40   6 C      3.783     0.046    19.824     6.342
  41   6 C      2.766     0.199    23.759     7.983
  42   8 O      0.856    -0.367    21.024     6.147
  43   6 C      3.834    -0.060    21.622     6.616
  44   6 C      3.796    -0.003    20.636     6.468
  45  16 S      1.968    -0.236   151.150    20.692
  46   6 C      3.745    -0.060    21.729     6.650
  47   1 H      0.860     0.165     1.301     1.787
  48   1 H      0.923     0.048     2.347     2.396
  49   1 H      0.924     0.062     2.171     2.304
  50   1 H      0.924     0.047     2.353     2.399
  51   1 H      0.925     0.048     2.341     2.393
  52   1 H      0.925     0.057     2.234     2.338
  53   1 H      0.926     0.065     2.139     2.287
  54   1 H      0.925     0.052     2.301     2.372
  55   1 H      0.925     0.065     2.147     2.291
  56   7 N      2.636    -0.378    29.780     8.105
  57   6 C      3.782     0.039    19.936     6.360
  58   6 C      2.770     0.200    23.743     7.980
  59   8 O      0.856    -0.392    21.514     6.219
  60   6 C      3.811    -0.079    21.996     6.676
  61   6 C      2.967    -0.008    28.213     8.713
  62   6 C      2.925    -0.043    29.059     8.840
  63   6 C      2.923    -0.047    29.169     8.857
  64   6 C      2.915    -0.074    29.835     8.957
  65   6 C      2.919    -0.075    29.863     8.961
  66   6 C      2.845     0.145    24.835     8.167
  67   8 O      1.657    -0.433    21.509     6.261
  68   1 H      0.860     0.151     1.397     1.852
  69   1 H      0.924     0.064     2.153     2.295
  70   1 H      0.924     0.064     2.152     2.294
  71   1 H      0.924     0.076     2.024     2.225
  72   1 H      0.926     0.028     2.615     2.529
  73   1 H      0.926     0.049     2.334     2.389
  74   1 H      0.925     0.037     2.493     2.469
  75   1 H      0.926     0.061     2.182     2.310
  76   1 H      0.802     0.332     0.632     1.249
  77   7 N      2.641    -0.387    30.010     8.136
  78   6 C      3.783     0.034    20.018     6.373
  79   6 C      2.773     0.205    23.638     7.963
  80   8 O      0.856    -0.383    21.335     6.193
  81   6 C      3.808    -0.070    21.841     6.653
  82   6 C      3.849    -0.015    20.804     6.488
  83   6 C      3.755    -0.120    22.861     6.818
  84   6 C      3.757    -0.114    22.726     6.797
  85   1 H      0.860     0.154     1.377     1.838
  86   1 H      0.924     0.062     2.181     2.309
  87   1 H      0.925     0.052     2.300     2.372
  88   1 H      0.924     0.038     2.480     2.462
  89   1 H      0.924     0.028     2.622     2.532
  90   1 H      0.925     0.056     2.252     2.347
  91   1 H      0.925     0.039     2.457     2.451
  92   1 H      0.925     0.044     2.393     2.419
  93   1 H      0.925     0.046     2.373     2.409
  94   1 H      0.925     0.042     2.419     2.432
  95   1 H      0.925     0.030     2.586     2.515
  96   7 N      2.634    -0.393    30.180     8.159
  97   6 C      3.787     0.031    20.063     6.380
  98   6 C      2.755     0.271    22.428     7.755
  99   8 O      0.858    -0.482    23.379     6.483
 100   6 C      3.756    -0.131    23.061     6.847
 101   1 H      0.860     0.157     1.355     1.823
 102   1 H      0.924     0.042     2.418     2.432
 103   1 H      0.925     0.059     2.207     2.323
 104   1 H      0.925     0.056     2.245     2.343
 105   1 H      0.925     0.054     2.276     2.359
 106   7 N      2.694    -0.174    24.769     7.392
 107   6 C      3.801     0.010    20.402     6.431
 108   6 C      2.756     0.269    22.465     7.762
 109   8 O      0.859    -0.468    23.089     6.442
 110   6 C      3.853    -0.019    20.880     6.499
 111   6 C      3.756    -0.115    22.762     6.802
 112   6 C      3.756    -0.118    22.807     6.809
 113   1 H      0.860     0.206     1.078     1.626
 114   1 H      0.924     0.069     2.092     2.262
 115   1 H      0.924     0.055     2.254     2.348
 116   1 H      0.925     0.056     2.250     2.346
 117   1 H      0.925     0.038     2.474     2.460
 118   1 H      0.925     0.047     2.357     2.401
 119   1 H      0.925     0.054     2.270     2.356
 120   1 H      0.924     0.042     2.423     2.434
 121   1 H      0.925     0.044     2.394     2.419
 122   7 N      2.688    -0.176    24.804     7.397
 123   6 C      3.791     0.002    20.555     6.457
 124   6 C      2.755     0.271    22.414     7.753
 125   8 O      0.859    -0.483    23.409     6.487
 126   6 C      3.804    -0.078    21.978     6.674
 127   6 C      3.799    -0.080    22.029     6.683
 128   6 C      3.800    -0.094    22.297     6.723
 129   6 C      3.730    -0.039    21.372     6.599
 130   7 N      3.481    -0.165    24.552     7.359
 131   1 H      0.860     0.203     1.091     1.636
 132   1 H      0.924     0.106     1.730     2.057
 133   1 H      0.924     0.068     2.104     2.268
 134   1 H      0.924     0.056     2.242     2.342
 135   1 H      0.925     0.068     2.111     2.272
 136   1 H      0.925     0.062     2.173     2.305
 137   1 H      0.924     0.079     1.985     2.203
 138   1 H      0.924     0.081     1.965     2.192
 139   1 H      0.925     0.100     1.787     2.090
 140   1 H      0.925     0.099     1.791     2.093
 141   1 H      0.857     0.307     0.694     1.305
 142   1 H      0.859     0.288     0.751     1.358
 143   1 H      0.859     0.279     0.779     1.382
 144   7 N      2.693    -0.181    24.923     7.415
 145   6 C      3.796     0.029    20.085     6.382
 146   6 C      2.772     0.251    22.782     7.817
 147   8 O      0.859    -0.487    23.496     6.499
 148   6 C      3.805    -0.105    22.499     6.753
 149   6 C      2.744     0.298    21.934     7.668
 150   8 O      0.859    -0.498    23.730     6.531
 151   7 N      2.637    -0.281    27.250     7.753
 152   1 H      0.860     0.215     1.032     1.591
 153   1 H      0.923     0.079     1.989     2.206
 154   1 H      0.925     0.074     2.046     2.237
 155   1 H      0.924     0.081     1.969     2.194
 156   1 H      0.860     0.233     0.954     1.530
 157   1 H      0.860     0.226     0.983     1.553
 158   7 N      2.758    -0.087    22.930     7.112
 159   6 C      3.835     0.025    20.133     6.384
 160   6 C      2.764     0.202    23.709     7.974
 161   8 O      0.856    -0.363    20.952     6.137
 162   6 C      3.831    -0.066    21.745     6.635
 163   6 C      3.834    -0.073    21.877     6.655
 164   6 C      3.772    -0.018    20.936     6.520
 165   1 H      0.923     0.100     1.782     2.088
 166   1 H      0.925     0.063     2.167     2.302
 167   1 H      0.925     0.078     1.999     2.211
 168   1 H      0.925     0.075     2.030     2.228
 169   1 H      0.925     0.066     2.126     2.280
 170   1 H      0.924     0.069     2.095     2.263
 171   1 H      0.925     0.083     1.948     2.183
 172   7 N      2.633    -0.397    30.300     8.175
 173   6 C      3.785     0.035    19.999     6.370
 174   6 C      2.764     0.206    23.618     7.959
 175   8 O      0.856    -0.389    21.455     6.210
 176   6 C      3.852    -0.018    20.858     6.496
 177   6 C      3.757    -0.118    22.808     6.809
 178   6 C      3.756    -0.113    22.717     6.796
 179   1 H      0.860     0.172     1.263     1.760
 180   1 H      0.924     0.062     2.178     2.308
 181   1 H      0.924     0.038     2.482     2.464
 182   1 H      0.925     0.054     2.271     2.357
 183   1 H      0.925     0.030     2.584     2.514
 184   1 H      0.925     0.050     2.318     2.381
 185   1 H      0.925     0.056     2.241     2.341
 186   1 H      0.925     0.046     2.375     2.410
 187   1 H      0.925     0.037     2.496     2.470
 188   7 N      2.702    -0.287    27.406     7.775
 189   6 C      3.812     0.023    20.179     6.394
 190   6 C      2.749     0.269    22.462     7.760
 191   8 O      0.858    -0.480    23.350     6.479
 192   6 C      3.834    -0.078    21.964     6.668
 193   6 C      3.824    -0.073    21.868     6.654
 194   6 C      3.767     0.014    20.384     6.435
 195   1 H      0.924     0.032     2.562     2.503
 196   1 H      0.925     0.050     2.317     2.380
 197   1 H      0.925     0.058     2.228     2.334
 198   1 H      0.924     0.049     2.330     2.387
 199   1 H      0.925     0.060     2.199     2.319
 200   1 H      0.925     0.030     2.581     2.512
 201   1 H      0.924     0.018     2.764     2.600
 202   7 N      2.688    -0.175    24.785     7.394
 203   6 C      3.788     0.022    20.219     6.404
 204   6 C      2.763     0.198    23.788     7.987
 205   8 O      0.856    -0.354    20.784     6.112
 206   6 C      3.804    -0.079    22.004     6.678
 207   6 C      3.848    -0.017    20.850     6.495
 208   6 C      3.758    -0.112    22.695     6.792
 209   6 C      3.757    -0.119    22.833     6.813
 210   1 H      0.860     0.206     1.076     1.625
 211   1 H      0.924     0.090     1.878     2.143
 212   1 H      0.924     0.067     2.124     2.279
 213   1 H      0.924     0.066     2.135     2.285
 214   1 H      0.924     0.055     2.259     2.350
 215   1 H      0.925     0.047     2.355     2.400
 216   1 H      0.925     0.040     2.444     2.445
 217   1 H      0.925     0.038     2.472     2.459
 218   1 H      0.925     0.044     2.392     2.419
 219   1 H      0.925     0.041     2.434     2.440
 220   1 H      0.925     0.038     2.477     2.461
 221   7 N      2.633    -0.374    29.666     8.089
 222   6 C      3.780     0.035    20.006     6.372
 223   6 C      2.766     0.203    23.686     7.970
 224   8 O      0.856    -0.380    21.290     6.186
 225   6 C      3.807    -0.075    21.925     6.666
 226   6 C      2.964    -0.001    28.052     8.687
 227   6 C      2.927    -0.036    28.902     8.816
 228   6 C      2.928    -0.045    29.121     8.850
 229   6 C      2.918    -0.072    29.805     8.953
 230   6 C      2.918    -0.060    29.482     8.904
 231   6 C      2.845     0.141    24.930     8.183
 232   8 O      1.659    -0.434    21.518     6.262
 233   1 H      0.860     0.157     1.355     1.823
 234   1 H      0.924     0.070     2.086     2.258
 235   1 H      0.924     0.054     2.267     2.355
 236   1 H      0.924     0.070     2.086     2.258
 237   1 H      0.926     0.044     2.399     2.422
 238   1 H      0.926     0.038     2.481     2.463
 239   1 H      0.925     0.041     2.434     2.440
 240   1 H      0.926     0.046     2.371     2.408
 241   1 H      0.805     0.343     0.604     1.220
 242   7 N      2.635    -0.399    30.350     8.182
 243   6 C      3.786     0.036    19.984     6.367
 244   6 C      2.754     0.265    22.530     7.773
 245   8 O      0.858    -0.494    23.653     6.521
 246   6 C      3.809    -0.077    21.967     6.672
 247   6 C      2.965     0.006    27.883     8.661
 248   6 C      2.925    -0.047    29.161     8.856
 249   6 C      2.927    -0.051    29.264     8.872
 250   6 C      2.920    -0.035    28.860     8.810
 251   6 C      2.920    -0.034    28.848     8.808
 252   6 C      2.920    -0.034    28.853     8.809
 253   1 H      0.860     0.184     1.189     1.708
 254   1 H      0.924     0.036     2.504     2.474
 255   1 H      0.924     0.051     2.313     2.378
 256   1 H      0.924     0.045     2.385     2.415
 257   1 H      0.926     0.032     2.551     2.498
 258   1 H      0.926     0.058     2.220     2.330
 259   1 H      0.926     0.024     2.677     2.559
 260   1 H      0.926     0.049     2.334     2.389
 261   1 H      0.926     0.031     2.579     2.511
 262   7 N      2.689    -0.191    25.133     7.446
 263   6 C      3.794     0.015    20.328     6.420
 264   6 C      2.754     0.271    22.427     7.755
 265   8 O      0.859    -0.424    22.173     6.313
 266   6 C      3.807    -0.078    21.976     6.673
 267   6 C      3.849    -0.016    20.829     6.492
 268   6 C      3.755    -0.112    22.690     6.792
 269   6 C      3.755    -0.121    22.866     6.818
 270   1 H      0.860     0.220     1.010     1.574
 271   1 H      0.924     0.073     2.056     2.242
 272   1 H      0.924     0.050     2.315     2.379
 273   1 H      0.924     0.070     2.084     2.258
 274   1 H      0.924     0.050     2.325     2.385
 275   1 H      0.925     0.045     2.387     2.416
 276   1 H      0.925     0.047     2.356     2.400
 277   1 H      0.925     0.020     2.738     2.588
 278   1 H      0.925     0.049     2.331     2.387
 279   1 H      0.925     0.033     2.545     2.495
 280   1 H      0.925     0.040     2.444     2.445
 281   7 N      2.689    -0.195    25.238     7.461
 282   6 C      3.793     0.016    20.314     6.418
 283   6 C      2.757     0.282    22.226     7.720
 284   8 O      0.858    -0.451    22.718     6.390
 285   6 C      3.804    -0.067    21.774     6.643
 286   6 C      3.803    -0.080    22.029     6.682
 287   6 C      3.738    -0.022    21.044     6.546
 288   7 N      2.702    -0.134    23.915     7.263
 289   6 C      2.736     0.223    23.295     7.902
 290   7 N      2.651    -0.225    25.926     7.562
 291   7 N      2.653    -0.236    26.185     7.600
 292   1 H      0.860     0.184     1.190     1.709
 293   1 H      0.924     0.086     1.920     2.167
 294   1 H      0.924     0.056     2.252     2.347
 295   1 H      0.924     0.045     2.378     2.412
 296   1 H      0.925     0.069     2.093     2.262
 297   1 H      0.925     0.091     1.870     2.139
 298   1 H      0.924     0.074     2.045     2.237
 299   1 H      0.924     0.090     1.875     2.141
 300   1 H      0.860     0.222     0.998     1.565
 301   1 H      0.860     0.232     0.955     1.531
 302   1 H      0.860     0.233     0.953     1.529
 303   1 H      0.860     0.232     0.956     1.531
 304   1 H      0.860     0.244     0.908     1.493
 305   7 N      2.687    -0.221    25.818     7.547
 306   6 C      3.794     0.033    20.033     6.374
 307   6 C      2.748     0.268    22.477     7.763
 308   8 O      0.858    -0.471    23.146     6.450
 309   6 C      3.801    -0.101    22.426     6.742
 310   6 C      2.684     0.372    20.700     7.445
 311   8 O      0.856    -0.618    26.554     6.909
 312   8 O      0.857    -0.604    26.219     6.865
 313   1 H      0.860     0.205     1.083     1.630
 314   1 H      0.923     0.077     2.014     2.220
 315   1 H      0.924     0.038     2.479     2.462
 316   1 H      0.925     0.040     2.448     2.447
 317   7 N      2.684    -0.187    25.047     7.433
 318   6 C      3.785     0.011    20.410     6.435
 319   6 C      2.753     0.278    22.288     7.731
 320   8 O      0.858    -0.464    23.005     6.431
 321   6 C      3.808    -0.109    22.584     6.765
 322   6 C      2.742     0.285    22.173     7.710
 323   8 O      0.861    -0.486    23.470     6.495
 324   7 N      2.637    -0.269    26.976     7.714
 325   1 H      0.860     0.204     1.087     1.633
 326   1 H      0.924     0.097     1.814     2.106
 327   1 H      0.924     0.098     1.803     2.100
 328   1 H      0.924     0.107     1.727     2.055
 329   1 H      0.860     0.259     0.850     1.444
 330   1 H      0.861     0.209     1.061     1.614
 331   7 N      2.684    -0.180    24.909     7.412
 332   6 C      3.795     0.010    20.413     6.434
 333   6 C      2.761     0.273    22.379     7.747
 334   8 O      0.859    -0.490    23.558     6.507
 335   6 C      3.853    -0.016    20.816     6.489
 336   6 C      3.755    -0.115    22.758     6.802
 337   6 C      3.754    -0.120    22.852     6.817
 338   1 H      0.860     0.196     1.124     1.661
 339   1 H      0.924     0.089     1.887     2.148
 340   1 H      0.924     0.052     2.301     2.372
 341   1 H      0.925     0.052     2.291     2.367
 342   1 H      0.925     0.044     2.394     2.419
 343   1 H      0.925     0.044     2.393     2.419
 344   1 H      0.925     0.056     2.252     2.347
 345   1 H      0.925     0.042     2.423     2.434
 346   1 H      0.925     0.048     2.348     2.396
 347   7 N      2.689    -0.169    24.662     7.376
 348   6 C      3.800     0.018    20.267     6.410
 349   6 C      2.766     0.197    23.794     7.989
 350   8 O      0.856    -0.364    20.980     6.141
 351   6 C      3.850    -0.017    20.842     6.493
 352   6 C      3.755    -0.128    23.008     6.839
 353   6 C      3.756    -0.122    22.895     6.822
 354   1 H      0.860     0.207     1.072     1.622
 355   1 H      0.924     0.098     1.808     2.103
 356   1 H      0.924     0.056     2.252     2.347
 357   1 H      0.925     0.071     2.080     2.255
 358   1 H      0.925     0.043     2.403     2.424
 359   1 H      0.925     0.053     2.286     2.365
 360   1 H      0.925     0.067     2.121     2.277
 361   1 H      0.925     0.046     2.366     2.405
 362   1 H      0.925     0.050     2.321     2.383
 363   1 H      0.862     0.184     1.192     1.710
 364   1 H      0.930     0.077     2.014     2.219
 365   1 H      0.862     0.180     1.215     1.727
 366   1 H      0.930     0.068     2.107     2.270
 367   1 H      0.862     0.184     1.191     1.710
 368   1 H      0.930     0.059     2.206     2.322
 369   1 H      0.862     0.189     1.164     1.690
 370   1 H      0.930     0.070     2.089     2.260
 371   1 H      0.862     0.178     1.226     1.735
 372   1 H      0.930     0.073     2.049     2.238
 373   1 H      0.862     0.188     1.169     1.694
 374   1 H      0.930     0.066     2.131     2.283
 375   1 H      0.862     0.166     1.295     1.783
 376   1 H      0.930     0.078     1.999     2.211
 377   1 H      0.862     0.180     1.211     1.724
 378   1 H      0.930     0.061     2.185     2.312
 379   1 H      0.862     0.173     1.255     1.755
 380   1 H      0.930     0.076     2.025     2.225

 Mol. C6AA /au·bohr⁶  :    1288441.347086
 Mol. C8AA /au·bohr⁸  :   28803288.871368
 Mol. α(0) /au        :       1708.296605


Wiberg/Mayer (AO) data.
largest (>0.10) Wiberg bond orders for each atom
          total WBO             WBO to atom ...
     1  N   2.995        C    2 1.013    H  363 0.955    H    9 0.951
     2  C   3.981        N    1 1.013    H   10 0.964    C    5 0.963    C    3 0.937
     3  C   3.935        O    4 1.615    N   20 1.299    C    2 0.937
     4  O   1.956        C    3 1.615    N   20 0.189
     5  C   3.992        C    7 1.008    C    6 0.995    C    2 0.963    H   11 0.962
     6  C   3.995        C    8 1.019    C    5 0.995    H   12 0.976    H   13 0.973
     7  C   3.994        C    5 1.008    H   14 0.984    H   15 0.982    H   16 0.979
     8  C   3.994        C    6 1.019    H   18 0.987    H   17 0.986    H   19 0.985
     9  H   0.972        N    1 0.951
    10  H   0.998        C    2 0.964
    11  H   0.998        C    5 0.962
    12  H   0.998        C    6 0.976
    13  H   0.999        C    6 0.973
    14  H   0.998        C    7 0.984
    15  H   1.000        C    7 0.982
    16  H   0.998        C    7 0.979
    17  H   0.997        C    8 0.986
    18  H   0.998        C    8 0.987
    19  H   0.998        C    8 0.985
    20  N   3.466        C    3 1.299    C   21 0.983    H   28 0.917    O    4 0.189
    21  C   3.970        N   20 0.983    C   22 0.976    C   24 0.964    H   29 0.941
    22  C   3.901        O   23 1.892    C   21 0.976    H  364 0.951
    23  O   2.042        C   22 1.892
    24  C   3.984        C   25 0.995    H   31 0.973    C   21 0.964    H   30 0.963
    25  C   3.994        C   26 1.010    C   27 1.007    C   24 0.995    H   32 0.966
    26  C   3.995        C   25 1.010    H   33 0.986    H   35 0.985    H   34 0.983
    27  C   3.994        C   25 1.007    H   38 0.986    H   36 0.986    H   37 0.986
    28  H   0.952        N   20 0.917
    29  H   0.995        C   21 0.941
    30  H   0.995        C   24 0.963
    31  H   0.996        C   24 0.973
    32  H   0.999        C   25 0.966
    33  H   0.998        C   26 0.986
    34  H   0.999        C   26 0.983
    35  H   0.998        C   26 0.985
    36  H   0.998        C   27 0.986
    37  H   0.997        C   27 0.986
    38  H   0.998        C   27 0.986
    39  N   3.007        C   40 1.011    H  365 0.956    H   47 0.930
    40  C   3.985        N   39 1.011    C   43 0.969    H   48 0.965    C   41 0.962
    41  C   3.891        O   42 1.912    C   40 0.962    H  366 0.954
    42  O   2.044        C   41 1.912
    43  C   3.995        C   44 1.014    H   50 0.973    C   40 0.969    H   49 0.964
    44  C   3.979        C   43 1.014    S   45 0.986    H   52 0.972    H   51 0.969
    45  S   2.075        C   46 1.011    C   44 0.986
    46  C   3.976        S   45 1.011    H   55 0.983    H   54 0.983    H   53 0.981
    47  H   0.973        N   39 0.930
    48  H   0.997        C   40 0.965
    49  H   0.996        C   43 0.964
    50  H   0.998        C   43 0.973
    51  H   0.998        C   44 0.969
    52  H   0.997        C   44 0.972
    53  H   0.996        C   46 0.981
    54  H   0.997        C   46 0.983
    55  H   0.996        C   46 0.983
    56  N   3.009        C   57 1.019    H   68 0.956    H  367 0.937
    57  C   3.983        N   56 1.019    C   58 0.996    H   69 0.950    C   60 0.926
    58  C   3.902        O   59 1.867    C   57 0.996    H  368 0.956
    59  O   2.027        C   58 1.867
    60  C   3.989        C   61 1.019    H   70 0.971    H   71 0.962    C   57 0.926
    61  C   3.987        C   62 1.395    C   63 1.392    C   60 1.019
    62  C   3.991        C   64 1.456    C   61 1.395    H   72 0.959    C   65 0.102
    63  C   3.990        C   65 1.461    C   61 1.392    H   73 0.967    C   64 0.103
    64  C   3.989        C   62 1.456    C   66 1.358    H   74 0.965    C   63 0.103
    65  C   3.983        C   63 1.461    C   66 1.348    H   75 0.959    C   62 0.102
    66  C   3.944        C   64 1.358    C   65 1.348    O   67 1.105
    67  O   2.111        C   66 1.105    H   76 0.798
    68  H   0.977        N   56 0.956
    69  H   0.995        C   57 0.950
    70  H   0.995        C   60 0.971
    71  H   0.994        C   60 0.962
    72  H   0.999        C   62 0.959
    73  H   0.998        C   63 0.967
    74  H   0.998        C   64 0.965
    75  H   0.996        C   65 0.959
    76  H   0.889        O   67 0.798
    77  N   2.990        C   78 1.000    H   85 0.958    H  369 0.948
    78  C   3.980        N   77 1.000    C   79 0.979    C   81 0.963    H   86 0.956
    79  C   3.888        O   80 1.894    C   78 0.979    H  370 0.955
    80  O   2.037        C   79 1.894
    81  C   3.991        C   82 0.993    H   88 0.975    H   87 0.969    C   78 0.963
    82  C   3.995        C   83 1.010    C   84 1.008    C   81 0.993    H   89 0.969
    83  C   3.994        C   82 1.010    H   92 0.984    H   91 0.981    H   90 0.975
    84  C   3.995        C   82 1.008    H   94 0.986    H   95 0.986    H   93 0.985
    85  H   0.976        N   77 0.958
    86  H   0.996        C   78 0.956
    87  H   0.997        C   81 0.969
    88  H   0.999        C   81 0.975
    89  H   0.999        C   82 0.969
    90  H   0.997        C   83 0.975
    91  H   0.998        C   83 0.981
    92  H   0.998        C   83 0.984
    93  H   0.997        C   84 0.985
    94  H   0.998        C   84 0.986
    95  H   0.999        C   84 0.986
    96  N   2.993        C   97 1.018    H  101 0.957    H  371 0.956
    97  C   3.984        N   96 1.018    C  100 0.981    H  102 0.961    C   98 0.940
    98  C   3.944        O   99 1.658    N  106 1.274    C   97 0.940
    99  O   1.965        C   98 1.658    N  106 0.193
   100  C   3.993        H  105 0.983    H  103 0.982    H  104 0.982    C   97 0.981
   101  H   0.975        N   96 0.957
   102  H   0.998        C   97 0.961
   103  H   0.996        C  100 0.982
   104  H   0.996        C  100 0.982
   105  H   0.997        C  100 0.983
   106  N   3.453        C   98 1.274    C  107 0.979    H  113 0.923    O   99 0.193
   107  C   3.966        N  106 0.979    C  110 0.963    H  114 0.952    C  108 0.936
   108  C   3.949        O  109 1.627    N  122 1.293    C  107 0.936
   109  O   1.976        C  108 1.627    N  122 0.195
   110  C   3.989        C  112 1.008    C  111 1.007    C  107 0.963    H  115 0.962
   111  C   3.992        C  110 1.007    H  118 0.984    H  117 0.982    H  116 0.979
   112  C   3.992        C  110 1.008    H  120 0.985    H  119 0.983    H  121 0.983
   113  H   0.958        N  106 0.923
   114  H   0.995        C  107 0.952
   115  H   0.997        C  110 0.962
   116  H   0.996        C  111 0.979
   117  H   0.999        C  111 0.982
   118  H   0.998        C  111 0.984
   119  H   0.997        C  112 0.983
   120  H   0.998        C  112 0.985
   121  H   0.998        C  112 0.983
   122  N   3.475        C  108 1.293    C  123 0.985    H  131 0.924    O  109 0.195
   123  C   3.956        N  122 0.985    C  126 0.967    H  132 0.935    C  124 0.934
   124  C   3.945        O  125 1.646    N  144 1.290    C  123 0.934
   125  O   1.969        C  124 1.646    N  144 0.195
   126  C   3.984        C  127 1.006    H  134 0.973    H  133 0.968    C  123 0.967
   127  C   3.991        C  128 1.008    C  126 1.006    H  135 0.973    H  136 0.970
   128  C   3.986        C  129 1.010    C  127 1.008    H  138 0.969    H  137 0.966
   129  C   3.923        C  128 1.010    H  140 0.966    H  139 0.962    N  130 0.958
   130  N   3.647        C  129 0.958    H  142 0.905    H  143 0.901    H  141 0.822
   131  H   0.959        N  122 0.924
   132  H   0.988        C  123 0.935
   133  H   0.995        C  126 0.968
   134  H   0.997        C  126 0.973
   135  H   0.994        C  127 0.973
   136  H   0.996        C  127 0.970
   137  H   0.994        C  128 0.966
   138  H   0.993        C  128 0.969
   139  H   0.990        C  129 0.962
   140  H   0.990        C  129 0.966
   141  H   0.906        N  130 0.822
   142  H   0.917        N  130 0.905
   143  H   0.922        N  130 0.901
   144  N   3.460        C  124 1.290    C  145 0.994    H  152 0.899    O  125 0.195
   145  C   3.972        N  144 0.994    C  148 0.962    C  146 0.953    H  153 0.934
   146  C   3.957        O  147 1.605    N  158 1.305    C  145 0.953
   147  O   1.957        C  146 1.605    N  158 0.195
   148  C   3.991        H  154 0.972    C  145 0.962    C  149 0.961    H  155 0.953
   149  C   3.945        O  150 1.645    N  151 1.310    C  148 0.961
   150  O   1.956        C  149 1.645    N  151 0.195
   151  N   3.394        C  149 1.310    H  157 0.929    H  156 0.924    O  150 0.195
   152  H   0.954        N  144 0.899
   153  H   0.994        C  145 0.934
   154  H   0.995        C  148 0.972
   155  H   0.993        C  148 0.953
   156  H   0.945        N  151 0.924
   157  H   0.949        N  151 0.929
   158  N   3.525        C  146 1.305    C  159 0.973    C  164 0.972    O  147 0.195
   159  C   3.968        C  160 0.994    N  158 0.973    C  162 0.961    H  165 0.923
   160  C   3.910        O  161 1.858    C  159 0.994    H  372 0.953
   161  O   2.052        C  160 1.858
   162  C   3.983        C  163 1.003    H  166 0.977    H  167 0.974    C  159 0.961
   163  C   3.990        C  162 1.003    C  164 1.002    H  169 0.975    H  168 0.973
   164  C   3.957        C  163 1.002    N  158 0.972    H  170 0.962    H  171 0.960
   165  H   0.990        C  159 0.923
   166  H   0.996        C  162 0.977
   167  H   0.993        C  162 0.974
   168  H   0.993        C  163 0.973
   169  H   0.996        C  163 0.975
   170  H   0.995        C  164 0.962
   171  H   0.993        C  164 0.960
   172  N   3.001        C  173 1.019    H  373 0.947    H  179 0.918
   173  C   3.982        N  172 1.019    C  174 0.985    H  180 0.956    C  176 0.932
   174  C   3.889        O  175 1.884    C  173 0.985    H  374 0.955
   175  O   2.023        C  174 1.884
   176  C   3.992        C  177 1.009    C  178 1.006    H  181 0.965    C  173 0.932
   177  C   3.994        C  176 1.009    H  183 0.986    H  182 0.984    H  184 0.983
   178  C   3.995        C  176 1.006    H  186 0.984    H  187 0.981    H  185 0.976
   179  H   0.971        N  172 0.918
   180  H   0.996        C  173 0.956
   181  H   0.998        C  176 0.965
   182  H   0.997        C  177 0.984
   183  H   0.999        C  177 0.986
   184  H   0.997        C  177 0.983
   185  H   0.995        C  178 0.976
   186  H   0.998        C  178 0.984
   187  H   0.999        C  178 0.981
   188  N   3.065        C  189 1.011    C  194 1.005    H  375 0.958
   189  C   3.987        N  188 1.011    C  192 0.977    H  195 0.955    C  190 0.931
   190  C   3.939        O  191 1.671    N  202 1.260    C  189 0.931
   191  O   1.981        C  190 1.671    N  202 0.191
   192  C   3.994        C  193 1.007    C  189 0.977    H  196 0.976    H  197 0.975
   193  C   3.995        C  192 1.007    C  194 1.005    H  198 0.980    H  199 0.976
   194  C   3.985        N  188 1.005    C  193 1.005    H  201 0.976    H  200 0.974
   195  H   0.999        C  189 0.955
   196  H   0.997        C  192 0.976
   197  H   0.997        C  192 0.975
   198  H   0.998        C  193 0.980
   199  H   0.996        C  193 0.976
   200  H   0.999        C  194 0.974
   201  H   0.999        C  194 0.976
   202  N   3.445        C  190 1.260    C  203 0.991    H  210 0.920    O  191 0.191
   203  C   3.969        N  202 0.991    C  204 0.983    C  206 0.946    H  211 0.942
   204  C   3.896        O  205 1.878    C  203 0.983    H  376 0.954
   205  O   2.069        C  204 1.878
   206  C   3.981        C  207 0.994    H  213 0.970    H  212 0.966    C  203 0.946
   207  C   3.993        C  209 1.009    C  208 1.007    C  206 0.994    H  214 0.962
   208  C   3.995        C  207 1.007    H  217 0.985    H  215 0.984    H  216 0.978
   209  C   3.995        C  207 1.009    H  218 0.986    H  219 0.985    H  220 0.980
   210  H   0.958        N  202 0.920
   211  H   0.992        C  203 0.942
   212  H   0.995        C  206 0.966
   213  H   0.996        C  206 0.970
   214  H   0.997        C  207 0.962
   215  H   0.998        C  208 0.984
   216  H   0.998        C  208 0.978
   217  H   0.998        C  208 0.985
   218  H   0.998        C  209 0.986
   219  H   0.998        C  209 0.985
   220  H   0.999        C  209 0.980
   221  N   3.006        C  222 1.024    H  377 0.952    H  233 0.950
   222  C   3.985        N  221 1.024    C  223 0.992    H  234 0.947    C  225 0.934
   223  C   3.900        O  224 1.885    C  222 0.992    H  378 0.956
   224  O   2.036        C  223 1.885
   225  C   3.991        C  226 1.015    H  235 0.972    H  236 0.953    C  222 0.934
   226  C   3.988        C  227 1.412    C  228 1.398    C  225 1.015
   227  C   3.991        C  229 1.443    C  226 1.412    H  237 0.960    C  230 0.107
   228  C   3.991        C  230 1.461    C  226 1.398    H  238 0.968    C  229 0.106
   229  C   3.988        C  227 1.443    C  231 1.377    H  239 0.965    C  228 0.106
   230  C   3.989        C  228 1.461    C  231 1.365    H  240 0.968    C  227 0.107
   231  C   3.940        C  229 1.377    C  230 1.365    O  232 1.067
   232  O   2.086        C  231 1.067    H  241 0.862
   233  H   0.975        N  221 0.950
   234  H   0.995        C  222 0.947
   235  H   0.997        C  225 0.972
   236  H   0.994        C  225 0.953
   237  H   0.998        C  227 0.960
   238  H   0.999        C  228 0.968
   239  H   0.998        C  229 0.965
   240  H   0.998        C  230 0.968
   241  H   0.882        O  232 0.862
   242  N   3.007        C  243 1.023    H  379 0.936    H  253 0.909
   243  C   3.986        N  242 1.023    C  246 0.965    H  254 0.961    C  244 0.937
   244  C   3.945        O  245 1.632    N  262 1.299    C  243 0.937
   245  O   1.946        C  244 1.632    N  262 0.197
   246  C   3.995        C  247 1.007    H  256 0.971    C  243 0.965    H  255 0.950
   247  C   3.987        C  248 1.415    C  249 1.409    C  246 1.007    C  252 0.110
   248  C   3.992        C  250 1.441    C  247 1.415    H  257 0.948    C  251 0.111
   249  C   3.988        C  251 1.447    C  247 1.409    H  258 0.962    C  250 0.112
   250  C   3.993        C  248 1.441    C  252 1.440    H  259 0.972    C  249 0.112
   251  C   3.991        C  249 1.447    C  252 1.437    H  260 0.970    C  248 0.111
   252  C   3.991        C  250 1.440    C  251 1.437    H  261 0.971    C  247 0.110
   253  H   0.966        N  242 0.909
   254  H   0.998        C  243 0.961
   255  H   0.997        C  246 0.950
   256  H   0.998        C  246 0.971
   257  H   0.999        C  248 0.948
   258  H   0.997        C  249 0.962
   259  H   0.999        C  250 0.972
   260  H   0.997        C  251 0.970
   261  H   0.998        C  252 0.971
   262  N   3.462        C  244 1.299    C  263 0.975    H  270 0.889    O  245 0.197
   263  C   3.963        C  266 0.986    N  262 0.975    H  271 0.942    C  264 0.928
   264  C   3.944        O  265 1.691    N  281 1.241    C  263 0.928
   265  O   2.018        C  264 1.691    N  281 0.187
   266  C   3.987        C  267 0.993    C  263 0.986    H  272 0.971    H  273 0.965
   267  C   3.994        C  268 1.010    C  269 1.010    C  266 0.993    H  274 0.965
   268  C   3.995        C  267 1.010    H  276 0.984    H  277 0.983    H  275 0.980
   269  C   3.995        C  267 1.010    H  280 0.981    H  279 0.980    H  278 0.979
   270  H   0.952        N  262 0.889
   271  H   0.994        C  263 0.942
   272  H   0.997        C  266 0.971
   273  H   0.995        C  266 0.965
   274  H   0.997        C  267 0.965
   275  H   0.998        C  268 0.980
   276  H   0.998        C  268 0.984
   277  H   1.000        C  268 0.983
   278  H   0.998        C  269 0.979
   279  H   0.999        C  269 0.980
   280  H   0.998        C  269 0.981
   281  N   3.417        C  264 1.241    C  282 0.973    H  292 0.931    O  265 0.187
   282  C   3.964        C  285 0.975    N  281 0.973    H  293 0.953    C  283 0.938
   283  C   3.937        O  284 1.709    N  305 1.218    C  282 0.938
   284  O   2.009        C  283 1.709    N  305 0.177
   285  C   3.988        C  286 1.001    C  282 0.975    H  295 0.971    H  294 0.960
   286  C   3.985        C  287 1.008    C  285 1.001    H  296 0.969    H  297 0.964
   287  C   3.954        C  286 1.008    N  288 0.978    H  298 0.961    H  299 0.958
   288  N   3.475        C  289 1.323    C  287 0.978    H  300 0.913    N  290 0.101
   289  C   3.978        N  288 1.323    N  290 1.320    N  291 1.301
   290  N   3.404        C  289 1.320    H  301 0.921    H  302 0.912    N  288 0.101
   291  N   3.382        C  289 1.301    H  303 0.922    H  304 0.914
   292  H   0.966        N  281 0.931
   293  H   0.992        C  282 0.953
   294  H   0.997        C  285 0.960
   295  H   0.997        C  285 0.971
   296  H   0.995        C  286 0.969
   297  H   0.992        C  286 0.964
   298  H   0.994        C  287 0.961
   299  H   0.991        C  287 0.958
   300  H   0.950        N  288 0.913
   301  H   0.946        N  290 0.921
   302  H   0.946        N  290 0.912
   303  H   0.946        N  291 0.922
   304  H   0.940        N  291 0.914
   305  N   3.382        C  283 1.218    C  306 0.977    H  313 0.918    O  284 0.177
   306  C   3.965        N  305 0.977    C  309 0.974    C  307 0.942    H  314 0.936
   307  C   3.950        O  308 1.658    N  317 1.262    C  306 0.942
   308  O   1.980        C  307 1.658    N  317 0.192
   309  C   3.981        H  315 0.977    C  306 0.974    H  316 0.967    C  310 0.901
   310  C   3.935        O  311 1.547    O  312 1.458    C  309 0.901
   311  O   1.846        C  310 1.547    O  312 0.215
   312  O   1.849        C  310 1.458    O  311 0.215
   313  H   0.958        N  305 0.918
   314  H   0.994        C  306 0.936
   315  H   0.999        C  309 0.977
   316  H   0.998        C  309 0.967
   317  N   3.445        C  307 1.262    C  318 0.979    H  325 0.925    O  308 0.192
   318  C   3.959        C  321 0.983    N  317 0.979    H  326 0.940    C  319 0.924
   319  C   3.947        O  320 1.668    N  331 1.274    C  318 0.924
   320  O   1.993        C  319 1.668    N  331 0.189
   321  C   3.980        C  318 0.983    C  322 0.983    H  328 0.946    H  327 0.936
   322  C   3.952        O  323 1.575    N  324 1.351    C  321 0.983
   323  O   1.965        C  322 1.575    N  324 0.195
   324  N   3.425        C  322 1.351    H  330 0.934    H  329 0.891    O  323 0.195
   325  H   0.958        N  317 0.925
   326  H   0.990        C  318 0.940
   327  H   0.990        C  321 0.936
   328  H   0.988        C  321 0.946
   329  H   0.933        N  324 0.891
   330  H   0.956        N  324 0.934
   331  N   3.446        C  319 1.274    C  332 0.986    H  338 0.917    O  320 0.189
   332  C   3.959        N  331 0.986    C  333 0.946    H  339 0.945    C  335 0.945
   333  C   3.947        O  334 1.647    N  347 1.276    C  332 0.946
   334  O   1.961        C  333 1.647    N  347 0.188
   335  C   3.988        C  337 1.010    C  336 1.009    H  340 0.964    C  332 0.945
   336  C   3.993        C  335 1.009    H  343 0.986    H  342 0.986    H  341 0.983
   337  C   3.994        C  335 1.010    H  344 0.983    H  345 0.980    H  346 0.979
   338  H   0.961        N  331 0.917
   339  H   0.992        C  332 0.945
   340  H   0.997        C  335 0.964
   341  H   0.997        C  336 0.983
   342  H   0.998        C  336 0.986
   343  H   0.998        C  336 0.986
   344  H   0.997        C  337 0.983
   345  H   0.998        C  337 0.980
   346  H   0.998        C  337 0.979
   347  N   3.444        C  333 1.276    C  348 0.979    H  354 0.921    O  334 0.188
   348  C   3.959        C  349 0.985    N  347 0.979    C  351 0.941    H  355 0.935
   349  C   3.902        O  350 1.860    C  348 0.985    H  380 0.954
   350  O   2.058        C  349 1.860
   351  C   3.983        C  352 1.007    C  353 1.005    H  356 0.959    C  348 0.941
   352  C   3.989        C  351 1.007    H  359 0.986    H  358 0.982    H  357 0.981
   353  C   3.990        C  351 1.005    H  361 0.986    H  362 0.982    H  360 0.973
   354  H   0.957        N  347 0.921
   355  H   0.990        C  348 0.935
   356  H   0.997        C  351 0.959
   357  H   0.994        C  352 0.981
   358  H   0.998        C  352 0.982
   359  H   0.997        C  352 0.986
   360  H   0.994        C  353 0.973
   361  H   0.998        C  353 0.986
   362  H   0.997        C  353 0.982
   363  H   0.966        N    1 0.955
   364  H   0.994        C   22 0.951
   365  H   0.968        N   39 0.956
   366  H   0.995        C   41 0.954
   367  H   0.966        N   56 0.937
   368  H   0.996        C   58 0.956
   369  H   0.964        N   77 0.948
   370  H   0.995        C   79 0.955
   371  H   0.968        N   96 0.956
   372  H   0.995        C  160 0.953
   373  H   0.965        N  172 0.947
   374  H   0.996        C  174 0.955
   375  H   0.972        N  188 0.958
   376  H   0.993        C  204 0.954
   377  H   0.967        N  221 0.952
   378  H   0.996        C  223 0.956
   379  H   0.970        N  242 0.936
   380  H   0.994        C  349 0.954
 
molecular dipole:
                 x           y           z       tot (Debye)
 q only:       89.620      37.752      37.880
   full:       89.721      37.422      37.635     264.965
molecular quadrupole (traceless):
                xx          xy          yy          xz          yz          zz
 q only:     6369.935    5332.672   -3210.667    5101.672    2377.972   -3159.269
  q+dip:     6406.539    5297.778   -3244.018    5060.234    2322.849   -3162.521
   full:     6407.843    5295.967   -3243.665    5059.770    2321.723   -3164.178


           -------------------------------------------------
          | TOTAL ENERGY             -551.495271614745 Eh   |
          | GRADIENT NORM               0.663455524944 Eh/α |
          | HOMO-LUMO GAP               1.085484271310 eV   |
           -------------------------------------------------

------------------------------------------------------------------------
 * finished run on 2019/05/31 at 06:34:05.647     
------------------------------------------------------------------------
 total:
 * wall-time:     0 d,  0 h,  0 min, 12.161 sec
 *  cpu-time:     0 d,  0 h,  0 min, 24.184 sec
 * ratio c/w:     1.989 speedup
 SCF:
 * wall-time:     0 d,  0 h,  0 min, 11.537 sec
 *  cpu-time:     0 d,  0 h,  0 min, 23.055 sec
 * ratio c/w:     1.998 speedup

