      -----------------------------------------------------------      
     |                   =====================                   |     
     |                           x T B                           |     
     |                   =====================                   |     
     |                         S. Grimme                         |     
     |          Mulliken Center for Theoretical Chemistry        |     
     |                    University of Bonn                     |     
     |                Version 6.1 RC1 (SAW190329)                |     
      -----------------------------------------------------------      

   This program is distributed in the hope that it will be useful,
   but WITHOUT ANY WARRANTY; without even the implied warranty of
   MERCHANTABILITY or FITNESS FOR A PARTICULAR PURPOSE.
   
   FOR NON-COMMERCIAL, ACADEMIA USE ONLY.
   
   Cite this work as:
   S. Grimme, C. Bannwarth, P. Shushkov, J. Comput. Theory Chem., 2017,
   13, 1989-2009. DOI: 10.1021/acs.jctc.7b00118
   C. Bannwarth, S. Ehlert and S. Grimme., J. Comput. Theory Chem., 2019,
   just accepted. DOI: 10.1021/acs.jctc.8b01176
   
   for sTDA-xTB:
   S. Grimme and C. Bannwarth, J. Chem. Phys., 2016, 145, 054103.
   DOI: 10.1063/1.4959605
   
   in the mass-spec context:
   V. Asgeirsson, C. Bauer and S. Grimme, Chem. Sci., 2017, 8, 4879.
   DOI: 10.1039/c7sc00601b
   
   for metadynamics refer to:
   S. Grimme, ChemRxiv, Preprint. DOI: 10.26434/chemrxiv.7660532.v1
   
   with help from (in alphabetical order)
   C. Bannwarth, F. Bohle, G. Brandenburg, E. Caldeweyher, M. Checinski,
   S. Dohm, S. Ehlert, S. Ehrlich, F. März, H. Neugebauer, J. Pisarek,
   P. Pracht, P. Shushkov, and S. Spicher.
   
 * started run on 2019/05/31 at 05:35:21.550     

           -------------------------------------------------
          |                Calculation Setup                |
           -------------------------------------------------

          program call               : /home/lum/install/xtb/xtb-190329/bin/xtb xtb_tmp.xyz --chrg 0 --grad --gfn 2 --etemp 500 --acc 0.1 --gbsa h2o --parallel 2
          hostname                   : cpu02
          coordinate file            : xtb_tmp.xyz
          omp threads                :                     2
          number of atoms            :                   194
          number of electrons        :                   540
          charge                     :                     0
          spin                       :                   0.0
          first test random number   :      0.51613749604285


########################################################################
# WARNING! Please study the warnings concerning your input carefully
#  - XTBPATH is not set, using XTBHOME instead
#  - Process number higher than OMP_NUM_THREADS, I hope you know what you are doing.
########################################################################

           ------------------------------------------------- 
          |                 G F N 2 - x T B                 |
          | Geometry, Frequencies, Noncovalent interactions |
          |            JCTC 2018 parametrisation            |
           ------------------------------------------------- 
 
             k(s)              :                1.8500
             k(p)              :                2.2300
             k(d)              :                2.2300
             k(f)              :                2.0000
             kEN (H0ij)        :               -2.0000
             D4 a1             :                0.5200
             D4 a2             :                5.0000
             D4 s6             :                1.0000
             D4 s8             :                2.7000
             D4 s9             :                5.0000
             alphaj            :                2.0000

  Z AO/shell   Hii/eV     exponent
  1     Wed Apr 25 08:07:45 CEST 2018   EN: 2.200 GM2: 0.406  GM3: 0.0800  RAES: 1.40
     1s    -10.707211    1.230000
  6     Wed Apr 25 08:07:45 CEST 2018   EN: 2.550 GM2: 0.538  GM3: 0.1500  RAES: 3.00
     2s    -13.970922    2.096432
     2p    -10.063292    1.800000
  7     Wed Apr 25 08:07:45 CEST 2018   EN: 3.040 GM2: 0.461  GM3:-0.0640  RAES: 1.90
     2s    -16.686243    2.339881
     2p    -12.523956    2.014332
  8     Wed Apr 25 08:07:45 CEST 2018   EN: 3.440 GM2: 0.452  GM3:-0.0517  RAES: 1.80
     2s    -20.229985    2.439742
     2p    -15.503117    2.137023

 Solvent             : h2o
 Using internal parameter file: .param_gbsa2_h2o
 Gsolv ref. state (COSMO-RS): gsolv [1 M gas/solution]
 temperature (mdtemp)       :    298.150000000000     
 dielectric constant        :    80.2000000000000     
 rho                        :    1.00000000000000     
 mass                       :    18.0000000000000     
 surface tension            :    15.5689454083859     
 probe radius               :   0.975313790000000     
 vdW radii scaling          :    1.00000000000000     
 Gshift (Eh)                :   1.857443126794793E-003
 c1                         :    1.55243817000000     
 soset                      :   0.130326360000000     
 HB correction              :  T
 Number of grid points      :          230

            Z     q(EN)     CN     RAES       Cart. coordinates
     1  N   5.0   -0.72    3.00    1.93   191.78451   138.44130   324.96387
     2  C   4.0    0.06    3.98    3.59   192.66823   140.31547   326.76980
     3  C   4.0    0.29    3.01    3.02   190.46094   140.95746   328.53688
     4  O   6.0   -0.46    1.00    1.80   190.63885   140.88413   330.84592
     5  C   4.0   -0.14    3.98    3.59   193.68438   142.64319   325.37440
     6  C   4.0   -0.12    3.98    3.59   196.00357   143.78873   326.67102
     7  C   4.0    0.27    3.00    3.02   197.05433   145.89312   325.01932
     8  O   6.0   -0.39    1.00    1.80   196.63444   148.12862   325.39973
     9  N   5.0   -0.66    3.00    1.93   198.40841   145.08070   323.03131
    10  H   1.0    0.25    1.00    1.43   191.94464   138.86397   323.10063
    11  H   1.0    0.10    0.99    1.43   194.15370   139.46667   327.94327
    12  H   1.0    0.11    0.99    1.43   194.21189   142.05557   323.47130
    13  H   1.0    0.12    0.99    1.43   192.20637   144.07171   325.21509
    14  H   1.0    0.12    0.99    1.43   195.49229   144.57186   328.50577
    15  H   1.0    0.10    0.99    1.43   197.43910   142.33587   326.93991
    16  H   1.0    0.25    1.00    1.43   198.82920   143.24192   322.80258
    17  H   1.0    0.28    1.00    1.43   199.21400   146.35827   321.87198
    18  N   5.0   -0.47    3.01    1.93   188.33433   141.56733   327.32984
    19  C   4.0    0.06    4.00    3.61   185.97002   141.86060   328.68370
    20  C   4.0    0.30    3.01    3.02   185.54743   139.48486   330.28102
    21  O   6.0   -0.45    1.00    1.80   185.16405   139.61268   332.56314
    22  C   4.0   -0.23    3.98    3.59   183.80208   142.27349   326.84335
    23  H   1.0    0.24    1.00    1.43   188.27070   141.59566   325.41158
    24  H   1.0    0.12    0.99    1.43   186.13521   143.45143   330.00604
    25  H   1.0    0.10    0.99    1.43   182.03359   142.41857   327.87500
    26  H   1.0    0.10    0.99    1.43   184.10939   144.00308   325.78268
    27  H   1.0    0.10    0.99    1.43   183.68923   140.69467   325.53464
    28  N   5.0   -0.48    3.00    1.93   185.68356   137.32577   329.00162
    29  C   4.0    0.01    3.99    3.61   185.38461   134.89050   330.20016
    30  C   4.0    0.30    3.01    3.02   186.55689   134.86648   332.83028
    31  O   6.0   -0.47    1.00    1.80   185.28532   134.42411   334.71180
    32  H   1.0    0.23    1.00    1.43   185.75983   137.32184   327.07632
    33  H   1.0    0.11    0.99    1.43   183.38068   134.40419   330.39433
    34  H   1.0    0.09    0.99    1.43   186.32666   133.47277   329.03392
    35  N   5.0   -0.49    3.01    1.93   189.05538   135.22272   332.90377
    36  C   4.0    0.10    4.00    3.62   190.40831   134.96573   335.26282
    37  C   4.0    0.31    3.01    3.02   189.55778   136.93402   337.19097
    38  O   6.0   -0.43    1.00    1.80   189.11218   136.34445   339.38287
    39  C   4.0    0.02    3.98    3.58   193.29049   134.94432   334.85177
    40  O   6.0   -0.47    1.99    1.82   194.38303   133.91721   337.05184
    41  C   4.0   -0.20    3.98    3.58   194.43718   137.51601   334.23533
    42  H   1.0    0.24    1.00    1.43   190.02663   135.53388   331.28033
    43  H   1.0    0.13    0.99    1.43   189.92113   133.13027   336.11394
    44  H   1.0    0.10    0.99    1.43   193.62537   133.66398   333.24189
    45  H   1.0    0.24    0.99    1.43   196.07463   133.33072   336.57458
    46  H   1.0    0.10    0.99    1.43   196.39994   137.24587   333.69022
    47  H   1.0    0.13    0.99    1.43   193.42625   138.42147   332.69892
    48  H   1.0    0.13    0.99    1.43   194.37672   138.72477   335.89413
    49  N   5.0   -0.49    3.01    1.93   189.31475   139.29823   336.34064
    50  C   4.0    0.10    4.00    3.62   188.47215   141.27683   338.03432
    51  C   4.0    0.32    3.01    3.02   186.04889   140.46192   339.41530
    52  O   6.0   -0.43    1.00    1.80   185.80225   140.61742   341.71357
    53  C   4.0   -0.01    3.98    3.59   188.01634   143.70801   336.53554
    54  O   6.0   -0.47    1.99    1.83   187.55738   145.67349   338.26319
    55  H   1.0    0.29    1.00    1.43   189.63653   139.74984   334.50734
    56  H   1.0    0.14    0.99    1.43   189.90429   141.64283   339.49105
    57  H   1.0    0.12    0.99    1.43   189.71174   144.09767   335.39870
    58  H   1.0    0.13    0.99    1.43   186.39973   143.42736   335.26686
    59  H   1.0    0.26    0.99    1.43   187.21735   147.21401   337.34795
    60  N   5.0   -0.48    3.01    1.93   184.25981   139.60293   337.86963
    61  C   4.0    0.09    4.00    3.62   181.78668   138.87303   338.77718
    62  C   4.0    0.29    3.02    3.02   182.01207   136.55613   340.47024
    63  O   6.0   -0.48    1.00    1.80   180.85654   136.41249   342.48267
    64  C   4.0   -0.09    3.98    3.59   179.97959   138.41737   336.55095
    65  C   4.0   -0.22    3.98    3.59   177.43288   137.46649   337.51347
    66  C   4.0   -0.21    3.98    3.59   179.61531   140.87272   335.07768
    67  H   1.0    0.30    1.00    1.43   184.60620   139.43321   335.99515
    68  H   1.0    0.16    0.99    1.43   181.02822   140.41007   339.95101
    69  H   1.0    0.14    0.99    1.43   180.83478   136.98531   335.32510
    70  H   1.0    0.10    0.99    1.43   176.14490   137.17771   335.94104
    71  H   1.0    0.12    0.99    1.43   177.63362   135.69285   338.52977
    72  H   1.0    0.12    0.99    1.43   176.61256   138.85370   338.78965
    73  H   1.0    0.10    0.99    1.43   178.21019   140.60346   333.60478
    74  H   1.0    0.13    0.99    1.43   178.96788   142.35301   336.34774
    75  H   1.0    0.13    0.99    1.43   181.37303   141.47312   334.20647
    76  N   5.0   -0.48    3.01    1.93   183.50021   134.69107   339.67096
    77  C   4.0    0.08    4.00    3.62   183.76025   132.44109   341.19651
    78  C   4.0    0.29    3.01    3.02   184.87012   133.02331   343.80267
    79  O   6.0   -0.47    1.00    1.80   184.36364   131.64305   345.60631
    80  C   4.0   -0.13    3.99    3.60   185.39612   130.45655   339.88891
    81  C   4.0   -0.10    3.98    3.58   184.15049   129.24928   337.56749
    82  C   4.0   -0.22    3.98    3.59   186.13048   127.69814   336.15378
    83  C   4.0   -0.23    3.98    3.59   181.90010   127.59472   338.28977
    84  H   1.0    0.31    1.00    1.43   184.44627   134.79420   338.00789
    85  H   1.0    0.12    0.99    1.43   181.86295   131.67758   341.56134
    86  H   1.0    0.13    0.99    1.43   187.15794   131.37575   339.33499
    87  H   1.0    0.11    0.99    1.43   185.84187   128.97999   341.25921
    88  H   1.0    0.14    0.99    1.43   183.49469   130.75903   336.31855
    89  H   1.0    0.10    0.99    1.43   185.27958   126.76599   334.53327
    90  H   1.0    0.11    0.99    1.43   187.63793   128.91716   335.47203
    91  H   1.0    0.10    0.99    1.43   186.94792   126.27941   337.39647
    92  H   1.0    0.10    0.99    1.43   181.05950   126.76950   336.60713
    93  H   1.0    0.10    0.99    1.43   182.47052   126.06329   339.53688
    94  H   1.0    0.10    0.99    1.43   180.44309   128.69263   339.23467
    95  N   5.0   -0.46    3.01    1.93   186.44587   134.97457   343.93227
    96  C   4.0    0.07    3.99    3.61   187.58295   135.80014   346.28287
    97  C   4.0    0.30    3.01    3.02   185.53971   136.91428   348.00837
    98  O   6.0   -0.45    1.00    1.80   185.27468   136.17620   350.19458
    99  C   4.0   -0.20    3.98    3.59   189.65516   137.72093   345.74432
   100  H   1.0    0.31    1.00    1.43   186.96884   135.90096   342.33923
   101  H   1.0    0.13    0.99    1.43   188.35474   134.14634   347.26969
   102  H   1.0    0.11    0.99    1.43   190.51521   138.34190   347.50097
   103  H   1.0    0.13    0.99    1.43   191.08810   136.86482   344.54765
   104  H   1.0    0.15    0.99    1.43   188.86588   139.34433   344.76305
   105  N   5.0   -0.48    3.01    1.93   184.10493   138.70708   346.96980
   106  C   4.0    0.08    4.00    3.61   182.09631   139.88370   348.42264
   107  C   4.0    0.29    3.01    3.02   180.20064   137.86252   349.27814
   108  O   6.0   -0.43    1.00    1.80   179.17427   137.93648   351.34874
   109  C   4.0   -0.14    3.98    3.59   180.84089   142.06067   346.97605
   110  C   4.0   -0.11    3.98    3.59   178.64370   141.23964   345.27714
   111  C   4.0    0.27    3.00    3.02   177.80160   143.42825   343.62662
   112  O   6.0   -0.42    1.00    1.80   178.48129   143.66873   341.43088
   113  N   5.0   -0.65    3.00    1.93   176.25263   145.08509   344.75458
   114  H   1.0    0.29    1.00    1.43   184.41723   139.29183   345.16982
   115  H   1.0    0.16    0.99    1.43   182.90758   140.65414   350.16904
   116  H   1.0    0.12    0.99    1.43   180.17917   143.43205   348.36486
   117  H   1.0    0.14    0.99    1.43   182.28750   142.96784   345.81539
   118  H   1.0    0.15    0.99    1.43   179.26265   139.71292   344.04268
   119  H   1.0    0.12    0.99    1.43   177.06491   140.57862   346.42456
   120  H   1.0    0.26    1.00    1.43   175.73435   144.87690   346.57022
   121  H   1.0    0.28    1.00    1.43   175.65831   146.61829   343.79508
   122  N   5.0   -0.47    3.01    1.93   179.78775   136.02490   347.59814
   123  C   4.0    0.07    3.99    3.61   178.08942   133.95455   348.15356
   124  C   4.0    0.30    3.01    3.02   179.11962   132.50041   350.42749
   125  O   6.0   -0.47    1.00    1.80   177.83653   132.23115   352.33551
   126  C   4.0   -0.21    3.98    3.59   177.78086   132.25200   345.86107
   127  H   1.0    0.31    1.00    1.43   180.54235   136.09594   345.83746
   128  H   1.0    0.12    0.99    1.43   176.25679   134.72756   348.75117
   129  H   1.0    0.10    0.99    1.43   176.40069   130.78841   346.26480
   130  H   1.0    0.11    0.99    1.43   177.14474   133.37000   344.26016
   131  H   1.0    0.13    0.99    1.43   179.57877   131.37407   345.39866
   132  N   5.0   -0.48    3.01    1.93   181.45374   131.58500   350.19432
   133  C   4.0    0.08    3.99    3.61   182.65061   130.10938   352.17832
   134  C   4.0    0.31    3.01    3.02   182.22423   131.34780   354.76549
   135  O   6.0   -0.37    1.00    1.80   181.47141   130.17500   356.60748
   136  C   4.0   -0.10    3.99    3.60   185.47624   129.88972   351.61534
   137  C   4.0    0.27    3.00    3.02   186.75432   127.84397   353.18899
   138  O   6.0   -0.37    1.00    1.80   185.71719   126.69469   354.88193
   139  N   5.0   -0.65    3.01    1.93   189.14732   127.37747   352.47298
   140  H   1.0    0.30    1.00    1.43   182.46271   131.81572   348.57209
   141  H   1.0    0.13    0.99    1.43   181.79719   128.21866   352.26889
   142  H   1.0    0.13    0.99    1.43   185.72356   129.46525   349.61006
   143  H   1.0    0.13    0.99    1.43   186.40059   131.69310   352.00866
   144  H   1.0    0.29    1.00    1.43   190.16786   126.08506   353.42638
   145  H   1.0    0.26    1.00    1.43   190.00165   128.40638   351.12486
   146  N   5.0   -0.48    3.01    1.93   182.75562   133.81217   354.80223
   147  C   4.0    0.07    4.00    3.61   182.61168   135.27155   357.10776
   148  C   4.0    0.30    3.01    3.02   180.19428   134.68134   358.56507
   149  O   6.0   -0.36    1.00    1.80   180.19974   134.55787   360.89117
   150  C   4.0   -0.13    3.99    3.60   182.67508   138.10126   356.50912
   151  C   4.0   -0.11    3.98    3.59   185.30132   138.96066   355.67797
   152  C   4.0    0.28    3.00    3.02   185.27715   141.61707   354.59500
   153  O   6.0   -0.41    1.00    1.80   183.35782   142.71972   353.93855
   154  N   5.0   -0.65    3.00    1.93   187.58135   142.64115   354.28279
   155  H   1.0    0.29    1.00    1.43   183.40438   134.68995   353.23057
   156  H   1.0    0.13    0.99    1.43   184.21371   134.75477   358.32740
   157  H   1.0    0.17    0.99    1.43   181.31487   138.50419   355.00994
   158  H   1.0    0.13    0.99    1.43   182.09581   139.16010   358.18072
   159  H   1.0    0.11    0.99    1.43   186.62783   138.84933   357.24945
   160  H   1.0    0.14    0.99    1.43   185.98512   137.72715   354.16991
   161  H   1.0    0.26    1.00    1.43   189.15990   141.75187   354.85109
   162  H   1.0    0.29    1.00    1.43   187.71541   144.39576   353.55721
   163  N   5.0   -0.47    3.01    1.93   178.08948   134.49188   357.20557
   164  C   4.0    0.08    4.00    3.61   175.62712   134.23087   358.37902
   165  C   4.0    0.27    3.02    3.02   175.50548   131.83863   360.00275
   166  O   6.0   -0.36    1.01    1.80   175.36265   132.07646   362.32616
   167  C   4.0   -0.10    3.98    3.58   173.51932   134.48732   356.40672
   168  C   4.0   -0.22    3.98    3.59   170.95369   133.93218   357.60646
   169  C   4.0   -0.21    3.98    3.59   173.56329   137.15095   355.29241
   170  H   1.0    0.30    1.00    1.43   178.16866   134.37247   355.29574
   171  H   1.0    0.14    0.99    1.43   175.43818   135.77444   359.76224
   172  H   1.0    0.13    0.99    1.43   173.87539   133.14365   354.88307
   173  H   1.0    0.10    0.99    1.43   169.46554   134.14693   356.20914
   174  H   1.0    0.12    0.99    1.43   170.87826   132.01897   358.35076
   175  H   1.0    0.11    0.99    1.43   170.58615   135.23551   359.15290
   176  H   1.0    0.10    0.99    1.43   172.04370   137.35601   353.92722
   177  H   1.0    0.11    0.99    1.43   173.30544   138.55668   356.76938
   178  H   1.0    0.14    0.99    1.43   175.34532   137.52399   354.34016
   179  N   5.0   -0.33    3.03    1.93   175.56196   129.54899   358.97178
   180  C   4.0    0.07    4.03    3.68   175.43092   127.36981   360.65154
   181  C   4.0    0.11    3.00    3.02   177.44513   127.47695   362.70403
   182  O   6.0   -0.37    1.00    1.80   176.94886   126.83702   364.87760
   183  C   4.0   -0.14    4.01    3.63   175.72838   125.05054   358.93536
   184  C   4.0   -0.13    4.01    3.64   176.90711   126.13299   356.53545
   185  C   4.0   -0.03    4.02    3.66   175.70211   128.74453   356.35633
   186  H   1.0    0.14    0.99    1.43   173.60982   127.36266   361.63746
   187  H   1.0    0.12    0.99    1.43   176.86874   123.58714   359.82281
   188  H   1.0    0.10    0.99    1.43   173.87201   124.25923   358.52869
   189  H   1.0    0.15    0.99    1.43   178.94552   126.33724   356.73757
   190  H   1.0    0.10    0.99    1.43   176.50964   124.99081   354.87755
   191  H   1.0    0.17    0.99    1.43   176.82337   130.03792   355.23045
   192  H   1.0    0.10    0.99    1.43   173.79001   128.61094   355.57568
   193  H   1.0    0.29    1.00    1.43   192.65615   136.99596   325.17322
   194  H   1.0    0.17    1.00    1.43   179.18923   128.07239   362.28613

           ------------------------------------------------- 
          |        Self-Consistent Charge Iterations        |
           ------------------------------------------------- 

          ...................................................
          :                      SETUP                      :
          :.................................................:
          :  # basis functions                 482          :
          :  # atomic orbitals                 482          :
          :  # shells                          290          :
          :  # electrons                       540          :
          :  max. iterations                   250          :
          :  Hamiltonian                  GFN2-xTB          :
          :  restarted?                      false          :
          :  GBSA solvation                   true          :
          :  PC potential                    false          :
          :  electronic temp.          500.0000000     K    :
          :  accuracy                    0.1000000          :
          :  -> integral cutoff          0.3500000E+02      :
          :  -> integral neglect         0.1000000E-08      :
          :  -> SCF convergence          0.1000000E-06 Eh   :
          :  -> wf. convergence          0.1000000E-04 e    :
          :  Broyden damping             0.4000000          :
          ...................................................

 iter      E             dE          RMSdq      gap      omega  full diag
   1   -311.1692939 -0.311169E+03  0.430E+00    1.75       0.0  T
   2   -312.1115795 -0.942286E+00  0.226E+00    2.08       1.0  T
   3   -312.1352242 -0.236447E-01  0.118E+00    2.79       1.0  T
   4   -312.1388038 -0.357961E-02  0.187E-01    2.67       1.0  T
   5   -312.1418956 -0.309182E-02  0.880E-02    2.89       1.0  T
   6   -312.1420528 -0.157155E-03  0.403E-02    2.87       1.0  T
   7   -312.1420725 -0.197729E-04  0.109E-02    2.89       1.0  T
   8   -312.1420773 -0.475501E-05  0.495E-03    2.88       1.5  T
   9   -312.1420779 -0.627010E-06  0.216E-03    2.88       3.3  T
  10   -312.1420780 -0.834084E-07  0.797E-04    2.88       9.0  T
  11   -312.1420780 -0.272914E-07  0.238E-04    2.88      30.2  T
  12   -312.1420780 -0.158735E-08  0.110E-04    2.88      65.1  T
  13   -312.1420780 -0.219586E-09  0.427E-05    2.88     168.1  T
  14   -312.1420780 -0.375167E-10  0.154E-05    2.88     466.7  T

   *** convergence criteria satisfied after 14 iterations ***

         #    Occupation            Energy/Eh            Energy/eV
      -------------------------------------------------------------
         1        2.0000           -0.7319216             -19.9166
       ...           ...                  ...                  ...
       264        2.0000           -0.3951190             -10.7517
       265        2.0000           -0.3939279             -10.7193
       266        2.0000           -0.3931369             -10.6978
       267        2.0000           -0.3883140             -10.5666
       268        2.0000           -0.3847905             -10.4707
       269        2.0000           -0.3842220             -10.4552
       270        2.0000           -0.3814574             -10.3800 (HOMO)
       271                         -0.2754732              -7.4960 (LUMO)
       272                         -0.2492955              -6.7837
       273                         -0.2422202              -6.5911
       274                         -0.2383959              -6.4871
       275                         -0.2364915              -6.4353
       ...                                ...                  ...
       482                          0.6352608              17.2863
      -------------------------------------------------------------
                  HL-Gap            0.1059842 Eh            2.8840 eV
             Fermi-level           -0.3284653 Eh           -8.9380 eV

 SCC (total)                   0 d,  0 h,  0 min,  0.896 sec
 SCC setup                      ...        0 min,  0.020 sec (  2.253%)
 Dispersion                     ...        0 min,  0.013 sec (  1.397%)
 integral evaluation            ...        0 min,  0.063 sec (  6.978%)
 zeroth order Hamiltonian       ...        0 min,  0.001 sec (  0.167%)
 iterations                     ...        0 min,  0.597 sec ( 66.677%)
 molecular gradient             ...        0 min,  0.195 sec ( 21.750%)
 printout                       ...        0 min,  0.007 sec (  0.768%)

         :::::::::::::::::::::::::::::::::::::::::::::::::::::
         ::                     SUMMARY                     ::
         :::::::::::::::::::::::::::::::::::::::::::::::::::::
         :: total energy             -308.600708374729 Eh   ::
         :: total w/o Gsasa/hb       -308.557554853470 Eh   ::
         :: gradient norm               0.226577502654 Eh/α ::
         :: HOMO-LUMO gap               2.883977982020 eV   ::
         ::.................................................::
         :: SCC energy               -312.151230735071 Eh   ::
         :: -> isotropic ES             0.951814281374 Eh   ::
         :: -> anisotropic ES          -0.029420503522 Eh   ::
         :: -> anisotropic XC           0.079075890776 Eh   ::
         :: -> dispersion              -0.260078038093 Eh   ::
         :: -> Gsolv                   -0.187578672803 Eh   ::
         ::    -> Gborn                -0.144425151545 Eh   ::
         ::    -> Gsasa                -0.011010154026 Eh   ::
         ::    -> Ghb                  -0.034000810359 Eh   ::
         ::    -> Gshift                0.001857443127 Eh   ::
         :: repulsion energy            3.532307043796 Eh   ::
         :: add. restraining            0.000000000000 Eh   ::
         :::::::::::::::::::::::::::::::::::::::::::::::::::::

           -------------------------------------------------
          |                Property Printout                |
           -------------------------------------------------

    * Orbital Energies and Occupations

         #    Occupation            Energy/Eh            Energy/eV
      -------------------------------------------------------------
         1        2.0000           -0.7319216             -19.9166
       ...           ...                  ...                  ...
       258        2.0000           -0.4043144             -11.0020
       259        2.0000           -0.4038791             -10.9901
       260        2.0000           -0.4031326             -10.9698
       261        2.0000           -0.4024137             -10.9502
       262        2.0000           -0.4002123             -10.8903
       263        2.0000           -0.3960946             -10.7783
       264        2.0000           -0.3951190             -10.7517
       265        2.0000           -0.3939279             -10.7193
       266        2.0000           -0.3931369             -10.6978
       267        2.0000           -0.3883140             -10.5666
       268        2.0000           -0.3847905             -10.4707
       269        2.0000           -0.3842220             -10.4552
       270        2.0000           -0.3814574             -10.3800 (HOMO)
       271                         -0.2754732              -7.4960 (LUMO)
       272                         -0.2492955              -6.7837
       273                         -0.2422202              -6.5911
       274                         -0.2383959              -6.4871
       275                         -0.2364915              -6.4353
       276                         -0.2352665              -6.4019
       277                         -0.2301213              -6.2619
       278                         -0.2260337              -6.1507
       279                         -0.2247395              -6.1155
       280                         -0.2226043              -6.0574
       281                         -0.2217199              -6.0333
       ...                                ...                  ...
       482                          0.6352608              17.2863
      -------------------------------------------------------------
                  HL-Gap            0.1059842 Eh            2.8840 eV
             Fermi-level           -0.3284653 Eh           -8.9380 eV

   #   Z        covCN         q      C6AA      α(0)
   1   7 N      2.637    -0.397    30.277     8.172
   2   6 C      3.787     0.021    20.237     6.407
   3   6 C      2.758     0.265    22.525     7.772
   4   8 O      0.858    -0.500    23.785     6.539
   5   6 C      3.807    -0.070    21.839     6.653
   6   6 C      3.807    -0.100    22.408     6.739
   7   6 C      2.746     0.292    22.044     7.688
   8   8 O      0.859    -0.509    23.989     6.567
   9   7 N      2.639    -0.291    27.508     7.789
  10   1 H      0.860     0.171     1.264     1.761
  11   1 H      0.924     0.049     2.332     2.388
  12   1 H      0.924     0.065     2.137     2.286
  13   1 H      0.924     0.051     2.302     2.372
  14   1 H      0.925     0.061     2.185     2.312
  15   1 H      0.925     0.067     2.119     2.277
  16   1 H      0.860     0.231     0.962     1.537
  17   1 H      0.860     0.226     0.981     1.552
  18   7 N      2.694    -0.172    24.724     7.385
  19   6 C      3.798     0.017    20.290     6.414
  20   6 C      2.759     0.276    22.333     7.739
  21   8 O      0.858    -0.484    23.432     6.490
  22   6 C      3.757    -0.142    23.291     6.881
  23   1 H      0.860     0.228     0.974     1.546
  24   1 H      0.923     0.076     2.021     2.223
  25   1 H      0.925     0.075     2.035     2.231
  26   1 H      0.925     0.083     1.953     2.185
  27   1 H      0.925     0.075     2.036     2.231
  28   7 N      2.688    -0.164    24.539     7.357
  29   6 C      3.747    -0.041    21.382     6.596
  30   6 C      2.758     0.285    22.175     7.711
  31   8 O      0.859    -0.469    23.118     6.446
  32   1 H      0.860     0.234     0.950     1.527
  33   1 H      0.924     0.100     1.781     2.087
  34   1 H      0.924     0.105     1.739     2.062
  35   7 N      2.689    -0.180    24.901     7.411
  36   6 C      3.800     0.018    20.281     6.412
  37   6 C      2.759     0.283    22.209     7.717
  38   8 O      0.859    -0.485    23.446     6.492
  39   6 C      3.725     0.113    18.832     6.196
  40   8 O      1.654    -0.490    22.687     6.430
  41   6 C      3.751    -0.147    23.402     6.899
  42   1 H      0.860     0.213     1.044     1.601
  43   1 H      0.923     0.081     1.964     2.192
  44   1 H      0.923     0.040     2.452     2.449
  45   1 H      0.803     0.353     0.581     1.198
  46   1 H      0.925     0.067     2.118     2.276
  47   1 H      0.925     0.071     2.070     2.250
  48   1 H      0.925     0.052     2.289     2.366
  49   7 N      2.690    -0.180    24.892     7.410
  50   6 C      3.801     0.021    20.225     6.403
  51   6 C      2.756     0.284    22.181     7.712
  52   8 O      0.858    -0.501    23.807     6.542
  53   6 C      3.678     0.076    19.525     6.330
  54   8 O      1.656    -0.489    22.660     6.426
  55   1 H      0.860     0.229     0.969     1.542
  56   1 H      0.923     0.076     2.024     2.225
  57   1 H      0.923     0.051     2.311     2.377
  58   1 H      0.924     0.046     2.376     2.411
  59   1 H      0.805     0.356     0.575     1.191
  60   7 N      2.693    -0.187    25.060     7.435
  61   6 C      3.802     0.018    20.269     6.410
  62   6 C      2.764     0.274    22.370     7.746
  63   8 O      0.859    -0.506    23.912     6.556
  64   6 C      3.853    -0.016    20.819     6.490
  65   6 C      3.757    -0.116    22.768     6.803
  66   6 C      3.757    -0.124    22.923     6.826
  67   1 H      0.860     0.234     0.946     1.524
  68   1 H      0.923     0.085     1.928     2.172
  69   1 H      0.924     0.049     2.327     2.386
  70   1 H      0.925     0.059     2.209     2.324
  71   1 H      0.925     0.034     2.535     2.490
  72   1 H      0.925     0.047     2.364     2.404
  73   1 H      0.925     0.057     2.237     2.339
  74   1 H      0.925     0.053     2.283     2.363
  75   1 H      0.925     0.049     2.329     2.387
  76   7 N      2.689    -0.186    25.024     7.430
  77   6 C      3.803     0.026    20.134     6.388
  78   6 C      2.757     0.271    22.421     7.754
  79   8 O      0.858    -0.508    23.970     6.564
  80   6 C      3.812    -0.072    21.870     6.657
  81   6 C      3.850    -0.016    20.830     6.492
  82   6 C      3.758    -0.116    22.777     6.804
  83   6 C      3.755    -0.119    22.831     6.813
  84   1 H      0.860     0.235     0.943     1.521
  85   1 H      0.923     0.071     2.071     2.251
  86   1 H      0.924     0.052     2.297     2.370
  87   1 H      0.924     0.057     2.233     2.337
  88   1 H      0.924     0.053     2.289     2.366
  89   1 H      0.925     0.052     2.296     2.369
  90   1 H      0.925     0.033     2.541     2.493
  91   1 H      0.925     0.044     2.393     2.419
  92   1 H      0.925     0.050     2.320     2.382
  93   1 H      0.925     0.043     2.410     2.428
  94   1 H      0.925     0.034     2.532     2.489
  95   7 N      2.691    -0.178    24.849     7.403
  96   6 C      3.795     0.024    20.175     6.396
  97   6 C      2.760     0.270    22.444     7.758
  98   8 O      0.858    -0.504    23.875     6.551
  99   6 C      3.757    -0.137    23.191     6.866
 100   1 H      0.860     0.228     0.974     1.546
 101   1 H      0.924     0.075     2.030     2.228
 102   1 H      0.925     0.071     2.075     2.253
 103   1 H      0.925     0.079     1.988     2.205
 104   1 H      0.925     0.071     2.075     2.253
 105   7 N      2.689    -0.177    24.836     7.402
 106   6 C      3.799     0.020    20.249     6.407
 107   6 C      2.756     0.281    22.249     7.724
 108   8 O      0.859    -0.498    23.736     6.532
 109   6 C      3.805    -0.068    21.794     6.646
 110   6 C      3.806    -0.108    22.555     6.761
 111   6 C      2.745     0.290    22.078     7.694
 112   8 O      0.859    -0.495    23.668     6.523
 113   7 N      2.639    -0.289    27.460     7.783
 114   1 H      0.860     0.225     0.989     1.557
 115   1 H      0.924     0.080     1.978     2.199
 116   1 H      0.924     0.066     2.126     2.280
 117   1 H      0.924     0.067     2.119     2.276
 118   1 H      0.925     0.087     1.912     2.163
 119   1 H      0.924     0.052     2.296     2.370
 120   1 H      0.860     0.225     0.989     1.558
 121   1 H      0.860     0.236     0.941     1.520
 122   7 N      2.693    -0.197    25.267     7.466
 123   6 C      3.797     0.027    20.119     6.387
 124   6 C      2.758     0.276    22.329     7.738
 125   8 O      0.859    -0.494    23.649     6.520
 126   6 C      3.756    -0.134    23.134     6.858
 127   1 H      0.860     0.234     0.948     1.525
 128   1 H      0.923     0.071     2.072     2.251
 129   1 H      0.925     0.073     2.048     2.238
 130   1 H      0.925     0.078     2.000     2.212
 131   1 H      0.925     0.064     2.154     2.295
 132   7 N      2.690    -0.187    25.045     7.433
 133   6 C      3.798     0.031    20.053     6.376
 134   6 C      2.757     0.289    22.100     7.698
 135   8 O      0.858    -0.487    23.489     6.498
 136   6 C      3.812    -0.116    22.704     6.782
 137   6 C      2.743     0.293    22.032     7.685
 138   8 O      0.859    -0.490    23.564     6.508
 139   7 N      2.640    -0.295    27.614     7.804
 140   1 H      0.860     0.233     0.951     1.528
 141   1 H      0.923     0.075     2.029     2.228
 142   1 H      0.924     0.102     1.769     2.080
 143   1 H      0.924     0.082     1.964     2.191
 144   1 H      0.860     0.238     0.931     1.511
 145   1 H      0.860     0.234     0.948     1.525
 146   7 N      2.692    -0.192    25.171     7.451
 147   6 C      3.799     0.028    20.098     6.383
 148   6 C      2.759     0.287    22.135     7.704
 149   8 O      0.859    -0.524    24.313     6.611
 150   6 C      3.809    -0.065    21.732     6.636
 151   6 C      3.808    -0.105    22.492     6.751
 152   6 C      2.744     0.290    22.075     7.693
 153   8 O      0.859    -0.497    23.707     6.528
 154   7 N      2.639    -0.298    27.692     7.815
 155   1 H      0.860     0.221     1.007     1.572
 156   1 H      0.923     0.057     2.240     2.341
 157   1 H      0.924     0.078     1.999     2.211
 158   1 H      0.924     0.050     2.320     2.382
 159   1 H      0.925     0.069     2.093     2.262
 160   1 H      0.924     0.085     1.925     2.170
 161   1 H      0.860     0.231     0.961     1.536
 162   1 H      0.860     0.237     0.936     1.516
 163   7 N      2.689    -0.178    24.852     7.404
 164   6 C      3.799     0.033    20.025     6.371
 165   6 C      2.765     0.269    22.457     7.761
 166   8 O      0.860    -0.525    24.341     6.615
 167   6 C      3.852    -0.025    20.983     6.515
 168   6 C      3.756    -0.117    22.793     6.807
 169   6 C      3.757    -0.121    22.875     6.819
 170   1 H      0.860     0.220     1.009     1.574
 171   1 H      0.923     0.059     2.216     2.328
 172   1 H      0.924     0.059     2.209     2.324
 173   1 H      0.925     0.066     2.127     2.280
 174   1 H      0.925     0.033     2.545     2.495
 175   1 H      0.925     0.044     2.397     2.421
 176   1 H      0.925     0.060     2.196     2.317
 177   1 H      0.925     0.042     2.419     2.432
 178   1 H      0.925     0.050     2.323     2.384
 179   7 N      2.756    -0.075    22.697     7.076
 180   6 C      3.834     0.029    20.068     6.373
 181   6 C      2.764     0.221    23.340     7.912
 182   8 O      0.856    -0.382    21.334     6.193
 183   6 C      3.829    -0.069    21.802     6.644
 184   6 C      3.832    -0.071    21.828     6.647
 185   6 C      3.773    -0.019    20.938     6.520
 186   1 H      0.924     0.075     2.027     2.227
 187   1 H      0.925     0.063     2.163     2.300
 188   1 H      0.925     0.081     1.967     2.193
 189   1 H      0.925     0.064     2.148     2.292
 190   1 H      0.925     0.074     2.039     2.233
 191   1 H      0.925     0.093     1.852     2.128
 192   1 H      0.924     0.066     2.126     2.280
 193   1 H      0.862     0.188     1.168     1.693
 194   1 H      0.930     0.058     2.225     2.332

 Mol. C6AA /au·bohr⁶  :     346815.177386
 Mol. C8AA /au·bohr⁸  :    7669903.204417
 Mol. α(0) /au        :        875.000537


Wiberg/Mayer (AO) data.
largest (>0.10) Wiberg bond orders for each atom
          total WBO             WBO to atom ...
     1  N   2.989        C    2 1.012    H  193 0.954    H   10 0.948
     2  C   3.985        N    1 1.012    C    5 0.977    H   11 0.962    C    3 0.936
     3  C   3.942        O    4 1.614    N   18 1.312    C    2 0.936
     4  O   1.960        C    3 1.614    N   18 0.195
     5  C   3.990        C    6 0.991    C    2 0.977    H   13 0.975    H   12 0.966
     6  C   3.994        C    5 0.991    H   14 0.975    H   15 0.967    C    7 0.964
     7  C   3.940        O    8 1.650    N    9 1.299    C    6 0.964
     8  O   1.947        C    7 1.650    N    9 0.199
     9  N   3.388        C    7 1.299    H   16 0.928    H   17 0.928    O    8 0.199
    10  H   0.970        N    1 0.948
    11  H   0.997        C    2 0.962
    12  H   0.996        C    5 0.966
    13  H   0.997        C    5 0.975
    14  H   0.996        C    6 0.975
    15  H   0.996        C    6 0.967
    16  H   0.947        N    9 0.928
    17  H   0.949        N    9 0.928
    18  N   3.473        C    3 1.312    C   19 0.976    H   23 0.913    O    4 0.195
    19  C   3.967        C   22 0.998    N   18 0.976    H   24 0.953    C   20 0.932
    20  C   3.945        O   21 1.611    N   28 1.314    C   19 0.932
    21  O   1.992        C   20 1.611    N   28 0.195
    22  C   3.981        C   19 0.998    H   25 0.980    H   26 0.978    H   27 0.978
    23  H   0.948        N   18 0.913
    24  H   0.994        C   19 0.953
    25  H   0.994        C   22 0.980
    26  H   0.993        C   22 0.978
    27  H   0.994        C   22 0.978
    28  N   3.472        C   20 1.314    C   29 0.990    H   32 0.913    O   21 0.195
    29  C   3.962        N   28 0.990    H   33 0.956    C   30 0.954    H   34 0.954
    30  C   3.947        O   31 1.624    N   35 1.289    C   29 0.954
    31  O   1.994        C   30 1.624    N   35 0.190
    32  H   0.945        N   28 0.913
    33  H   0.990        C   29 0.956
    34  H   0.989        C   29 0.954
    35  N   3.460        C   30 1.289    C   36 0.984    H   42 0.921    O   31 0.190
    36  C   3.964        N   35 0.984    C   39 0.959    H   43 0.944    C   37 0.938
    37  C   3.948        O   38 1.618    N   49 1.309    C   36 0.938
    38  O   1.972        C   37 1.618    N   49 0.198
    39  C   3.956        C   41 1.001    O   40 0.994    C   36 0.959    H   44 0.958
    40  O   1.926        C   39 0.994    H   45 0.861
    41  C   3.988        C   39 1.001    H   48 0.984    H   46 0.981    H   47 0.968
    42  H   0.955        N   35 0.921
    43  H   0.993        C   36 0.944
    44  H   0.998        C   39 0.958
    45  H   0.875        O   40 0.861
    46  H   0.995        C   41 0.981
    47  H   0.995        C   41 0.968
    48  H   0.997        C   41 0.984
    49  N   3.474        C   37 1.309    C   50 0.983    H   55 0.897    O   38 0.198
    50  C   3.965        N   49 0.983    C   53 0.980    H   56 0.952    C   51 0.929
    51  C   3.950        O   52 1.607    N   60 1.330    C   50 0.929
    52  O   1.950        C   51 1.607    N   60 0.198
    53  C   3.956        O   54 1.005    C   50 0.980    H   58 0.964    H   57 0.964
    54  O   1.919        C   53 1.005    H   59 0.860
    55  H   0.947        N   49 0.897
    56  H   0.994        C   50 0.952
    57  H   0.997        C   53 0.964
    58  H   0.998        C   53 0.964
    59  H   0.873        O   54 0.860
    60  N   3.480        C   51 1.330    C   61 0.976    H   67 0.880    O   52 0.198
    61  C   3.958        N   60 0.976    C   64 0.963    C   62 0.944    H   68 0.941
    62  C   3.945        O   63 1.573    N   76 1.334    C   61 0.944
    63  O   1.955        C   62 1.573    N   76 0.191
    64  C   3.988        C   65 1.009    C   66 1.007    H   69 0.964    C   61 0.963
    65  C   3.993        C   64 1.009    H   72 0.986    H   71 0.985    H   70 0.984
    66  C   3.992        C   64 1.007    H   74 0.985    H   73 0.983    H   75 0.980
    67  H   0.945        N   60 0.880
    68  H   0.992        C   61 0.941
    69  H   0.997        C   64 0.964
    70  H   0.996        C   65 0.984
    71  H   0.999        C   65 0.985
    72  H   0.998        C   65 0.986
    73  H   0.996        C   66 0.983
    74  H   0.997        C   66 0.985
    75  H   0.998        C   66 0.980
    76  N   3.485        C   62 1.334    C   77 0.983    H   84 0.874    O   63 0.191
    77  C   3.965        N   76 0.983    C   80 0.977    H   85 0.939    C   78 0.939
    78  C   3.946        O   79 1.579    N   95 1.335    C   77 0.939
    79  O   1.934        C   78 1.579    N   95 0.190
    80  C   3.985        C   81 0.991    C   77 0.977    H   87 0.971    H   86 0.969
    81  C   3.992        C   83 1.011    C   82 1.007    C   80 0.991    H   88 0.961
    82  C   3.994        C   81 1.007    H   91 0.986    H   90 0.985    H   89 0.985
    83  C   3.995        C   81 1.011    H   93 0.986    H   92 0.985    H   94 0.982
    84  H   0.944        N   76 0.874
    85  H   0.994        C   77 0.939
    86  H   0.997        C   80 0.969
    87  H   0.996        C   80 0.971
    88  H   0.997        C   81 0.961
    89  H   0.997        C   82 0.985
    90  H   0.999        C   82 0.985
    91  H   0.998        C   82 0.986
    92  H   0.997        C   83 0.985
    93  H   0.998        C   83 0.986
    94  H   0.999        C   83 0.982
    95  N   3.488        C   78 1.335    C   96 0.976    H  100 0.890    O   79 0.190
    96  C   3.964        C   99 0.997    N   95 0.976    H  101 0.954    C   97 0.933
    97  C   3.946        O   98 1.598    N  105 1.328    C   96 0.933
    98  O   1.944        C   97 1.598    N  105 0.197
    99  C   3.982        C   96 0.997    H  102 0.981    H  103 0.978    H  104 0.976
   100  H   0.948        N   95 0.890
   101  H   0.994        C   96 0.954
   102  H   0.994        C   99 0.981
   103  H   0.993        C   99 0.978
   104  H   0.995        C   99 0.976
   105  N   3.487        C   97 1.328    C  106 0.978    H  114 0.900    O   98 0.197
   106  C   3.963        C  109 0.979    N  105 0.978    H  115 0.942    C  107 0.932
   107  C   3.950        O  108 1.624    N  122 1.312    C  106 0.932
   108  O   1.953        C  107 1.624    N  122 0.198
   109  C   3.988        C  110 0.990    C  106 0.979    H  116 0.974    H  117 0.969
   110  C   3.990        C  109 0.990    C  111 0.969    H  119 0.968    H  118 0.952
   111  C   3.946        O  112 1.641    N  113 1.309    C  110 0.969
   112  O   1.950        C  111 1.641    N  113 0.199
   113  N   3.395        C  111 1.309    H  120 0.931    H  121 0.923    O  112 0.199
   114  H   0.949        N  105 0.900
   115  H   0.993        C  106 0.942
   116  H   0.995        C  109 0.974
   117  H   0.995        C  109 0.969
   118  H   0.992        C  110 0.952
   119  H   0.997        C  110 0.968
   120  H   0.949        N  113 0.931
   121  H   0.944        N  113 0.923
   122  N   3.465        C  107 1.312    C  123 0.976    H  127 0.872    O  108 0.198
   123  C   3.965        C  126 0.999    N  122 0.976    H  128 0.954    C  124 0.934
   124  C   3.943        O  125 1.595    N  132 1.327    C  123 0.934
   125  O   1.966        C  124 1.595    N  132 0.193
   126  C   3.984        C  123 0.999    H  129 0.981    H  130 0.978    H  131 0.977
   127  H   0.945        N  122 0.872
   128  H   0.994        C  123 0.954
   129  H   0.994        C  126 0.981
   130  H   0.994        C  126 0.978
   131  H   0.996        C  126 0.977
   132  N   3.475        C  124 1.327    C  133 0.978    H  140 0.878    O  125 0.193
   133  C   3.967        C  136 0.987    N  132 0.978    H  141 0.951    C  134 0.932
   134  C   3.947        O  135 1.640    N  146 1.296    C  133 0.932
   135  O   1.971        C  134 1.640    N  146 0.196
   136  C   3.988        C  133 0.987    C  137 0.965    H  143 0.952    H  142 0.949
   137  C   3.949        O  138 1.665    N  139 1.294    C  136 0.965
   138  O   1.971        C  137 1.665    N  139 0.202
   139  N   3.379        C  137 1.294    H  145 0.927    H  144 0.923    O  138 0.202
   140  H   0.945        N  132 0.878
   141  H   0.994        C  133 0.951
   142  H   0.989        C  136 0.949
   143  H   0.993        C  136 0.952
   144  H   0.943        N  139 0.923
   145  H   0.945        N  139 0.927
   146  N   3.459        C  134 1.296    C  147 0.981    H  155 0.898    O  135 0.196
   147  C   3.968        N  146 0.981    C  150 0.978    H  156 0.952    C  148 0.940
   148  C   3.948        O  149 1.610    N  163 1.317    C  147 0.940
   149  O   1.918        C  148 1.610    N  163 0.193
   150  C   3.986        C  151 1.007    C  147 0.978    H  158 0.974    H  157 0.962
   151  C   3.994        C  150 1.007    C  152 0.972    H  159 0.964    H  160 0.940
   152  C   3.945        O  153 1.644    N  154 1.297    C  151 0.972
   153  O   1.953        C  152 1.644    N  154 0.196
   154  N   3.379        C  152 1.297    H  161 0.928    H  162 0.923    O  153 0.196
   155  H   0.951        N  146 0.898
   156  H   0.996        C  147 0.952
   157  H   0.994        C  150 0.962
   158  H   0.997        C  150 0.974
   159  H   0.995        C  151 0.964
   160  H   0.993        C  151 0.940
   161  H   0.947        N  154 0.928
   162  H   0.943        N  154 0.923
   163  N   3.475        C  148 1.317    C  164 0.973    H  170 0.890    O  149 0.193
   164  C   3.959        C  167 0.973    N  163 0.973    H  171 0.954    C  165 0.934
   165  C   3.946        O  166 1.584    N  179 1.323    C  164 0.934
   166  O   1.932        C  165 1.584    N  179 0.194
   167  C   3.987        C  168 1.008    C  169 1.007    C  164 0.973    H  172 0.960
   168  C   3.993        C  167 1.008    H  175 0.986    H  174 0.985    H  173 0.983
   169  C   3.992        C  167 1.007    H  177 0.986    H  176 0.983    H  178 0.982
   170  H   0.951        N  163 0.890
   171  H   0.996        C  164 0.954
   172  H   0.996        C  167 0.960
   173  H   0.995        C  168 0.983
   174  H   0.999        C  168 0.985
   175  H   0.998        C  168 0.986
   176  H   0.996        C  169 0.983
   177  H   0.998        C  169 0.986
   178  H   0.998        C  169 0.982
   179  N   3.536        C  165 1.323    C  185 0.969    C  180 0.963    O  166 0.194
   180  C   3.969        C  181 0.981    N  179 0.963    C  183 0.962    H  186 0.953
   181  C   3.901        O  182 1.875    C  180 0.981    H  194 0.957
   182  O   2.024        C  181 1.875
   183  C   3.984        C  184 1.004    H  187 0.975    H  188 0.973    C  180 0.962
   184  C   3.990        C  185 1.004    C  183 1.004    H  189 0.974    H  190 0.973
   185  C   3.951        C  184 1.004    N  179 0.969    H  192 0.962    H  191 0.947
   186  H   0.994        C  180 0.953
   187  H   0.996        C  183 0.975
   188  H   0.993        C  183 0.973
   189  H   0.996        C  184 0.974
   190  H   0.993        C  184 0.973
   191  H   0.991        C  185 0.947
   192  H   0.996        C  185 0.962
   193  H   0.964        N    1 0.954
   194  H   0.997        C  181 0.957
 
molecular dipole:
                 x           y           z       tot (Debye)
 q only:        7.730       1.509     -25.272
   full:        9.688       2.344     -28.024      75.602
molecular quadrupole (traceless):
                xx          xy          yy          xz          yz          zz
 q only:    11421.719    1955.156    7644.585   -2970.223   -4288.062  -19066.304
  q+dip:    12983.108    2578.406    8441.194   -2730.670   -4407.879  -21424.302
   full:    12983.804    2578.797    8443.423   -2728.757   -4407.045  -21427.227


           -------------------------------------------------
          | TOTAL ENERGY             -308.600708374729 Eh   |
          | GRADIENT NORM               0.226577502654 Eh/α |
          | HOMO-LUMO GAP               2.883977982020 eV   |
           -------------------------------------------------

------------------------------------------------------------------------
 * finished run on 2019/05/31 at 05:35:22.764     
------------------------------------------------------------------------
 total:
 * wall-time:     0 d,  0 h,  0 min,  1.213 sec
 *  cpu-time:     0 d,  0 h,  0 min,  2.161 sec
 * ratio c/w:     1.781 speedup
 SCF:
 * wall-time:     0 d,  0 h,  0 min,  0.897 sec
 *  cpu-time:     0 d,  0 h,  0 min,  1.792 sec
 * ratio c/w:     1.999 speedup

