      -----------------------------------------------------------      
     |                   =====================                   |     
     |                           x T B                           |     
     |                   =====================                   |     
     |                         S. Grimme                         |     
     |          Mulliken Center for Theoretical Chemistry        |     
     |                    University of Bonn                     |     
     |                Version 6.1 RC1 (SAW190329)                |     
      -----------------------------------------------------------      

   This program is distributed in the hope that it will be useful,
   but WITHOUT ANY WARRANTY; without even the implied warranty of
   MERCHANTABILITY or FITNESS FOR A PARTICULAR PURPOSE.
   
   FOR NON-COMMERCIAL, ACADEMIA USE ONLY.
   
   Cite this work as:
   S. Grimme, C. Bannwarth, P. Shushkov, J. Comput. Theory Chem., 2017,
   13, 1989-2009. DOI: 10.1021/acs.jctc.7b00118
   C. Bannwarth, S. Ehlert and S. Grimme., J. Comput. Theory Chem., 2019,
   just accepted. DOI: 10.1021/acs.jctc.8b01176
   
   for sTDA-xTB:
   S. Grimme and C. Bannwarth, J. Chem. Phys., 2016, 145, 054103.
   DOI: 10.1063/1.4959605
   
   in the mass-spec context:
   V. Asgeirsson, C. Bauer and S. Grimme, Chem. Sci., 2017, 8, 4879.
   DOI: 10.1039/c7sc00601b
   
   for metadynamics refer to:
   S. Grimme, ChemRxiv, Preprint. DOI: 10.26434/chemrxiv.7660532.v1
   
   with help from (in alphabetical order)
   C. Bannwarth, F. Bohle, G. Brandenburg, E. Caldeweyher, M. Checinski,
   S. Dohm, S. Ehlert, S. Ehrlich, F. März, H. Neugebauer, J. Pisarek,
   P. Pracht, P. Shushkov, and S. Spicher.
   
 * started run on 2019/05/31 at 06:33:34.617     

           -------------------------------------------------
          |                Calculation Setup                |
           -------------------------------------------------

          program call               : /home/lum/qr/xtb-190329/bin/xtb xtb_tmp.xyz --chrg -1 --grad --gfn 2 --etemp 500 --acc 0.1 --gbsa h2o --parallel 2
          hostname                   : cu39
          coordinate file            : xtb_tmp.xyz
          omp threads                :                     2
          number of atoms            :                   260
          number of electrons        :                   728
          charge                     :                    -1
          spin                       :                   0.0
          first test random number   :      0.37942878680837


molecular fragmentation (1/2 indicates fragments):
111111111111111112222222222222222222222222222222222222222222222222222222
222222222222222222222222222222222222222222222222222222222222222222222222
222222222222222222222222222222222222222222222222222222222222222222222222
22222222222222222222222222222222222211222222
# atoms in fragment 1/2:    19   241
 fragment masses (1/2) :      130.15     1715.90
CMA distance (Bohr)    :  21.202
constraining FC (au)   :  0.0500

########################################################################
# WARNING! Please study the warnings concerning your input carefully
#  - XTBPATH is not set, using XTBHOME instead
#  - Process number higher than OMP_NUM_THREADS, I hope you know what you are doing.
########################################################################

           ------------------------------------------------- 
          |                 G F N 2 - x T B                 |
          | Geometry, Frequencies, Noncovalent interactions |
          |            JCTC 2018 parametrisation            |
           ------------------------------------------------- 
 
             k(s)              :                1.8500
             k(p)              :                2.2300
             k(d)              :                2.2300
             k(f)              :                2.0000
             kEN (H0ij)        :               -2.0000
             D4 a1             :                0.5200
             D4 a2             :                5.0000
             D4 s6             :                1.0000
             D4 s8             :                2.7000
             D4 s9             :                5.0000
             alphaj            :                2.0000

  Z AO/shell   Hii/eV     exponent
  1     Wed Apr 25 08:07:45 CEST 2018   EN: 2.200 GM2: 0.406  GM3: 0.0800  RAES: 1.40
     1s    -10.707211    1.230000
  6     Wed Apr 25 08:07:45 CEST 2018   EN: 2.550 GM2: 0.538  GM3: 0.1500  RAES: 3.00
     2s    -13.970922    2.096432
     2p    -10.063292    1.800000
  7     Wed Apr 25 08:07:45 CEST 2018   EN: 3.040 GM2: 0.461  GM3:-0.0640  RAES: 1.90
     2s    -16.686243    2.339881
     2p    -12.523956    2.014332
  8     Wed Apr 25 08:07:45 CEST 2018   EN: 3.440 GM2: 0.452  GM3:-0.0517  RAES: 1.80
     2s    -20.229985    2.439742
     2p    -15.503117    2.137023

 Solvent             : h2o
 Using internal parameter file: .param_gbsa2_h2o
 Gsolv ref. state (COSMO-RS): gsolv [1 M gas/solution]
 temperature (mdtemp)       :    298.150000000000     
 dielectric constant        :    80.2000000000000     
 rho                        :    1.00000000000000     
 mass                       :    18.0000000000000     
 surface tension            :    15.5689454083859     
 probe radius               :   0.975313790000000     
 vdW radii scaling          :    1.00000000000000     
 Gshift (Eh)                :   1.857443126794793E-003
 c1                         :    1.55243817000000     
 soset                      :   0.130326360000000     
 HB correction              :  T
 Number of grid points      :          230

            Z     q(EN)     CN     RAES       Cart. coordinates
     1  N   5.0   -0.69    3.00    1.93    35.98036    44.92275   149.26451
     2  C   4.0    0.06    3.98    3.59    34.78352    46.25704   151.33589
     3  C   4.0    0.07    3.00    3.02    36.59322    46.16891   153.58555
     4  O   6.0   -0.40    1.00    1.80    38.08125    44.42624   153.88755
     5  C   4.0   -0.14    3.98    3.59    32.24623    45.04244   152.09101
     6  C   4.0   -0.12    3.98    3.59    30.05156    46.28706   150.68459
     7  C   4.0    0.27    3.00    3.02    27.52679    45.02982   151.22601
     8  O   6.0   -0.40    1.00    1.80    26.97364    44.08391   153.25791
     9  N   5.0   -0.66    3.00    1.93    25.90073    45.06478   149.29025
    10  H   1.0    0.30    1.00    1.43    37.12520    43.50247   149.85674
    11  H   1.0    0.14    0.99    1.43    34.48951    48.22350   150.76991
    12  H   1.0    0.13    0.99    1.43    32.32412    43.02792   151.66478
    13  H   1.0    0.13    0.99    1.43    31.98353    45.25708   154.12133
    14  H   1.0    0.12    0.99    1.43    29.91967    48.25816   151.29759
    15  H   1.0    0.10    0.99    1.43    30.44264    46.27717   148.66034
    16  H   1.0    0.25    1.00    1.43    26.32209    45.91905   147.64817
    17  H   1.0    0.28    1.00    1.43    24.16249    44.31376   149.49961
    18  N   5.0   -0.69    3.00    1.93    31.50820    58.86938   161.97877
    19  C   4.0    0.08    3.99    3.60    31.64578    56.96296   160.02867
    20  C   4.0    0.28    3.00    3.02    32.65386    58.04673   157.54010
    21  O   6.0   -0.40    1.00    1.80    32.52260    60.29682   156.98143
    22  C   4.0   -0.09    3.98    3.58    29.05945    55.66044   159.61257
    23  C   4.0   -0.23    3.98    3.59    28.05919    54.60857   162.10923
    24  C   4.0   -0.20    3.98    3.59    27.13290    57.46340   158.44442
    25  H   1.0    0.32    1.00    1.43    30.70917    60.53765   161.49636
    26  H   1.0    0.11    0.99    1.43    33.01982    55.56046   160.68846
    27  H   1.0    0.11    0.99    1.43    29.40901    54.11568   158.28340
    28  H   1.0    0.10    0.99    1.43    26.28109    53.64220   161.77941
    29  H   1.0    0.10    0.99    1.43    29.42198    53.32215   162.93993
    30  H   1.0    0.10    0.99    1.43    27.74277    56.14123   163.43853
    31  H   1.0    0.11    0.99    1.43    25.35804    56.49639   158.08177
    32  H   1.0    0.11    0.99    1.43    26.75597    59.04546   159.70266
    33  H   1.0    0.14    0.99    1.43    27.79913    58.23653   156.65554
    34  N   5.0   -0.48    3.01    1.93    33.58899    56.24222   156.02942
    35  C   4.0    0.08    3.99    3.61    34.81922    56.71222   153.64385
    36  C   4.0    0.26    3.02    3.02    34.12565    54.68238   151.72667
    37  O   6.0   -0.45    1.00    1.80    33.95545    52.44384   152.30095
    38  C   4.0   -0.11    3.99    3.60    37.72290    56.54467   153.93374
    39  C   4.0    0.13    3.34    3.06    38.81683    58.90958   154.99463
    40  N   5.0   -0.38    2.10    1.90    40.27899    58.93756   157.11836
    41  C   4.0    0.04    3.24    3.04    38.61291    61.31258   154.05374
    42  C   4.0    0.19    3.43    3.09    40.93325    61.30175   157.43779
    43  N   5.0   -0.46    3.13    1.94    39.98221    62.82107   155.62843
    44  H   1.0    0.24    1.00    1.43    33.91454    54.49121   156.76208
    45  H   1.0    0.16    0.99    1.43    34.27760    58.58535   152.96221
    46  H   1.0    0.13    0.99    1.43    38.18307    54.97308   155.18632
    47  H   1.0    0.11    0.99    1.43    38.56571    56.16671   152.08378
    48  H   1.0    0.12    1.00    1.43    37.62293    62.04555   152.44713
    49  H   1.0    0.12    1.00    1.43    42.11771    61.97063   158.93577
    50  H   1.0    0.29    1.00    1.43    40.07938    64.73721   155.49861
    51  N   5.0   -0.48    3.01    1.93    33.90966    55.51616   149.35176
    52  C   4.0    0.08    4.00    3.61    33.66456    53.75709   147.28109
    53  C   4.0    0.27    3.01    3.02    35.04465    54.78942   144.97313
    54  O   6.0   -0.45    1.00    1.80    34.90529    57.02430   144.38608
    55  C   4.0   -0.01    3.98    3.58    30.87137    53.22998   146.56421
    56  O   6.0   -0.47    1.99    1.82    29.57189    55.34750   145.64632
    57  H   1.0    0.29    1.00    1.43    33.85008    57.39743   148.98988
    58  H   1.0    0.12    0.99    1.43    34.49419    51.97793   147.93433
    59  H   1.0    0.10    0.99    1.43    30.81888    51.67894   145.18724
    60  H   1.0    0.13    0.99    1.43    29.86942    52.66142   148.27367
    61  H   1.0    0.29    0.99    1.43    30.26613    55.83590   144.03179
    62  N   5.0   -0.48    3.01    1.93    36.30899    53.04781   143.66671
    63  C   4.0    0.02    3.99    3.60    37.39710    53.50168   141.21044
    64  C   4.0    0.06    3.00    3.02    36.85348    51.24477   139.52442
    65  O   6.0   -0.40    1.00    1.80    36.67433    49.10057   140.38862
    66  H   1.0    0.26    1.00    1.43    36.25842    51.22135   144.25326
    67  H   1.0    0.16    0.99    1.43    36.62713    55.23951   140.40008
    68  H   1.0    0.12    0.99    1.43    39.45815    53.66335   141.38675
    69  N   5.0   -0.71    3.00    1.93    34.41227    58.25164   132.40182
    70  C   4.0    0.09    3.98    3.59    32.71353    59.41974   134.19010
    71  C   4.0    0.30    3.01    3.02    33.95780    59.40781   136.78648
    72  O   6.0   -0.44    1.00    1.80    35.32833    57.63990   137.41362
    73  C   4.0   -0.01    3.98    3.58    30.16570    57.99571   134.39133
    74  O   6.0   -0.46    1.99    1.82    28.46024    59.26702   135.95980
    75  H   1.0    0.28    1.00    1.43    35.40118    56.73100   133.02641
    76  H   1.0    0.14    0.99    1.43    32.30042    61.34536   133.56873
    77  H   1.0    0.10    0.99    1.43    29.40325    57.72943   132.47961
    78  H   1.0    0.13    0.99    1.43    30.48435    56.12285   135.22426
    79  H   1.0    0.32    0.99    1.43    27.66329    60.62063   134.96720
    80  N   5.0   -0.48    3.01    1.93    33.44445    61.40331   138.22173
    81  C   4.0    0.08    4.00    3.61    34.49120    61.75260   140.72013
    82  C   4.0    0.28    3.01    3.02    32.49759    63.02855   142.37316
    83  O   6.0   -0.45    1.00    1.80    31.50843    65.02494   141.73531
    84  C   4.0   -0.14    3.98    3.59    36.88763    63.39493   140.57984
    85  C   4.0   -0.17    3.98    3.58    38.32348    63.36833   143.08382
    86  C   4.0   -0.16    3.98    3.58    40.55589    65.20870   143.13738
    87  C   4.0   -0.06    3.98    3.58    42.57120    64.57692   141.16999
    88  N   5.0   -0.73    3.98    2.82    44.78282    66.29569   141.46842
    89  H   1.0    0.30    1.00    1.43    32.39623    62.82831   137.49656
    90  H   1.0    0.16    0.99    1.43    34.97214    59.89114   141.47042
    91  H   1.0    0.12    0.99    1.43    38.04421    62.62032   139.06031
    92  H   1.0    0.12    0.99    1.43    36.31384    65.31371   140.08140
    93  H   1.0    0.13    0.99    1.43    37.01089    63.87942   144.59382
    94  H   1.0    0.12    0.99    1.43    38.95842    61.44561   143.46759
    95  H   1.0    0.11    0.99    1.43    39.83499    67.11277   142.81279
    96  H   1.0    0.11    0.99    1.43    41.36834    65.12775   145.03101
    97  H   1.0    0.11    0.99    1.43    43.19627    62.62928   141.40923
    98  H   1.0    0.10    0.99    1.43    41.80300    64.80690   139.27255
    99  H   1.0    0.23    1.00    1.43    46.06541    66.01182   140.03010
   100  H   1.0    0.23    1.00    1.43    44.18498    68.15079   141.42705
   101  H   1.0    0.23    1.00    1.43    45.65986    65.97617   143.17998
   102  N   5.0   -0.48    3.01    1.93    32.01044    61.83436   144.54645
   103  C   4.0    0.10    3.99    3.61    30.42057    62.86185   146.51517
   104  C   4.0    0.26    3.01    3.02    31.95539    63.00473   148.96144
   105  O   6.0   -0.45    1.00    1.80    33.27487    61.22341   149.64295
   106  C   4.0    0.01    3.98    3.59    28.06906    61.24203   147.03271
   107  O   6.0   -0.47    1.99    1.82    26.28365    61.67280   145.10801
   108  H   1.0    0.29    1.00    1.43    32.90877    60.18035   144.93245
   109  H   1.0    0.17    0.99    1.43    29.81065    64.74278   145.91987
   110  H   1.0    0.15    0.99    1.43    28.61589    59.24446   147.10916
   111  H   1.0    0.13    0.99    1.43    27.28520    61.77924   148.88376
   112  H   1.0    0.26    0.99    1.43    24.85109    60.58481   145.40856
   113  N   5.0   -0.50    3.01    1.93    31.74510    65.17605   150.21705
   114  C   4.0    0.08    4.00    3.61    33.05408    65.71388   152.56644
   115  C   4.0    0.30    3.01    3.02    31.16937    67.10354   154.26369
   116  O   6.0   -0.42    1.00    1.80    30.25945    69.13500   153.59616
   117  C   4.0   -0.09    3.98    3.59    35.35285    67.38004   152.09964
   118  C   4.0    0.31    2.99    3.02    36.57231    68.07567   154.69509
   119  O   6.0   -0.35    1.00    1.80    35.08734    68.67013   156.41258
   120  O   6.0   -0.43    1.00    1.80    38.92517    67.97394   154.80884
   121  H   1.0    0.29    1.00    1.43    30.70770    66.60852   149.47886
   122  H   1.0    0.15    0.99    1.43    33.61579    63.91835   153.42644
   123  H   1.0    0.11    0.99    1.43    36.73116    66.43979   150.88739
   124  H   1.0    0.12    0.99    1.43    34.72030    69.14372   151.23226
   125  N   5.0   -0.46    3.01    1.93    30.35175    65.76018   156.23039
   126  C   4.0    0.07    3.99    3.60    28.39910    66.62656   157.93570
   127  C   4.0    0.08    3.00    3.02    29.34496    66.37495   160.64455
   128  O   6.0   -0.42    1.00    1.80    30.01812    64.32993   161.50587
   129  C   4.0   -0.13    3.98    3.59    26.00813    65.03364   157.51895
   130  C   4.0   -0.11    3.98    3.58    24.67174    65.84387   155.09732
   131  C   4.0    0.31    2.99    3.02    22.97976    63.68851   154.05002
   132  O   6.0   -0.40    1.00    1.80    24.04650    61.80638   153.17546
   133  O   6.0   -0.47    1.02    1.80    20.62379    64.01442   154.14589
   134  H   1.0    0.29    1.00    1.43    31.15097    64.07101   156.64030
   135  H   1.0    0.16    0.99    1.43    28.02798    68.61023   157.49824
   136  H   1.0    0.14    0.99    1.43    26.56717    63.05288   157.36653
   137  H   1.0    0.11    0.99    1.43    24.75205    65.22797   159.14179
   138  H   1.0    0.11    0.99    1.43    23.58429    67.55230   155.46985
   139  H   1.0    0.14    0.99    1.43    26.08989    66.23778   153.64813
   140  N   5.0   -0.71    3.00    1.93    26.00062    76.08342   162.26713
   141  C   4.0    0.07    3.98    3.59    27.53442    76.59087   160.06560
   142  C   4.0    0.28    3.01    3.02    26.69998    74.73942   158.01685
   143  O   6.0   -0.44    1.00    1.80    26.69039    72.45665   158.40424
   144  C   4.0   -0.13    3.98    3.59    30.38634    76.19312   160.63003
   145  C   4.0   -0.04    3.12    3.03    31.90025    78.52005   160.15297
   146  C   4.0    0.01    3.21    3.04    32.24049    80.50784   161.76661
   147  C   4.0    0.02    3.18    3.03    33.25135    79.12176   157.89408
   148  N   5.0   -0.48    3.10    1.94    33.72272    82.30797   160.65996
   149  C   4.0    0.12    3.22    3.04    34.38924    81.51346   158.29885
   150  C   4.0   -0.09    3.02    3.02    33.63161    77.87341   155.60019
   151  C   4.0   -0.10    3.02    3.02    35.90046    82.65445   156.47715
   152  C   4.0   -0.09    3.03    3.02    35.13918    79.01397   153.81194
   153  C   4.0   -0.10    3.03    3.02    36.25884    81.37097   154.24078
   154  H   1.0    0.27    1.00    1.43    26.19948    74.32598   163.01153
   155  H   1.0    0.11    0.99    1.43    27.18347    78.54783   159.50474
   156  H   1.0    0.11    0.99    1.43    30.56588    75.62744   162.60584
   157  H   1.0    0.13    0.99    1.43    31.10384    74.64267   159.46806
   158  H   1.0    0.10    1.00    1.43    31.50596    80.75033   163.64178
   159  H   1.0    0.23    1.00    1.43    34.25712    83.94520   161.46353
   160  H   1.0    0.14    0.99    1.43    32.78145    76.04005   155.26230
   161  H   1.0    0.11    1.00    1.43    36.77068    84.46974   156.80952
   162  H   1.0    0.14    0.99    1.43    35.49060    78.09486   152.02201
   163  H   1.0    0.12    0.99    1.43    37.43192    82.17548   152.77650
   164  N   5.0   -0.49    3.01    1.93    25.89053    75.80910   155.87635
   165  C   4.0    0.07    3.99    3.61    25.20619    74.40783   153.62707
   166  C   4.0    0.26    3.01    3.02    26.98837    75.18046   151.48670
   167  O   6.0   -0.43    1.00    1.80    27.34889    77.38968   150.93829
   168  C   4.0   -0.14    3.98    3.59    22.49021    75.06227   152.79076
   169  C   4.0   -0.17    3.98    3.58    20.49310    73.19762   153.73250
   170  C   4.0   -0.15    3.98    3.59    20.37535    70.83343   152.06182
   171  C   4.0   -0.06    3.98    3.58    17.91071    69.36933   152.34594
   172  N   5.0   -0.72    3.97    2.79    17.79208    68.00090   154.78764
   173  H   1.0    0.24    1.00    1.43    26.09875    77.69043   155.61039
   174  H   1.0    0.14    0.99    1.43    25.42232    72.40075   154.05667
   175  H   1.0    0.12    0.99    1.43    22.08357    76.96064   153.47885
   176  H   1.0    0.11    0.99    1.43    22.42704    75.14063   150.73084
   177  H   1.0    0.12    0.99    1.43    20.91755    72.71875   155.69285
   178  H   1.0    0.10    0.99    1.43    18.66524    74.14890   153.66218
   179  H   1.0    0.10    0.99    1.43    20.53056    71.41733   150.09279
   180  H   1.0    0.12    0.99    1.43    21.96832    69.58392   152.43829
   181  H   1.0    0.10    0.99    1.43    16.31630    70.66888   152.20434
   182  H   1.0    0.12    0.99    1.43    17.77781    67.96694   150.84437
   183  H   1.0    0.24    1.00    1.43    16.01706    67.28422   155.07287
   184  H   1.0    0.31    1.00    1.43    19.09947    66.39496   154.71431
   185  H   1.0    0.24    1.00    1.43    18.25563    69.17127   156.25650
   186  N   5.0   -0.49    3.01    1.93    27.89303    73.22158   150.15200
   187  C   4.0    0.07    4.00    3.61    29.46700    73.57147   147.94417
   188  C   4.0    0.27    3.01    3.02    29.07997    71.22659   146.28799
   189  O   6.0   -0.45    1.00    1.80    29.31756    69.08258   147.13596
   190  C   4.0   -0.13    3.98    3.59    32.24518    73.94424   148.68148
   191  C   4.0   -0.12    3.98    3.59    34.01252    73.97804   146.39342
   192  C   4.0    0.26    3.00    3.02    36.65851    74.61271   147.31401
   193  O   6.0   -0.41    1.00    1.80    37.46630    76.76829   147.40921
   194  N   5.0   -0.65    3.00    1.93    38.06578    72.59439   147.97144
   195  H   1.0    0.28    1.00    1.43    28.01425    71.49402   150.96388
   196  H   1.0    0.13    0.99    1.43    28.79159    75.27025   146.97752
   197  H   1.0    0.13    0.99    1.43    32.38786    75.73240   149.70283
   198  H   1.0    0.13    0.99    1.43    32.77146    72.43708   149.98989
   199  H   1.0    0.12    0.99    1.43    33.97606    72.14880   145.44140
   200  H   1.0    0.12    0.99    1.43    33.40685    75.44754   145.08457
   201  H   1.0    0.25    1.00    1.43    37.24633    70.89614   148.22181
   202  H   1.0    0.28    1.00    1.43    39.69614    72.90578   148.90818
   203  N   5.0   -0.49    3.02    1.93    28.39480    71.76376   143.93130
   204  C   4.0    0.08    3.99    3.61    27.82306    69.96409   141.95035
   205  C   4.0    0.26    3.02    3.02    29.09475    71.00462   139.57682
   206  O   6.0   -0.44    1.00    1.80    29.01083    73.26632   139.07194
   207  C   4.0   -0.08    3.98    3.58    24.93059    69.71650   141.59245
   208  C   4.0   -0.15    3.98    3.59    24.30125    68.03626   139.31985
   209  C   4.0   -0.21    3.98    3.59    23.71764    72.32578   141.31188
   210  C   4.0   -0.20    3.98    3.58    25.00795    65.26869   139.68861
   211  H   1.0    0.25    1.00    1.43    28.33580    73.57610   143.31903
   212  H   1.0    0.15    0.99    1.43    28.63381    68.14042   142.46184
   213  H   1.0    0.12    0.99    1.43    24.19110    68.80196   143.29866
   214  H   1.0    0.11    0.99    1.43    22.26851    68.13723   138.97572
   215  H   1.0    0.15    0.99    1.43    25.23752    68.74545   137.62273
   216  H   1.0    0.09    0.99    1.43    21.71906    72.12741   140.89335
   217  H   1.0    0.11    0.99    1.43    23.91205    73.41514   143.04326
   218  H   1.0    0.13    0.99    1.43    24.60621    73.35784   139.77294
   219  H   1.0    0.14    0.99    1.43    24.68334    64.23139   137.94399
   220  H   1.0    0.15    0.99    1.43    26.98932    65.04166   140.17158
   221  H   1.0    0.12    0.99    1.43    23.89708    64.41211   141.18823
   222  N   5.0   -0.49    3.01    1.93    30.34923    69.31795   138.20378
   223  C   4.0    0.08    3.99    3.61    31.73254    69.97665   135.93616
   224  C   4.0    0.28    3.02    3.02    31.61708    67.68135   134.20142
   225  O   6.0   -0.44    1.00    1.80    32.08427    65.56546   135.00432
   226  C   4.0   -0.13    3.99    3.60    34.48578    70.55292   136.67575
   227  C   4.0   -0.10    3.97    3.58    36.27625    71.12520   134.47229
   228  C   4.0   -0.22    3.98    3.59    35.67175    73.66996   133.24251
   229  C   4.0   -0.23    3.98    3.59    38.99676    71.07203   135.45198
   230  H   1.0    0.28    1.00    1.43    30.46925    67.49819   138.78470
   231  H   1.0    0.13    0.99    1.43    30.82179    71.62779   135.09032
   232  H   1.0    0.12    0.99    1.43    34.44235    72.15022   137.98351
   233  H   1.0    0.12    0.99    1.43    35.15776    68.89718   137.70984
   234  H   1.0    0.13    0.99    1.43    36.06100    69.63295   133.05120
   235  H   1.0    0.10    0.99    1.43    37.19146    74.21529   131.97170
   236  H   1.0    0.11    0.99    1.43    33.93826    73.56807   132.14084
   237  H   1.0    0.10    0.99    1.43    35.45350    75.13426   134.67185
   238  H   1.0    0.10    0.99    1.43    40.31019    71.38894   133.90522
   239  H   1.0    0.10    0.99    1.43    39.25979    72.53910   136.86708
   240  H   1.0    0.10    0.99    1.43    39.38286    69.23673   136.29110
   241  N   5.0   -0.47    3.01    1.93    31.17564    68.15778   131.75835
   242  C   4.0    0.07    3.99    3.61    30.82573    66.17180   129.91904
   243  C   4.0    0.05    3.00    3.02    32.08295    66.99414   127.46137
   244  O   6.0   -0.41    1.00    1.80    32.14411    69.22099   126.83357
   245  C   4.0   -0.10    3.98    3.58    28.01037    65.66187   129.45600
   246  C   4.0    0.33    2.99    3.02    26.79794    64.95736   132.05730
   247  O   6.0   -0.46    1.00    1.80    26.62012    62.65648   132.54847
   248  O   6.0   -0.40    1.00    1.80    26.16427    66.76045   133.41994
   249  H   1.0    0.25    1.00    1.43    30.56487    69.87155   131.19288
   250  H   1.0    0.13    0.99    1.43    31.70396    64.45488   130.65203
   251  H   1.0    0.12    0.99    1.43    27.11274    67.36362   128.70835
   252  H   1.0    0.10    0.99    1.43    27.78869    64.10025   128.13507
   253  H   1.0    0.29    1.00    1.43    34.78657    44.24267   148.26205
   254  H   1.0    0.13    1.00    1.43    36.58210    47.56208   154.86227
   255  H   1.0    0.29    1.00    1.43    30.59146    58.28054   163.28469
   256  H   1.0    0.13    1.00    1.43    36.63253    51.48712   137.66337
   257  H   1.0    0.29    1.00    1.43    33.53066    57.70882   131.05250
   258  H   1.0    0.13    1.00    1.43    29.42703    67.89675   161.76190
   259  H   1.0    0.28    1.00    1.43    26.40056    77.18125   163.50300
   260  H   1.0    0.12    1.00    1.43    32.87697    65.70620   126.32921

           ------------------------------------------------- 
          |        Self-Consistent Charge Iterations        |
           ------------------------------------------------- 

          ...................................................
          :                      SETUP                      :
          :.................................................:
          :  # basis functions                 650          :
          :  # atomic orbitals                 650          :
          :  # shells                          390          :
          :  # electrons                       728          :
          :  max. iterations                   250          :
          :  Hamiltonian                  GFN2-xTB          :
          :  restarted?                      false          :
          :  GBSA solvation                   true          :
          :  PC potential                    false          :
          :  electronic temp.          500.0000000     K    :
          :  accuracy                    0.1000000          :
          :  -> integral cutoff          0.3500000E+02      :
          :  -> integral neglect         0.1000000E-08      :
          :  -> SCF convergence          0.1000000E-06 Eh   :
          :  -> wf. convergence          0.1000000E-04 e    :
          :  Broyden damping             0.4000000          :
          ...................................................

 iter      E             dE          RMSdq      gap      omega  full diag
   1   -418.8675050 -0.418868E+03  0.440E+00    2.22       0.0  T
   2   -420.1085836 -0.124108E+01  0.227E+00    1.40       1.0  T
   3   -420.1515565 -0.429728E-01  0.125E+00    1.91       1.0  T
   4   -420.1607017 -0.914522E-02  0.354E-01    1.47       1.0  T
   5   -420.1805164 -0.198147E-01  0.131E-01    1.61       1.0  T
   6   -420.1817705 -0.125406E-02  0.713E-02    1.61       1.0  T
   7   -420.1820829 -0.312373E-03  0.312E-02    1.59       1.0  T
   8   -420.1821270 -0.441257E-04  0.993E-03    1.59       1.0  T
   9   -420.1821321 -0.512701E-05  0.533E-03    1.59       1.2  T
  10   -420.1821337 -0.159887E-05  0.238E-03    1.59       2.6  T
  11   -420.1821340 -0.289101E-06  0.107E-03    1.58       5.8  T
  12   -420.1821341 -0.848980E-07  0.438E-04    1.58      14.2  T
  13   -420.1821341 -0.914866E-08  0.218E-04    1.58      28.5  T
  14   -420.1821341 -0.232706E-08  0.103E-04    1.58      60.4  T
  15   -420.1821341 -0.688885E-09  0.420E-05    1.58     147.6  T
  16   -420.1821341 -0.112664E-09  0.175E-05    1.58     354.0  T

   *** convergence criteria satisfied after 16 iterations ***

         #    Occupation            Energy/Eh            Energy/eV
      -------------------------------------------------------------
         1        2.0000           -0.7398440             -20.1322
       ...           ...                  ...                  ...
       358        2.0000           -0.3768475             -10.2545
       359        2.0000           -0.3751577             -10.2086
       360        2.0000           -0.3712847             -10.1032
       361        2.0000           -0.3680181             -10.0143
       362        2.0000           -0.3678776             -10.0105
       363        2.0000           -0.3591250              -9.7723
       364        2.0000           -0.3587979              -9.7634 (HOMO)
       365                         -0.3005960              -8.1796 (LUMO)
       366                         -0.2977235              -8.1015
       367                         -0.2911723              -7.9232
       368                         -0.2804287              -7.6309
       369                         -0.2404616              -6.5433
       ...                                ...                  ...
       650                          0.7145716              19.4445
      -------------------------------------------------------------
                  HL-Gap            0.0582019 Eh            1.5838 eV
             Fermi-level           -0.3293441 Eh           -8.9619 eV

 SCC (total)                   0 d,  0 h,  0 min,  6.026 sec
 SCC setup                      ...        0 min,  0.111 sec (  1.835%)
 Dispersion                     ...        0 min,  0.067 sec (  1.120%)
 integral evaluation            ...        0 min,  0.333 sec (  5.531%)
 zeroth order Hamiltonian       ...        0 min,  0.009 sec (  0.149%)
 iterations                     ...        0 min,  4.214 sec ( 69.926%)
 molecular gradient             ...        0 min,  1.269 sec ( 21.058%)
 printout                       ...        0 min,  0.023 sec (  0.379%)

         :::::::::::::::::::::::::::::::::::::::::::::::::::::
         ::                     SUMMARY                     ::
         :::::::::::::::::::::::::::::::::::::::::::::::::::::
         :: total energy             -415.262598560180 Eh   ::
         :: total w/o Gsasa/hb       -415.200119235849 Eh   ::
         :: gradient norm               0.447971838002 Eh/α ::
         :: HOMO-LUMO gap               1.583754735435 eV   ::
         ::.................................................::
         :: SCC energy               -420.197272585601 Eh   ::
         :: -> isotropic ES             1.516001952008 Eh   ::
         :: -> anisotropic ES          -0.077797504054 Eh   ::
         :: -> anisotropic XC           0.120267502640 Eh   ::
         :: -> dispersion              -0.316171554157 Eh   ::
         :: -> Gsolv                   -0.417482050922 Eh   ::
         ::    -> Gborn                -0.355002726591 Eh   ::
         ::    -> Gsasa                -0.016995914649 Eh   ::
         ::    -> Ghb                  -0.047340852809 Eh   ::
         ::    -> Gshift                0.001857443127 Eh   ::
         :: repulsion energy            4.911627750045 Eh   ::
         :: add. restraining            0.000000000000 Eh   ::
         :::::::::::::::::::::::::::::::::::::::::::::::::::::

           -------------------------------------------------
          |                Property Printout                |
           -------------------------------------------------

    * Orbital Energies and Occupations

         #    Occupation            Energy/Eh            Energy/eV
      -------------------------------------------------------------
         1        2.0000           -0.7398440             -20.1322
       ...           ...                  ...                  ...
       352        2.0000           -0.3954829             -10.7616
       353        2.0000           -0.3912177             -10.6456
       354        2.0000           -0.3822309             -10.4010
       355        2.0000           -0.3820219             -10.3953
       356        2.0000           -0.3782413             -10.2925
       357        2.0000           -0.3775442             -10.2735
       358        2.0000           -0.3768475             -10.2545
       359        2.0000           -0.3751577             -10.2086
       360        2.0000           -0.3712847             -10.1032
       361        2.0000           -0.3680181             -10.0143
       362        2.0000           -0.3678776             -10.0105
       363        2.0000           -0.3591250              -9.7723
       364        2.0000           -0.3587979              -9.7634 (HOMO)
       365                         -0.3005960              -8.1796 (LUMO)
       366                         -0.2977235              -8.1015
       367                         -0.2911723              -7.9232
       368                         -0.2804287              -7.6309
       369                         -0.2404616              -6.5433
       370                         -0.2394905              -6.5169
       371                         -0.2388655              -6.4999
       372                         -0.2325884              -6.3291
       373                         -0.2313073              -6.2942
       374                         -0.2307535              -6.2791
       375                         -0.2284555              -6.2166
       ...                                ...                  ...
       650                          0.7145716              19.4445
      -------------------------------------------------------------
                  HL-Gap            0.0582019 Eh            1.5838 eV
             Fermi-level           -0.3293441 Eh           -8.9619 eV

   #   Z        covCN         q      C6AA      α(0)
   1   7 N      2.637    -0.390    30.095     8.148
   2   6 C      3.783     0.029    20.107     6.387
   3   6 C      2.769     0.203    23.680     7.970
   4   8 O      0.856    -0.375    21.187     6.171
   5   6 C      3.805    -0.055    21.562     6.611
   6   6 C      3.807    -0.100    22.408     6.739
   7   6 C      2.743     0.293    22.033     7.686
   8   8 O      0.859    -0.507    23.943     6.561
   9   7 N      2.640    -0.293    27.545     7.795
  10   1 H      0.860     0.169     1.280     1.772
  11   1 H      0.924     0.074     2.047     2.237
  12   1 H      0.924     0.058     2.225     2.333
  13   1 H      0.925     0.046     2.367     2.406
  14   1 H      0.924     0.071     2.076     2.253
  15   1 H      0.924     0.067     2.118     2.276
  16   1 H      0.860     0.228     0.973     1.545
  17   1 H      0.860     0.232     0.958     1.533
  18   7 N      2.634    -0.397    30.284     8.173
  19   6 C      3.791     0.029    20.102     6.385
  20   6 C      2.751     0.280    22.259     7.726
  21   8 O      0.857    -0.513    24.066     6.577
  22   6 C      3.851    -0.020    20.897     6.502
  23   6 C      3.756    -0.117    22.802     6.808
  24   6 C      3.755    -0.093    22.323     6.737
  25   1 H      0.860     0.158     1.346     1.817
  26   1 H      0.924     0.042     2.426     2.436
  27   1 H      0.924     0.028     2.618     2.530
  28   1 H      0.925     0.057     2.237     2.339
  29   1 H      0.925     0.052     2.289     2.366
  30   1 H      0.925     0.046     2.377     2.411
  31   1 H      0.925     0.043     2.408     2.427
  32   1 H      0.925     0.033     2.541     2.493
  33   1 H      0.925     0.010     2.895     2.661
  34   7 N      2.693    -0.181    24.919     7.414
  35   6 C      3.796     0.021    20.230     6.405
  36   6 C      2.767     0.266    22.519     7.772
  37   8 O      0.858    -0.476    23.269     6.467
  38   6 C      3.813    -0.076    21.937     6.666
  39   6 C      3.203     0.057    26.167     8.334
  40   7 N      1.914    -0.307    28.806     7.958
  41   6 C      3.050    -0.021    28.472     8.751
  42   6 C      3.169     0.091    25.628     8.271
  43   7 N      2.806    -0.109    23.382     7.182
  44   1 H      0.860     0.210     1.058     1.611
  45   1 H      0.924     0.070     2.081     2.256
  46   1 H      0.924     0.077     2.012     2.218
  47   1 H      0.924     0.063     2.164     2.300
  48   1 H      0.926     0.023     2.693     2.566
  49   1 H      0.926     0.038     2.476     2.461
  50   1 H      0.860     0.202     1.098     1.641
  51   7 N      2.691    -0.169    24.648     7.373
  52   6 C      3.800     0.001    20.571     6.458
  53   6 C      2.758     0.265    22.528     7.773
  54   8 O      0.858    -0.477    23.277     6.469
  55   6 C      3.676     0.071    19.610     6.345
  56   8 O      1.656    -0.465    22.163     6.355
  57   1 H      0.860     0.215     1.031     1.590
  58   1 H      0.924     0.086     1.917     2.165
  59   1 H      0.924     0.053     2.289     2.366
  60   1 H      0.924     0.070     2.085     2.258
  61   1 H      0.805     0.325     0.651     1.267
  62   7 N      2.692    -0.148    24.196     7.306
  63   6 C      3.741    -0.042    21.405     6.601
  64   6 C      2.766     0.202    23.711     7.975
  65   8 O      0.856    -0.363    20.948     6.136
  66   1 H      0.860     0.225     0.985     1.555
  67   1 H      0.924     0.131     1.530     1.934
  68   1 H      0.923     0.138     1.477     1.901
  69   7 N      2.637    -0.391    30.131     8.152
  70   6 C      3.786     0.022    20.221     6.405
  71   6 C      2.760     0.273    22.385     7.748
  72   8 O      0.858    -0.490    23.554     6.507
  73   6 C      3.677     0.087    19.355     6.303
  74   8 O      1.654    -0.494    22.767     6.441
  75   1 H      0.860     0.178     1.226     1.734
  76   1 H      0.924     0.040     2.447     2.446
  77   1 H      0.923     0.017     2.784     2.609
  78   1 H      0.924     0.034     2.534     2.490
  79   1 H      0.802     0.318     0.669     1.285
  80   7 N      2.693    -0.168    24.630     7.371
  81   6 C      3.798     0.011    20.399     6.431
  82   6 C      2.756     0.277    22.311     7.735
  83   8 O      0.858    -0.495    23.672     6.523
  84   6 C      3.805    -0.077    21.967     6.672
  85   6 C      3.802    -0.070    21.838     6.653
  86   6 C      3.802    -0.093    22.275     6.719
  87   6 C      3.730    -0.053    21.626     6.638
  88   7 N      3.483    -0.148    24.195     7.306
  89   1 H      0.860     0.207     1.069     1.620
  90   1 H      0.924     0.092     1.861     2.133
  91   1 H      0.924     0.078     2.004     2.214
  92   1 H      0.924     0.054     2.274     2.358
  93   1 H      0.924     0.024     2.672     2.556
  94   1 H      0.924     0.067     2.124     2.279
  95   1 H      0.924     0.073     2.051     2.239
  96   1 H      0.924     0.079     1.984     2.203
  97   1 H      0.925     0.128     1.551     1.947
  98   1 H      0.925     0.117     1.634     1.999
  99   1 H      0.859     0.312     0.677     1.289
 100   1 H      0.859     0.297     0.722     1.331
 101   1 H      0.859     0.300     0.714     1.324
 102   7 N      2.691    -0.176    24.803     7.397
 103   6 C      3.794     0.021    20.224     6.404
 104   6 C      2.758     0.269    22.456     7.760
 105   8 O      0.858    -0.487    23.495     6.499
 106   6 C      3.678     0.081    19.449     6.317
 107   8 O      1.656    -0.475    22.353     6.382
 108   1 H      0.860     0.228     0.973     1.545
 109   1 H      0.924     0.086     1.914     2.163
 110   1 H      0.924     0.057     2.237     2.339
 111   1 H      0.923     0.018     2.762     2.599
 112   1 H      0.805     0.344     0.603     1.220
 113   7 N      2.694    -0.190    25.112     7.443
 114   6 C      3.798     0.051    19.716     6.322
 115   6 C      2.760     0.295    21.993     7.680
 116   8 O      0.858    -0.506    23.925     6.558
 117   6 C      3.803    -0.090    22.208     6.709
 118   6 C      2.685     0.374    20.662     7.439
 119   8 O      0.856    -0.624    26.712     6.929
 120   8 O      0.856    -0.608    26.327     6.879
 121   1 H      0.860     0.223     0.995     1.562
 122   1 H      0.924     0.041     2.429     2.437
 123   1 H      0.924     0.038     2.475     2.460
 124   1 H      0.924     0.031     2.569     2.507
 125   7 N      2.694    -0.170    24.678     7.378
 126   6 C      3.793     0.033    20.021     6.372
 127   6 C      2.768     0.203    23.689     7.971
 128   8 O      0.856    -0.357    20.837     6.120
 129   6 C      3.807    -0.046    21.398     6.585
 130   6 C      3.800    -0.094    22.288     6.722
 131   6 C      2.685     0.370    20.732     7.451
 132   8 O      0.856    -0.608    26.325     6.879
 133   8 O      0.868    -0.578    25.580     6.781
 134   1 H      0.860     0.202     1.096     1.640
 135   1 H      0.924     0.097     1.812     2.105
 136   1 H      0.924     0.042     2.417     2.431
 137   1 H      0.924     0.055     2.260     2.351
 138   1 H      0.925     0.049     2.326     2.385
 139   1 H      0.924     0.015     2.803     2.618
 140   7 N      2.639    -0.383    29.890     8.120
 141   6 C      3.787     0.031    20.073     6.381
 142   6 C      2.758     0.276    22.327     7.738
 143   8 O      0.858    -0.499    23.754     6.535
 144   6 C      3.805    -0.061    21.670     6.627
 145   6 C      3.057    -0.040    28.925     8.820
 146   6 C      3.032    -0.012    28.282     8.723
 147   6 C      3.114    -0.024    28.431     8.734
 148   7 N      2.777    -0.110    23.409     7.186
 149   6 C      3.089     0.044    26.907     8.503
 150   6 C      2.909    -0.034    28.849     8.807
 151   6 C      2.908    -0.058    29.441     8.897
 152   6 C      2.920    -0.042    29.040     8.837
 153   6 C      2.924    -0.040    28.996     8.831
 154   1 H      0.860     0.157     1.353     1.822
 155   1 H      0.924     0.045     2.386     2.416
 156   1 H      0.924     0.043     2.409     2.427
 157   1 H      0.924     0.013     2.836     2.634
 158   1 H      0.926     0.052     2.289     2.366
 159   1 H      0.860     0.207     1.069     1.620
 160   1 H      0.925    -0.016     3.354     2.864
 161   1 H      0.926     0.046     2.370     2.407
 162   1 H      0.926     0.006     2.949     2.686
 163   1 H      0.926     0.034     2.526     2.485
 164   7 N      2.692    -0.174    24.757     7.390
 165   6 C      3.794     0.017    20.302     6.416
 166   6 C      2.760     0.273    22.381     7.747
 167   8 O      0.858    -0.472    23.167     6.453
 168   6 C      3.807    -0.076    21.954     6.670
 169   6 C      3.801    -0.081    22.050     6.686
 170   6 C      3.802    -0.085    22.128     6.697
 171   6 C      3.731    -0.037    21.324     6.591
 172   7 N      3.474    -0.186    25.018     7.429
 173   1 H      0.860     0.206     1.077     1.626
 174   1 H      0.924     0.067     2.119     2.276
 175   1 H      0.925     0.077     2.006     2.215
 176   1 H      0.924     0.057     2.236     2.339
 177   1 H      0.924     0.056     2.246     2.343
 178   1 H      0.924     0.084     1.937     2.176
 179   1 H      0.925     0.072     2.062     2.246
 180   1 H      0.925     0.045     2.387     2.416
 181   1 H      0.924     0.114     1.664     2.017
 182   1 H      0.925     0.099     1.796     2.096
 183   1 H      0.859     0.284     0.764     1.369
 184   1 H      0.860     0.299     0.717     1.326
 185   1 H      0.859     0.267     0.821     1.420
 186   7 N      2.695    -0.182    24.941     7.417
 187   6 C      3.798     0.022    20.215     6.402
 188   6 C      2.755     0.274    22.370     7.745
 189   8 O      0.858    -0.493    23.638     6.518
 190   6 C      3.808    -0.047    21.408     6.586
 191   6 C      3.806    -0.098    22.367     6.733
 192   6 C      2.747     0.295    22.004     7.681
 193   8 O      0.859    -0.478    23.293     6.471
 194   7 N      2.638    -0.283    27.301     7.760
 195   1 H      0.860     0.205     1.083     1.630
 196   1 H      0.924     0.072     2.062     2.246
 197   1 H      0.924     0.053     2.277     2.360
 198   1 H      0.924     0.034     2.537     2.491
 199   1 H      0.924     0.055     2.255     2.348
 200   1 H      0.925     0.076     2.023     2.224
 201   1 H      0.860     0.200     1.108     1.649
 202   1 H      0.860     0.234     0.946     1.524
 203   7 N      2.698    -0.161    24.478     7.348
 204   6 C      3.795     0.013    20.357     6.425
 205   6 C      2.762     0.276    22.325     7.738
 206   8 O      0.859    -0.491    23.591     6.512
 207   6 C      3.851    -0.019    20.869     6.498
 208   6 C      3.803    -0.057    21.597     6.616
 209   6 C      3.755    -0.123    22.918     6.826
 210   6 C      3.751    -0.100    22.462     6.759
 211   1 H      0.860     0.218     1.018     1.580
 212   1 H      0.924     0.077     2.015     2.220
 213   1 H      0.924     0.045     2.386     2.415
 214   1 H      0.924     0.044     2.393     2.419
 215   1 H      0.924     0.033     2.550     2.497
 216   1 H      0.925     0.056     2.245     2.343
 217   1 H      0.925     0.049     2.336     2.390
 218   1 H      0.925     0.053     2.278     2.361
 219   1 H      0.925     0.030     2.580     2.512
 220   1 H      0.925     0.028     2.621     2.532
 221   1 H      0.925     0.042     2.429     2.437
 222   7 N      2.697    -0.168    24.629     7.371
 223   6 C      3.795     0.029    20.096     6.383
 224   6 C      2.761     0.288    22.126     7.703
 225   8 O      0.859    -0.482    23.397     6.485
 226   6 C      3.811    -0.071    21.852     6.654
 227   6 C      3.848    -0.013    20.766     6.482
 228   6 C      3.754    -0.117    22.803     6.809
 229   6 C      3.757    -0.128    23.016     6.840
 230   1 H      0.860     0.211     1.053     1.607
 231   1 H      0.924     0.060     2.195     2.317
 232   1 H      0.924     0.057     2.235     2.338
 233   1 H      0.924     0.054     2.267     2.355
 234   1 H      0.924     0.024     2.680     2.560
 235   1 H      0.925     0.057     2.239     2.340
 236   1 H      0.925     0.022     2.700     2.569
 237   1 H      0.925     0.046     2.372     2.409
 238   1 H      0.925     0.060     2.196     2.318
 239   1 H      0.925     0.057     2.237     2.339
 240   1 H      0.925     0.055     2.262     2.352
 241   7 N      2.693    -0.167    24.622     7.370
 242   6 C      3.796     0.043    19.852     6.344
 243   6 C      2.770     0.193    23.886     8.004
 244   8 O      0.856    -0.358    20.867     6.125
 245   6 C      3.802    -0.094    22.290     6.722
 246   6 C      2.686     0.379    20.582     7.424
 247   8 O      0.856    -0.622    26.660     6.923
 248   8 O      0.856    -0.611    26.396     6.888
 249   1 H      0.860     0.207     1.073     1.623
 250   1 H      0.924     0.075     2.036     2.232
 251   1 H      0.924     0.038     2.482     2.464
 252   1 H      0.925     0.044     2.397     2.421
 253   1 H      0.862     0.187     1.174     1.697
 254   1 H      0.930     0.061     2.183     2.311
 255   1 H      0.862     0.191     1.155     1.683
 256   1 H      0.930     0.087     1.907     2.159
 257   1 H      0.862     0.179     1.222     1.731
 258   1 H      0.930     0.081     1.973     2.196
 259   1 H      0.862     0.194     1.139     1.672
 260   1 H      0.930     0.087     1.904     2.158

 Mol. C6AA /au·bohr⁶  :     644224.198065
 Mol. C8AA /au·bohr⁸  :   14324178.349325
 Mol. α(0) /au        :       1200.916230


Wiberg/Mayer (AO) data.
largest (>0.10) Wiberg bond orders for each atom
          total WBO             WBO to atom ...
     1  N   2.992        C    2 1.025    H  253 0.951    H   10 0.949
     2  C   3.985        N    1 1.025    C    3 0.988    C    5 0.946    H   11 0.942
     3  C   3.898        O    4 1.884    C    2 0.988    H  254 0.957
     4  O   2.039        C    3 1.884
     5  C   3.992        C    6 1.002    H   13 0.974    H   12 0.973    C    2 0.946
     6  C   3.994        C    5 1.002    H   15 0.968    C    7 0.968    H   14 0.951
     7  C   3.943        O    8 1.644    N    9 1.303    C    6 0.968
     8  O   1.943        C    7 1.644    N    9 0.198
     9  N   3.389        C    7 1.303    H   16 0.928    H   17 0.925    O    8 0.198
    10  H   0.971        N    1 0.949
    11  H   0.995        C    2 0.942
    12  H   0.997        C    5 0.973
    13  H   0.998        C    5 0.974
    14  H   0.995        C    6 0.951
    15  H   0.996        C    6 0.968
    16  H   0.948        N    9 0.928
    17  H   0.946        N    9 0.925
    18  N   2.994        C   19 1.030    H   25 0.943    H  255 0.940
    19  C   3.987        N   18 1.030    H   26 0.953    C   22 0.947    C   20 0.947
    20  C   3.936        O   21 1.623    N   34 1.288    C   19 0.947
    21  O   1.949        C   20 1.623    N   34 0.187
    22  C   3.993        C   24 1.010    C   23 1.008    H   27 0.968    C   19 0.947
    23  C   3.994        C   22 1.008    H   29 0.985    H   28 0.983    H   30 0.977
    24  C   3.996        C   22 1.010    H   33 0.985    H   31 0.985    H   32 0.983
    25  H   0.975        N   18 0.943
    26  H   0.998        C   19 0.953
    27  H   0.999        C   22 0.968
    28  H   0.996        C   23 0.983
    29  H   0.997        C   23 0.985
    30  H   0.998        C   23 0.977
    31  H   0.998        C   24 0.985
    32  H   0.999        C   24 0.983
    33  H   1.000        C   24 0.985
    34  N   3.456        C   20 1.288    C   35 0.988    H   44 0.920    O   21 0.187
    35  C   3.964        N   34 0.988    H   45 0.951    C   38 0.946    C   36 0.945
    36  C   3.954        O   37 1.628    N   51 1.303    C   35 0.945
    37  O   1.950        C   36 1.628    N   51 0.197
    38  C   3.989        C   39 1.014    H   46 0.970    H   47 0.960    C   35 0.946
    39  C   3.972        C   41 1.545    N   40 1.279    C   38 1.014
    40  N   3.002        C   42 1.527    C   39 1.279    N   43 0.104
    41  C   3.940        C   39 1.545    N   43 1.226    H   48 0.967    C   42 0.116
    42  C   3.955        N   40 1.527    N   43 1.283    H   49 0.965    C   41 0.116
    43  N   3.603        C   42 1.283    C   41 1.226    H   50 0.895    N   40 0.104
    44  H   0.956        N   34 0.920
    45  H   0.995        C   35 0.951
    46  H   0.994        C   38 0.970
    47  H   0.996        C   38 0.960
    48  H   0.999        C   41 0.967
    49  H   0.998        C   42 0.965
    50  H   0.959        N   43 0.895
    51  N   3.476        C   36 1.303    C   52 0.989    H   57 0.904    O   37 0.197
    52  C   3.964        N   51 0.989    H   58 0.948    C   55 0.945    C   53 0.943
    53  C   3.958        O   54 1.607    N   62 1.328    C   52 0.943
    54  O   1.982        C   53 1.607    N   62 0.205
    55  C   3.952        O   56 1.010    H   60 0.967    H   59 0.966    C   52 0.945
    56  O   1.964        C   55 1.010    H   61 0.877
    57  H   0.954        N   51 0.904
    58  H   0.992        C   52 0.948
    59  H   0.997        C   55 0.966
    60  H   0.995        C   55 0.967
    61  H   0.895        O   56 0.877
    62  N   3.495        C   53 1.328    C   63 0.992    H   66 0.912    O   54 0.205
    63  C   3.952        C   64 1.008    N   62 0.992    H   67 0.936    H   68 0.909
    64  C   3.905        O   65 1.892    C   63 1.008    H  256 0.952
    65  O   2.046        C   64 1.892
    66  H   0.949        N   62 0.912
    67  H   0.983        C   63 0.936
    68  H   0.980        C   63 0.909
    69  N   2.991        C   70 1.025    H  257 0.954    H   75 0.947
    70  C   3.985        N   69 1.025    H   76 0.950    C   71 0.950    C   73 0.945
    71  C   3.950        O   72 1.604    N   80 1.324    C   70 0.950
    72  O   1.934        C   71 1.604    N   80 0.196
    73  C   3.956        O   74 1.009    H   78 0.973    H   77 0.968    C   70 0.945
    74  O   1.937        C   73 1.009    H   79 0.837
    75  H   0.968        N   69 0.947
    76  H   0.998        C   70 0.950
    77  H   0.999        C   73 0.968
    78  H   0.998        C   73 0.973
    79  H   0.899        O   74 0.837
    80  N   3.491        C   71 1.324    C   81 0.978    H   89 0.905    O   72 0.196
    81  C   3.956        N   80 0.978    C   84 0.962    H   90 0.945    C   82 0.941
    82  C   3.940        O   83 1.615    N  102 1.308    C   81 0.941
    83  O   1.960        C   82 1.615    N  102 0.195
    84  C   3.984        C   85 1.007    H   92 0.971    H   91 0.969    C   81 0.962
    85  C   3.991        C   84 1.007    C   86 1.003    H   93 0.975    H   94 0.973
    86  C   3.988        C   87 1.012    C   85 1.003    H   95 0.972    H   96 0.970
    87  C   3.917        C   86 1.012    H   98 0.963    H   97 0.962    N   88 0.961
    88  N   3.663        C   87 0.961    H  100 0.896    H  101 0.896    H   99 0.890
    89  H   0.957        N   80 0.905
    90  H   0.991        C   81 0.945
    91  H   0.993        C   84 0.969
    92  H   0.997        C   84 0.971
    93  H   0.999        C   85 0.975
    94  H   0.995        C   85 0.973
    95  H   0.995        C   86 0.972
    96  H   0.993        C   86 0.970
    97  H   0.984        C   87 0.962
    98  H   0.986        C   87 0.963
    99  H   0.902        N   88 0.890
   100  H   0.912        N   88 0.896
   101  H   0.910        N   88 0.896
   102  N   3.480        C   82 1.308    C  103 0.993    H  108 0.891    O   83 0.195
   103  C   3.970        N  102 0.993    C  106 0.966    H  109 0.948    C  104 0.933
   104  C   3.947        O  105 1.605    N  113 1.324    C  103 0.933
   105  O   1.952        C  104 1.605    N  113 0.197
   106  C   3.959        O  107 1.003    H  111 0.967    C  103 0.966    H  110 0.960
   107  O   1.927        C  106 1.003    H  112 0.868
   108  H   0.948        N  102 0.891
   109  H   0.992        C  103 0.948
   110  H   0.997        C  106 0.960
   111  H   0.999        C  106 0.967
   112  H   0.882        O  107 0.868
   113  N   3.482        C  104 1.324    C  114 0.970    H  121 0.893    O  105 0.197
   114  C   3.964        C  117 0.978    N  113 0.970    H  122 0.958    C  115 0.931
   115  C   3.947        O  116 1.598    N  125 1.311    C  114 0.931
   116  O   1.923        C  115 1.598    N  125 0.185
   117  C   3.983        C  114 0.978    H  123 0.976    H  124 0.956    C  118 0.906
   118  C   3.935        O  119 1.517    O  120 1.481    C  117 0.906
   119  O   1.853        C  118 1.517    O  120 0.211
   120  O   1.819        C  118 1.481    O  119 0.211
   121  H   0.950        N  113 0.893
   122  H   0.998        C  114 0.958
   123  H   0.998        C  117 0.976
   124  H   0.999        C  117 0.956
   125  N   3.480        C  115 1.311    C  126 0.969    H  134 0.914    O  116 0.185
   126  C   3.954        C  127 0.977    N  125 0.969    C  129 0.953    H  135 0.948
   127  C   3.893        O  128 1.894    C  126 0.977    H  258 0.953
   128  O   2.049        C  127 1.894
   129  C   3.989        C  130 0.998    H  137 0.975    H  136 0.971    C  126 0.953
   130  C   3.986        C  129 0.998    H  138 0.972    H  139 0.970    C  131 0.917
   131  C   3.933        O  132 1.560    O  133 1.425    C  130 0.917
   132  O   1.851        C  131 1.560    O  133 0.206
   133  O   1.898        C  131 1.425    O  132 0.206    H  184 0.141
   134  H   0.959        N  125 0.914
   135  H   0.990        C  126 0.948
   136  H   0.998        C  129 0.971
   137  H   0.996        C  129 0.975
   138  H   0.997        C  130 0.972
   139  H   1.000        C  130 0.970
   140  N   3.001        C  141 1.022    H  154 0.958    H  259 0.949
   141  C   3.984        N  140 1.022    H  155 0.963    C  142 0.945    C  144 0.944
   142  C   3.941        O  143 1.631    N  164 1.293    C  141 0.945
   143  O   1.949        C  142 1.631    N  164 0.191
   144  C   3.994        C  145 1.020    H  157 0.973    H  156 0.968    C  141 0.944
   145  C   3.976        C  146 1.574    C  147 1.209    C  144 1.020
   146  C   3.951        C  145 1.574    N  148 1.205    H  158 0.968
   147  C   3.985        C  150 1.328    C  149 1.246    C  145 1.209
   148  N   3.547        C  146 1.205    C  149 1.188    H  159 0.930
   149  C   3.964        C  151 1.334    C  147 1.246    N  148 1.188
   150  C   3.992        C  152 1.507    C  147 1.328    H  160 0.969    C  151 0.113
   151  C   3.987        C  153 1.497    C  149 1.334    H  161 0.967    C  150 0.113
   152  C   3.989        C  150 1.507    C  153 1.367    H  162 0.969
   153  C   3.990        C  151 1.497    C  152 1.367    H  163 0.972
   154  H   0.975        N  140 0.958
   155  H   0.998        C  141 0.963
   156  H   0.997        C  144 0.968
   157  H   1.000        C  144 0.973
   158  H   0.996        C  146 0.968
   159  H   0.956        N  148 0.930
   160  H   0.999        C  150 0.969
   161  H   0.997        C  151 0.967
   162  H   1.000        C  152 0.969
   163  H   0.998        C  153 0.972
   164  N   3.464        C  142 1.293    C  165 0.981    H  173 0.923    O  143 0.191
   165  C   3.962        N  164 0.981    C  168 0.962    H  174 0.956    C  166 0.935
   166  C   3.943        O  167 1.655    N  186 1.275    C  165 0.935
   167  O   1.967        C  166 1.655    N  186 0.191
   168  C   3.982        C  169 1.006    H  175 0.970    H  176 0.970    C  165 0.962
   169  C   3.991        C  170 1.007    C  168 1.006    H  177 0.974    H  178 0.969
   170  C   3.991        C  171 1.012    C  169 1.007    H  180 0.967    H  179 0.966
   171  C   3.930        C  170 1.012    H  182 0.969    N  172 0.965    H  181 0.964
   172  N   3.627        C  171 0.965    H  185 0.912    H  183 0.906    H  184 0.751
   173  H   0.958        N  164 0.923
   174  H   0.995        C  165 0.956
   175  H   0.994        C  168 0.970
   176  H   0.996        C  168 0.970
   177  H   0.997        C  169 0.974
   178  H   0.993        C  169 0.969
   179  H   0.995        C  170 0.966
   180  H   0.998        C  170 0.967
   181  H   0.987        C  171 0.964
   182  H   0.990        C  171 0.969
   183  H   0.919        N  172 0.906
   184  H   0.911        N  172 0.751    O  133 0.141
   185  H   0.929        N  172 0.912
   186  N   3.448        C  166 1.275    C  187 0.983    H  195 0.913    O  167 0.191
   187  C   3.967        N  186 0.983    C  190 0.968    H  196 0.957    C  188 0.934
   188  C   3.950        O  189 1.603    N  203 1.332    C  187 0.934
   189  O   1.967        C  188 1.603    N  203 0.203
   190  C   3.991        C  191 0.988    H  197 0.971    H  198 0.969    C  187 0.968
   191  C   3.993        C  190 0.988    H  199 0.970    H  200 0.970    C  192 0.966
   192  C   3.946        O  193 1.669    N  194 1.283    C  191 0.966
   193  O   1.965        C  192 1.669    N  194 0.194
   194  N   3.371        C  192 1.283    H  201 0.936    H  202 0.923    O  193 0.194
   195  H   0.958        N  186 0.913
   196  H   0.994        C  187 0.957
   197  H   0.997        C  190 0.971
   198  H   0.999        C  190 0.969
   199  H   0.997        C  191 0.970
   200  H   0.994        C  191 0.970
   201  H   0.960        N  194 0.936
   202  H   0.945        N  194 0.923
   203  N   3.500        C  188 1.332    C  204 0.975    H  211 0.910    O  189 0.203
   204  C   3.956        N  203 0.975    H  212 0.949    C  207 0.949    C  205 0.940
   205  C   3.951        O  206 1.612    N  222 1.325    C  204 0.940
   206  O   1.942        C  205 1.612    N  222 0.200
   207  C   3.988        C  209 1.009    C  208 0.996    H  213 0.965    C  204 0.949
   208  C   3.995        C  210 1.019    C  207 0.996    H  214 0.974    H  215 0.973
   209  C   3.993        C  207 1.009    H  217 0.984    H  216 0.983    H  218 0.982
   210  C   3.996        C  208 1.019    H  221 0.987    H  219 0.986    H  220 0.981
   211  H   0.952        N  203 0.910
   212  H   0.994        C  204 0.949
   213  H   0.997        C  207 0.965
   214  H   0.997        C  208 0.974
   215  H   0.999        C  208 0.973
   216  H   0.997        C  209 0.983
   217  H   0.997        C  209 0.984
   218  H   0.997        C  209 0.982
   219  H   0.999        C  210 0.986
   220  H   0.999        C  210 0.981
   221  H   0.998        C  210 0.987
   222  N   3.492        C  205 1.325    C  223 0.975    H  230 0.905    O  206 0.200
   223  C   3.959        N  222 0.975    C  226 0.959    H  231 0.958    C  224 0.945
   224  C   3.943        O  225 1.627    N  241 1.293    C  223 0.945
   225  O   1.973        C  224 1.627    N  241 0.188
   226  C   3.981        C  227 0.994    H  232 0.972    H  233 0.969    C  223 0.959
   227  C   3.992        C  228 1.009    C  229 1.006    C  226 0.994    H  234 0.968
   228  C   3.995        C  227 1.009    H  236 0.987    H  237 0.986    H  235 0.984
   229  C   3.991        C  227 1.006    H  239 0.986    H  240 0.985    H  238 0.984
   230  H   0.956        N  222 0.905
   231  H   0.996        C  223 0.958
   232  H   0.996        C  226 0.972
   233  H   0.997        C  226 0.969
   234  H   0.999        C  227 0.968
   235  H   0.997        C  228 0.984
   236  H   1.000        C  228 0.987
   237  H   0.998        C  228 0.986
   238  H   0.996        C  229 0.984
   239  H   0.997        C  229 0.986
   240  H   0.997        C  229 0.985
   241  N   3.464        C  224 1.293    C  242 0.985    H  249 0.922    O  225 0.188
   242  C   3.970        N  241 0.985    C  243 0.981    H  250 0.948    C  245 0.940
   243  C   3.910        O  244 1.885    C  242 0.981    H  260 0.952
   244  O   2.039        C  243 1.885
   245  C   3.981        H  251 0.977    H  252 0.976    C  242 0.940    C  246 0.893
   246  C   3.936        O  248 1.530    O  247 1.477    C  245 0.893
   247  O   1.831        C  246 1.477    O  248 0.217
   248  O   1.843        C  246 1.530    O  247 0.217
   249  H   0.957        N  241 0.922
   250  H   0.994        C  242 0.948
   251  H   0.998        C  245 0.977
   252  H   0.998        C  245 0.976
   253  H   0.965        N    1 0.951
   254  H   0.996        C    3 0.957
   255  H   0.963        N   18 0.940
   256  H   0.992        C   64 0.952
   257  H   0.968        N   69 0.954
   258  H   0.993        C  127 0.953
   259  H   0.962        N  140 0.949
   260  H   0.992        C  243 0.952
 
molecular dipole:
                 x           y           z       tot (Debye)
 q only:      -24.520     -60.860    -151.450
   full:      -25.356     -60.767    -151.641     420.209
molecular quadrupole (traceless):
                xx          xy          yy          xz          yz          zz
 q only:    13103.156   -2246.354    7953.870   -5952.340  -13708.920  -21057.026
  q+dip:    13043.533   -2296.889    8014.748   -6124.029  -13683.902  -21058.281
   full:    13054.074   -2294.472    8005.885   -6123.917  -13683.530  -21059.959


           -------------------------------------------------
          | TOTAL ENERGY             -415.262598560180 Eh   |
          | GRADIENT NORM               0.447971838002 Eh/α |
          | HOMO-LUMO GAP               1.583754735435 eV   |
           -------------------------------------------------

------------------------------------------------------------------------
 * finished run on 2019/05/31 at 06:33:41.238     
------------------------------------------------------------------------
 total:
 * wall-time:     0 d,  0 h,  0 min,  6.621 sec
 *  cpu-time:     0 d,  0 h,  0 min, 12.782 sec
 * ratio c/w:     1.931 speedup
 SCF:
 * wall-time:     0 d,  0 h,  0 min,  6.028 sec
 *  cpu-time:     0 d,  0 h,  0 min, 11.771 sec
 * ratio c/w:     1.953 speedup

