      -----------------------------------------------------------      
     |                   =====================                   |     
     |                           x T B                           |     
     |                   =====================                   |     
     |                         S. Grimme                         |     
     |          Mulliken Center for Theoretical Chemistry        |     
     |                    University of Bonn                     |     
     |                 Version 6.0.1 (SAW181210)                 |     
      -----------------------------------------------------------      

   This program is distributed in the hope that it will be useful,
   but WITHOUT ANY WARRANTY; without even the implied warranty of
   MERCHANTABILITY or FITNESS FOR A PARTICULAR PURPOSE.
   
   FOR NON-COMMERCIAL, ACADEMIA USE ONLY.
   
   Cite this work as:
   S. Grimme, C. Bannwarth, P. Shushkov, J. Comput. Theory Chem., 2017,
   13, 1989-2009.
   C. Bannwarth, S. Ehlert and S. Grimme., ChemRxiv, 2018, preprint.
   http://doi.org/10.26434/chemrxiv.7246238.v1
   
   for sTDA-xTB:
   S. Grimme and C. Bannwarth, J. Chem. Phys., 2016, 145, 054103.
   
   in the mass-spec context:
   V. Asgeirsson, C. Bauer and S. Grimme, Chem. Sci., 2017, 8, 4879.
   
   if GBSA is used:
   P. Shushkov, F. März and S. Grimme, unpublished.
   
   for ANC optimizer:
   S. Grimme, unpublished.
   Rational Function algorithm used in ANCopt:
   F. Eckert, P. Pulay, H.-J. Werner, J. Comput. Chem., 1997, 18, 1473.
   
   with help from (in alphabetical order)
   C. Bannwarth, F. Bohle, G. Brandenburg, E. Caldeweyher, M. Checinski,
   S. Dohm, S. Ehlert, S. Ehrlich, F. März, H. Neugebauer, J. Pisarek,
   P. Pracht, P. Shushkov, and S. Spicher.
   
 * started run on 2019/02/13 at 00:17:41.485     
========================================================================
 # omp threads = 16
========================================================================
number of atoms            : 333
number of electrons        : 918
charge                     : 1
spin                       : .0
first test random number   : .2913

########################################################################
# WARNING! Please study the warnings concerning your input carefully
#  - Process number higher than OMP_NUM_THREADS, I hope you know what you are doing.
########################################################################

           ------------------------------------------------- 
          |                 G F N 2 - x T B                 |
          | Geometry, Frequencies, Noncovalent interactions |
          |            JCTC 2018 parametrisation            |
           ------------------------------------------------- 
 
      method parameters     
 k(s)        :  1.8500
 k(p)        :  2.2300
 k(d)        :  2.2300
 k(f)        :  2.0000
 kEN (H0ij)  : -2.0000
 D4 a1       :  0.5200
 D4 a2       :  5.0000
 D4 s6       :  1.0000
 D4 s8       :  2.7000
 D4 s9       :  5.0000
 alphaj      :  2.0000

 Solvent             : h2o
 Using internal parameter file: .param_gbsa2_h2o
 Gsolv ref. state (COSMO-RS): gsolv [1 M gas/solution]
 temperature (mdtemp)       :    298.150000000000     
 dielectric constant        :    80.2000000000000     
 rho                        :    1.00000000000000     
 mass                       :    18.0000000000000     
 surface tension            :    15.5689454083859     
 probe radius               :   0.975313790000000     
 vdW radii scaling          :    1.00000000000000     
 Gshift (Eh)                :   1.857443126794793E-003
 c1                         :    1.55243817000000     
 soset                      :   0.130326360000000     
 HB correction              :  T

            Z     q(EN)     CN     RAES       Cart. coordinates
     1  N   5.0   -0.21    3.24    1.97   194.59796   116.64177   333.50754
     2  C   4.0    0.02    4.31    4.21   195.93951   115.29372   331.54156
     3  C   4.0    0.15    3.42    3.09   195.22863   116.34658   328.93205
     4  O   6.0   -0.32    1.31    1.80   196.81824   116.50383   327.25377
     5  C   4.0   -0.05    4.23    4.07   195.52162   112.43826   331.77989
     6  C   4.0   -0.04    4.15    3.89   197.57937   110.88180   330.43682
     7  C   4.0   -0.05    4.15    3.90   199.40559   109.58289   332.27400
     8  C   4.0   -0.03    4.10    3.81   201.18385   111.34216   333.71661
     9  N   5.0   -0.11    4.01    2.90   203.42235   112.06879   332.16636
    10  H   1.0    0.09    1.02    1.43   193.09112   115.78944   334.31508
    11  H   1.0    0.04    1.06    1.44   197.94797   115.74322   331.77679
    12  H   1.0    0.04    1.03    1.43   195.49124   111.99389   333.79322
    13  H   1.0    0.05    1.03    1.43   193.65587   111.99733   331.02744
    14  H   1.0    0.05    1.03    1.43   196.66575   109.40312   329.33397
    15  H   1.0    0.05    1.03    1.43   198.58154   112.08155   329.09674
    16  H   1.0    0.05    1.03    1.43   198.27734   108.54326   333.64817
    17  H   1.0    0.05    1.03    1.43   200.51499   108.19217   331.23489
    18  H   1.0    0.04    1.02    1.43   200.18901   113.03983   334.32187
    19  H   1.0    0.05    1.02    1.43   201.88301   110.36083   335.38921
    20  H   1.0    0.07    1.02    1.43   204.64761   113.18231   333.18871
    21  H   1.0    0.06    1.02    1.43   204.37098   110.46514   331.59141
    22  H   1.0    0.07    1.03    1.43   202.94593   113.08619   330.57096
    23  N   5.0   -0.15    3.49    2.07   192.86683   117.18535   328.63407
    24  C   4.0    0.04    4.40    4.38   192.19804   118.68009   326.43639
    25  C   4.0    0.16    3.47    3.10   193.79033   121.11170   326.31788
    26  O   6.0   -0.31    1.29    1.80   194.56638   121.97350   324.32033
    27  C   4.0    0.03    4.14    3.89   189.38073   119.36104   326.48304
    28  O   6.0   -0.24    2.08    1.84   188.86871   120.98474   324.42716
    29  H   1.0    0.08    1.06    1.44   191.55225   116.87004   329.99051
    30  H   1.0    0.06    1.05    1.44   192.61395   117.62610   324.69895
    31  H   1.0    0.05    1.01    1.43   188.28087   117.61148   326.34075
    32  H   1.0    0.05    1.01    1.43   188.95098   120.31191   328.27399
    33  H   1.0    0.13    1.02    1.43   187.06949   121.05898   324.16238
    34  N   5.0   -0.14    3.51    2.09   194.31551   122.14669   328.55876
    35  C   4.0    0.03    4.41    4.40   195.89259   124.38664   328.76060
    36  C   4.0    0.15    3.45    3.10   198.62061   123.72247   328.00459
    37  O   6.0   -0.32    1.29    1.80   199.91823   125.10006   326.67532
    38  C   4.0   -0.05    4.27    4.14   195.75484   125.47692   331.43972
    39  C   4.0   -0.03    4.22    4.04   197.06690   128.03705   331.58510
    40  C   4.0    0.16    3.20    3.04   196.98439   129.38577   334.11396
    41  O   6.0   -0.26    1.21    1.80   197.98352   131.47498   334.33519
    42  N   5.0   -0.17    3.20    1.95   195.83634   128.26835   336.05905
    43  H   1.0    0.08    1.07    1.44   193.32758   121.52289   330.08460
    44  H   1.0    0.06    1.05    1.44   195.23712   125.80569   327.39301
    45  H   1.0    0.05    1.03    1.43   193.75727   125.68249   331.91666
    46  H   1.0    0.05    1.03    1.43   196.65437   124.15236   332.73713
    47  H   1.0    0.06    1.03    1.43   199.05512   127.85970   331.05891
    48  H   1.0    0.06    1.03    1.43   196.22265   129.34324   330.22378
    49  H   1.0    0.09    1.03    1.43   194.83513   126.65439   335.95645
    50  H   1.0    0.11    1.03    1.43   195.61492   129.27417   337.66550
    51  N   5.0   -0.14    3.52    2.09   199.42364   121.47894   328.83557
    52  C   4.0    0.04    4.38    4.34   201.82520   120.42231   328.04829
    53  C   4.0    0.16    3.44    3.09   201.92813   120.17436   325.15242
    54  O   6.0   -0.31    1.25    1.80   203.93641   120.42412   324.01183
    55  C   4.0    0.03    4.16    3.92   202.10009   117.80854   329.27961
    56  O   6.0   -0.25    2.04    1.83   204.46639   116.63346   328.94380
    57  H   1.0    0.08    1.07    1.44   198.47079   120.62439   330.27696
    58  H   1.0    0.06    1.05    1.44   203.39585   121.66085   328.60632
    59  H   1.0    0.05    1.02    1.43   201.85072   118.05176   331.31998
    60  H   1.0    0.06    1.03    1.43   200.58987   116.62255   328.48850
    61  H   1.0    0.14    1.03    1.43   205.15156   117.04178   327.30491
    62  N   5.0   -0.13    3.52    2.09   199.74359   119.58780   324.04815
    63  C   4.0    0.04    4.33    4.26   199.49255   119.41890   321.32560
    64  C   4.0    0.16    3.49    3.11   199.69536   122.04679   320.12527
    65  O   6.0   -0.32    1.36    1.80   200.87642   122.34637   318.15525
    66  C   4.0   -0.06    4.10    3.81   197.02956   118.11812   320.60381
    67  H   1.0    0.12    1.11    1.44   198.24757   118.99980   325.10185
    68  H   1.0    0.05    1.06    1.44   201.10820   118.34429   320.59104
    69  H   1.0    0.05    1.00    1.43   196.93422   117.91296   318.56492
    70  H   1.0    0.05    1.00    1.43   196.95238   116.25997   321.47350
    71  H   1.0    0.07    1.01    1.43   195.43858   119.24971   321.23588
    72  N   5.0   -0.13    3.52    2.09   198.59538   123.97185   321.32517
    73  C   4.0    0.04    4.44    4.45   199.17911   126.54047   320.51895
    74  C   4.0    0.16    3.56    3.14   202.06156   126.71184   320.29449
    75  O   6.0   -0.32    1.31    1.80   203.09437   127.50809   318.38424
    76  C   4.0   -0.05    4.32    4.23   198.03434   128.45448   322.35847
    77  C   4.0   -0.02    4.17    3.94   198.74266   131.23987   321.92926
    78  C   4.0   -0.07    4.11    3.81   201.35791   131.87788   322.97415
    79  C   4.0   -0.08    4.10    3.81   198.54082   132.03653   319.16413
    80  H   1.0    0.11    1.09    1.44   197.39555   123.66819   322.78962
    81  H   1.0    0.05    1.05    1.44   198.43591   126.84586   318.60703
    82  H   1.0    0.04    1.03    1.43   195.98430   128.27391   322.23033
    83  H   1.0    0.07    1.05    1.44   198.60735   127.94485   324.26786
    84  H   1.0    0.04    1.06    1.44   197.37995   132.35441   323.01790
    85  H   1.0    0.05    1.00    1.43   201.65986   133.91006   322.91608
    86  H   1.0    0.05    1.00    1.43   201.53721   131.26474   324.92747
    87  H   1.0    0.05    1.01    1.43   202.84631   130.99799   321.87026
    88  H   1.0    0.04    1.00    1.43   198.82714   134.06607   319.01900
    89  H   1.0    0.05    1.00    1.43   199.98659   131.11536   318.03449
    90  H   1.0    0.04    1.00    1.43   196.68740   131.59067   318.39803
    91  N   5.0   -0.13    3.43    2.04   203.33528   125.78686   322.27286
    92  C   4.0    0.03    4.25    4.10   206.06721   125.62124   322.26590
    93  C   4.0    0.18    3.43    3.09   207.02301   124.58665   319.73937
    94  O   6.0   -0.30    1.33    1.80   208.34190   125.83877   318.31172
    95  H   1.0    0.11    1.09    1.44   202.39330   125.40770   323.89757
    96  H   1.0    0.06    1.02    1.43   206.94838   127.47382   322.55576
    97  H   1.0    0.06    1.03    1.43   206.66032   124.33718   323.76179
    98  N   5.0   -0.13    3.50    2.08   206.19698   122.26034   319.16258
    99  C   4.0    0.05    4.48    4.51   207.24713   120.98642   316.97378
   100  C   4.0    0.16    3.47    3.10   206.64618   122.41604   314.53601
   101  O   6.0   -0.32    1.28    1.80   208.00075   122.21763   312.65379
   102  C   4.0    0.06    4.21    4.03   206.43582   118.18939   316.85374
   103  O   6.0   -0.24    2.11    1.84   208.24005   116.91760   315.34454
   104  C   4.0   -0.06    4.08    3.77   203.77690   117.82585   315.79254
   105  H   1.0    0.11    1.09    1.44   205.37746   121.23388   320.55945
   106  H   1.0    0.08    1.06    1.44   209.32161   121.00383   317.15296
   107  H   1.0    0.05    1.04    1.43   206.54041   117.48920   318.81129
   108  H   1.0    0.12    1.02    1.43   208.07070   115.12372   315.63264
   109  H   1.0    0.05    1.00    1.43   203.16746   115.88301   316.06034
   110  H   1.0    0.06    1.02    1.43   202.47711   119.10307   316.72671
   111  H   1.0    0.06    1.01    1.43   203.77440   118.28336   313.79474
   112  N   5.0   -0.13    3.53    2.10   204.52912   123.77455   314.51476
   113  C   4.0    0.04    4.35    4.30   203.90068   125.41365   312.41744
   114  C   4.0    0.16    3.45    3.10   205.84742   127.53209   312.09996
   115  O   6.0   -0.33    1.31    1.80   206.51328   128.16951   309.96587
   116  C   4.0   -0.07    4.11    3.82   201.25875   126.50373   312.74592
   117  H   1.0    0.12    1.11    1.45   203.43581   123.88359   316.08344
   118  H   1.0    0.05    1.06    1.44   204.00511   124.30336   310.66779
   119  H   1.0    0.04    1.00    1.43   200.77604   127.67834   311.13300
   120  H   1.0    0.05    1.00    1.43   199.90054   124.97554   312.92060
   121  H   1.0    0.06    1.01    1.43   201.21023   127.64682   314.44902
   122  N   5.0   -0.14    3.53    2.10   206.67069   128.62629   314.20506
   123  C   4.0    0.04    4.52    4.56   208.74469   130.40809   314.16812
   124  C   4.0    0.16    3.52    3.13   211.11701   129.13164   313.12098
   125  O   6.0   -0.31    1.30    1.80   212.46206   130.17731   311.54111
   126  C   4.0   -0.02    4.33    4.25   209.31041   131.53698   316.78178
   127  C   4.0   -0.04    4.18    3.97   206.92241   132.50383   318.11557
   128  C   4.0   -0.06    4.12    3.85   211.29291   133.61812   316.51495
   129  C   4.0   -0.07    4.01    3.64   205.35526   134.41609   316.63894
   130  H   1.0    0.12    1.11    1.45   206.13215   127.93516   315.90623
   131  H   1.0    0.05    1.06    1.44   208.28195   131.94122   312.84921
   132  H   1.0    0.07    1.06    1.44   210.11702   130.02785   317.95085
   133  H   1.0    0.06    1.04    1.43   205.72871   130.88751   318.56646
   134  H   1.0    0.05    1.03    1.43   207.52306   133.34863   319.90001
   135  H   1.0    0.05    1.00    1.43   211.72201   134.42306   318.35467
   136  H   1.0    0.06    1.00    1.43   213.03437   132.85634   315.73156
   137  H   1.0    0.05    1.00    1.43   210.63251   135.11498   315.27247
   138  H   1.0    0.04    1.00    1.43   203.84306   135.10992   317.84174
   139  H   1.0    0.05    1.00    1.43   206.47881   136.02701   316.04280
   140  H   1.0    0.04    1.00    1.43   204.51016   133.54529   314.98441
   141  N   5.0   -0.13    3.52    2.09   211.53946   126.76546   313.90765
   142  C   4.0    0.04    4.45    4.46   213.75796   125.46546   312.95770
   143  C   4.0    0.17    3.53    3.13   213.59813   125.46003   310.06801
   144  O   6.0   -0.31    1.28    1.80   215.42039   126.00319   308.73330
   145  C   4.0   -0.04    4.24    4.09   213.97932   122.74972   313.91962
   146  C   4.0   -0.03    4.15    3.91   215.30402   122.54300   316.47697
   147  C   4.0    0.26    3.10    3.02   213.84460   123.84750   318.68619
   148  O   6.0   -0.27    1.17    1.80   212.41699   122.46204   319.95715
   149  O   6.0   -0.27    1.16    1.80   214.25327   126.14275   319.03336
   150  H   1.0    0.12    1.09    1.44   210.72186   126.15509   315.52987
   151  H   1.0    0.06    1.05    1.44   215.47006   126.52901   313.47264
   152  H   1.0    0.07    1.03    1.43   212.09439   121.92120   314.01733
   153  H   1.0    0.05    1.03    1.43   215.08749   121.68654   312.53529
   154  H   1.0    0.06    1.02    1.43   215.51777   120.55063   316.96985
   155  H   1.0    0.06    1.02    1.43   217.17254   123.41598   316.36790
   156  N   5.0   -0.13    3.51    2.09   211.37839   124.72684   309.13266
   157  C   4.0    0.04    4.41    4.40   210.88617   124.78396   306.43714
   158  C   4.0    0.16    3.53    3.13   211.38293   127.42808   305.37079
   159  O   6.0   -0.30    1.34    1.80   212.59263   127.70380   303.40257
   160  C   4.0   -0.05    4.29    4.18   208.15235   124.05298   305.85067
   161  C   4.0   -0.04    4.16    3.92   207.63399   121.23388   306.22103
   162  C   4.0   -0.01    4.21    4.02   204.77172   120.76820   306.04334
   163  N   5.0   -0.14    3.38    2.01   204.06846   118.17519   305.49655
   164  C   4.0    0.10    3.34    3.06   204.04228   116.28878   307.15648
   165  N   5.0   -0.18    3.26    1.97   204.96063   116.57802   309.47496
   166  N   5.0   -0.18    3.24    1.96   203.03892   114.07342   306.49122
   167  H   1.0    0.11    1.10    1.44   209.97779   124.19532   310.33605
   168  H   1.0    0.06    1.05    1.44   212.21559   123.50512   305.48098
   169  H   1.0    0.06    1.04    1.43   206.93388   125.17629   307.07710
   170  H   1.0    0.05    1.03    1.43   207.76846   124.58181   303.89480
   171  H   1.0    0.05    1.02    1.43   208.61809   120.16570   304.76077
   172  H   1.0    0.06    1.03    1.43   208.37659   120.67981   308.06031
   173  H   1.0    0.04    1.02    1.43   203.86748   121.36096   307.80402
   174  H   1.0    0.04    1.03    1.43   204.01766   121.92816   304.51778
   175  H   1.0    0.08    1.07    1.44   203.49411   117.81211   303.71310
   176  H   1.0    0.09    1.03    1.43   205.99000   118.10484   309.97082
   177  H   1.0    0.09    1.03    1.43   204.98515   115.10401   310.68187
   178  H   1.0    0.09    1.03    1.43   202.05772   113.88625   304.87001
   179  H   1.0    0.09    1.03    1.43   202.90542   112.66745   307.77068
   180  N   5.0   -0.13    3.55    2.11   210.35712   129.36894   306.60980
   181  C   4.0    0.04    4.46    4.48   210.54724   131.85203   305.47609
   182  C   4.0    0.17    3.48    3.11   213.32431   132.41383   304.89381
   183  O   6.0   -0.26    1.21    1.80   213.98367   133.66013   303.05899
   184  C   4.0   -0.04    4.34    4.27   209.40684   133.85866   307.21799
   185  C   4.0   -0.02    4.17    3.95   206.54208   134.12595   306.82768
   186  C   4.0   -0.07    4.09    3.79   205.25701   135.23236   309.16121
   187  C   4.0   -0.07    4.11    3.81   206.02014   135.77505   304.51833
   188  H   1.0    0.12    1.11    1.45   209.05683   129.06068   308.00110
   189  H   1.0    0.06    1.05    1.44   209.58983   131.86502   303.62575
   190  H   1.0    0.06    1.03    1.43   209.84455   133.31559   309.15619
   191  H   1.0    0.05    1.03    1.43   210.31193   135.67019   306.82793
   192  H   1.0    0.05    1.05    1.44   205.75806   132.24196   306.47120
   193  H   1.0    0.04    1.00    1.43   203.26661   135.56432   308.77763
   194  H   1.0    0.04    1.00    1.43   205.39165   133.91607   310.72616
   195  H   1.0    0.05    1.00    1.43   206.12364   137.01486   309.69739
   196  H   1.0    0.04    1.00    1.43   204.00656   135.88824   304.11450
   197  H   1.0    0.05    1.00    1.43   206.74013   137.67890   304.80813
   198  H   1.0    0.05    1.00    1.43   206.91690   135.00340   302.83193
   199  N   5.0   -0.13    3.52    2.09   214.93799   131.55190   306.64920
   200  C   4.0    0.05    4.38    4.35   217.62955   131.94831   306.51323
   201  C   4.0    0.18    3.42    3.09   218.95912   130.35584   304.47749
   202  O   6.0   -0.25    1.22    1.80   220.45138   131.30154   302.99696
   203  C   4.0    0.04    4.17    3.95   218.78818   131.31896   309.09143
   204  O   6.0   -0.22    2.06    1.83   221.42512   131.62979   308.95609
   205  H   1.0    0.11    1.11    1.44   214.24717   130.65334   308.19095
   206  H   1.0    0.08    1.05    1.44   218.02393   133.92490   306.01936
   207  H   1.0    0.05    1.01    1.43   217.95824   132.58005   310.51622
   208  H   1.0    0.06    1.01    1.43   218.29306   129.36078   309.57449
   209  H   1.0    0.13    1.02    1.43   222.13877   131.33165   310.60809
   210  N   5.0   -0.14    3.47    2.06   218.41283   127.87684   304.51566
   211  C   4.0    0.04    4.39    4.36   219.91003   126.08241   303.11937
   212  C   4.0    0.16    3.44    3.09   218.64276   124.77013   300.87142
   213  O   6.0   -0.27    1.30    1.80   219.96488   123.42391   299.49884
   214  C   4.0    0.05    4.17    3.95   220.84770   123.94417   304.86830
   215  O   6.0   -0.22    2.05    1.83   222.65800   122.40921   303.67868
   216  H   1.0    0.11    1.10    1.44   217.18207   127.21970   305.83045
   217  H   1.0    0.08    1.07    1.44   221.54318   127.11800   302.36446
   218  H   1.0    0.06    1.01    1.43   221.73106   124.76376   306.54591
   219  H   1.0    0.06    1.01    1.43   219.19917   122.81470   305.43898
   220  H   1.0    0.16    1.08    1.44   222.16830   122.27998   301.89479
   221  N   5.0   -0.12    3.39    2.02   216.16938   125.04327   300.58811
   222  C   4.0    0.03    4.16    3.91   214.81897   123.67949   298.65268
   223  C   4.0    0.10    3.12    3.03   214.50079   120.89137   299.37489
   224  O   6.0   -0.26    1.13    1.80   214.96003   120.08202   301.49253
   225  H   1.0    0.12    1.11    1.45   215.15892   126.17339   301.76399
   226  H   1.0    0.05    1.02    1.43   212.97819   124.55542   298.32509
   227  H   1.0    0.07    1.03    1.43   215.88867   123.75452   296.88276
   228  N   5.0   -0.18    3.23    1.96   213.89193   106.12305   306.15386
   229  C   4.0    0.04    4.30    4.20   212.49014   106.11987   308.50523
   230  C   4.0    0.16    3.39    3.07   209.92387   104.79857   308.12509
   231  O   6.0   -0.27    1.20    1.80   209.37534   102.85109   309.24091
   232  C   4.0   -0.04    4.28    4.15   212.26132   108.80898   309.61566
   233  C   4.0    0.16    3.24    3.04   211.69363   110.90039   307.72761
   234  O   6.0   -0.31    1.32    1.80   210.32337   110.63037   305.86973
   235  N   5.0   -0.18    3.19    1.95   212.72065   113.12934   308.27323
   236  H   1.0    0.11    1.02    1.43   213.16152   107.09315   304.66717
   237  H   1.0    0.06    1.06    1.44   213.55717   104.93623   309.82716
   238  H   1.0    0.06    1.03    1.43   210.74394   108.79253   311.01910
   239  H   1.0    0.05    1.03    1.43   214.02107   109.24573   310.59337
   240  H   1.0    0.10    1.03    1.43   212.41355   114.60089   307.09860
   241  H   1.0    0.09    1.03    1.43   213.82336   113.39792   309.80138
   242  N   5.0   -0.13    3.52    2.09   208.44594   105.96531   306.43679
   243  C   4.0    0.04    4.36    4.31   205.89115   105.14181   305.91996
   244  C   4.0    0.15    3.40    3.08   205.20250   105.56573   303.14009
   245  O   6.0   -0.26    1.22    1.80   204.37057   103.88957   301.79188
   246  C   4.0    0.04    4.15    3.89   204.00211   106.58683   307.63695
   247  O   6.0   -0.24    2.06    1.83   204.88562   106.85538   310.12075
   248  H   1.0    0.11    1.15    1.45   208.99356   107.76638   305.91684
   249  H   1.0    0.08    1.06    1.44   205.79759   103.11232   306.32152
   250  H   1.0    0.05    1.02    1.43   203.77395   108.51165   306.92845
   251  H   1.0    0.05    1.01    1.43   202.17350   105.61457   307.57181
   252  H   1.0    0.14    1.03    1.43   205.18950   105.21246   310.84460
   253  N   5.0   -0.14    3.46    2.05   205.52672   107.95452   302.34152
   254  C   4.0    0.04    4.23    4.05   204.86229   108.78034   299.80445
   255  C   4.0    0.11    3.24    3.04   205.99194   107.07670   297.76521
   256  O   6.0   -0.25    1.11    1.80   204.94169   106.67832   295.75178
   257  C   4.0   -0.06    4.12    3.84   205.87704   111.45369   299.39749
   258  H   1.0    0.09    1.07    1.44   206.40802   109.24271   303.44851
   259  H   1.0    0.07    1.05    1.44   202.80558   108.71832   299.57456
   260  H   1.0    0.06    1.00    1.43   205.36996   112.12251   297.52431
   261  H   1.0    0.05    1.00    1.43   205.07672   112.72589   300.79250
   262  H   1.0    0.06    1.00    1.43   207.92541   111.46083   299.57292
   263  N   5.0   -0.21    3.20    1.95   194.07321   135.52570   302.74151
   264  C   4.0    0.03    4.26    4.13   195.76444   135.53654   304.88225
   265  C   4.0    0.08    3.20    3.04   195.61107   137.95633   306.46566
   266  O   6.0   -0.32    1.19    1.80   195.98791   137.85384   308.75812
   267  C   4.0   -0.04    4.35    4.29   198.50121   135.16185   304.03621
   268  C   4.0   -0.04    4.06    3.73   199.00791   132.50964   303.05627
   269  S   6.0   -0.05    2.54    3.10   198.71412   130.17681   305.54612
   270  C   4.0   -0.07    3.88    3.44   200.51306   127.60783   304.19897
   271  H   1.0    0.09    1.03    1.43   194.84404   135.75308   301.00746
   272  H   1.0    0.05    1.07    1.44   195.24735   133.97102   306.14807
   273  H   1.0    0.04    1.03    1.43   198.95233   136.50109   302.52853
   274  H   1.0    0.04    1.04    1.43   199.75161   135.53037   305.63764
   275  H   1.0    0.05    1.06    1.44   197.71545   132.01237   301.52391
   276  H   1.0    0.04    1.07    1.44   200.92684   132.37836   302.30961
   277  H   1.0    0.04    1.05    1.44   200.32426   126.01283   305.46935
   278  H   1.0    0.05    1.04    1.43   199.75966   127.15668   302.33955
   279  H   1.0    0.04    1.04    1.43   202.48352   128.17120   304.01410
   280  N   5.0   -0.19    3.21    1.96   189.88705   136.61619   310.18417
   281  C   4.0    0.03    4.24    4.08   190.50973   134.68080   312.03170
   282  C   4.0    0.15    3.42    3.09   191.78756   135.83058   314.35844
   283  O   6.0   -0.31    1.28    1.80   191.06150   135.33475   316.50239
   284  C   4.0   -0.07    4.11    3.83   192.21574   132.69453   310.83133
   285  H   1.0    0.09    1.02    1.43   190.32602   136.24061   308.34648
   286  H   1.0    0.05    1.05    1.44   188.75768   133.81058   312.73016
   287  H   1.0    0.05    1.00    1.43   192.47918   131.12146   312.12105
   288  H   1.0    0.05    1.00    1.43   191.36918   132.01231   309.09020
   289  H   1.0    0.05    1.00    1.43   194.05622   133.50285   310.40932
   290  N   5.0   -0.15    3.47    2.06   193.78054   137.29575   313.87173
   291  C   4.0    0.04    4.33    4.26   195.21576   138.43025   315.90635
   292  C   4.0    0.10    3.25    3.04   193.49215   139.95378   317.65434
   293  O   6.0   -0.27    1.12    1.80   193.55645   139.65222   319.95159
   294  C   4.0   -0.04    4.28    4.15   197.31160   140.11797   314.85166
   295  C   4.0   -0.03    4.23    4.07   199.57384   138.54038   313.96546
   296  C   4.0    0.15    3.22    3.04   201.40968   140.18447   312.49422
   297  O   6.0   -0.28    1.19    1.80   203.34713   141.06483   313.38388
   298  N   5.0   -0.18    3.20    1.96   200.66135   140.60628   310.10764
   299  H   1.0    0.11    1.09    1.44   194.34395   137.65270   312.07238
   300  H   1.0    0.05    1.05    1.44   196.03175   136.92893   317.08551
   301  H   1.0    0.06    1.03    1.43   196.53362   141.21743   313.28947
   302  H   1.0    0.06    1.03    1.43   197.92976   141.43580   316.31140
   303  H   1.0    0.05    1.03    1.43   200.55774   137.74734   315.58977
   304  H   1.0    0.05    1.03    1.43   198.92148   137.01470   312.74699
   305  H   1.0    0.11    1.06    1.44   199.04998   139.79255   309.47835
   306  H   1.0    0.10    1.03    1.43   201.73407   141.67436   308.95628
   307  N   5.0   -0.19    3.21    1.96   188.75583   135.83141   321.49637
   308  C   4.0    0.05    4.23    4.06   189.86852   134.41439   323.55384
   309  C   4.0    0.10    3.20    3.04   190.88069   136.12928   325.64943
   310  O   6.0   -0.25    1.11    1.80   190.86816   135.43691   327.86373
   311  C   4.0   -0.04    4.27    4.14   191.98568   132.71591   322.56234
   312  C   4.0   -0.03    4.21    4.03   190.97355   130.45127   321.06138
   313  C   4.0    0.15    3.21    3.04   189.77535   128.46675   322.77080
   314  O   6.0   -0.27    1.21    1.80   188.04084   128.95925   324.21810
   315  N   5.0   -0.17    3.18    1.95   190.75137   126.13956   322.56280
   316  H   1.0    0.12    1.06    1.44   189.65607   135.78221   319.80151
   317  H   1.0    0.08    1.06    1.44   188.41211   133.22095   324.42907
   318  H   1.0    0.05    1.03    1.43   193.21214   133.84629   321.34967
   319  H   1.0    0.05    1.03    1.43   193.08175   132.04286   324.17346
   320  H   1.0    0.06    1.03    1.43   189.53499   131.11631   319.74386
   321  H   1.0    0.04    1.03    1.43   192.50611   129.61077   319.97660
   322  H   1.0    0.09    1.03    1.43   192.19366   125.72499   321.39815
   323  H   1.0    0.12    1.04    1.43   190.05991   124.68129   323.59015
   324  H   1.0    0.09    1.07    1.44   195.65897   116.97185   334.79512
   325  H   1.0    0.06    1.05    1.44   213.89387   119.64579   298.08989
   326  H   1.0    0.10    1.08    1.44   215.42935   106.80356   306.41037
   327  H   1.0    0.07    1.05    1.44   207.65901   106.23498   298.05406
   328  H   1.0    0.10    1.07    1.44   193.25015   134.03882   302.67575
   329  H   1.0    0.06    1.04    1.43   195.20689   139.60494   305.63512
   330  H   1.0    0.10    1.07    1.44   188.21074   136.90275   310.20516
   331  H   1.0    0.07    1.04    1.44   192.28977   141.21810   316.92849
   332  H   1.0    0.11    1.07    1.44   187.18695   135.25056   321.19016
   333  H   1.0    0.08    1.04    1.44   191.56420   137.83885   325.22370

  Z AO/shell   Hii/eV     exponent
  1     Wed Apr 25 08:07:45 CEST 2018   EN: 2.200 GM2: 0.406  GM3: 0.0800  RAES: 1.40
     1s    -10.707211    1.230000
  6     Wed Apr 25 08:07:45 CEST 2018   EN: 2.550 GM2: 0.538  GM3: 0.1500  RAES: 3.00
     2s    -13.970922    2.096432
     2p    -10.063292    1.800000
  7     Wed Apr 25 08:07:45 CEST 2018   EN: 3.040 GM2: 0.461  GM3:-0.0640  RAES: 1.90
     2s    -16.686243    2.339881
     2p    -12.523956    2.014332
  8     Wed Apr 25 08:07:45 CEST 2018   EN: 3.440 GM2: 0.452  GM3:-0.0517  RAES: 1.80
     2s    -20.229985    2.439742
     2p    -15.503117    2.137023
 16     Tue Apr 24 11:44:34 CEST 2018   EN: 2.580 GM2: 0.340  GM3:-0.0502  RAES: 3.10
     3s    -20.029654    1.981333
     3p    -11.377694    2.025643
     3d     -0.420282    1.702555
 no old-style atom pair restraining (fixing) potential

molecular fragmentation (1/2 indicates fragments):
111111111111111111111111111111111111111111111111111111111111111111111111
111111111111111111111111111111111111111111111111111111111111111111111111
111111111111111111111111111111111111111111111111111111111111111111111111
111111111112222222222222222222222222222222222222222222222222222222222222
222222222222222222222222222222222221122222222
# atoms in fragment 1/2:   229   104
 fragment masses (1/2) :     1589.78      738.85
CMA distance (Bohr)    :   8.712
constraining FC (au)   :  0.0500
           ------------------------------------------------- 
          |        Self-Consistent Charge Iterations        |
           ------------------------------------------------- 

 Ncao       : 822
 Nao        : 821
 Nshell     : 495
 Nel        : 918
 T(el)      :   500.0
 intcut     :    35.0
 scfconv/Eh :  0.100E-06
   qconv/e  :  0.100E-04
 intneglect :  0.100E-08
 broydamp   :      0.400
 iter      E             dE          RMSdq      gap      omega  full diag
   1   -529.7926203 -0.529793E+03  0.482E+00    2.71       0.0  T
   2   -531.1042342 -0.131161E+01  0.223E+00    1.63       1.0  T
   3   -531.1831961 -0.789619E-01  0.124E+00    1.86       1.0  T
   4   -531.2682498 -0.850537E-01  0.263E-01    1.31       1.0  T
   5   -531.2725871 -0.433725E-02  0.122E-01    1.50       1.0  T
   6   -531.2732366 -0.649470E-03  0.452E-02    1.44       1.0  T
   7   -531.2733842 -0.147596E-03  0.215E-02    1.45       1.0  T
   8   -531.2734016 -0.174427E-04  0.885E-03    1.44       1.0  T
   9   -531.2734069 -0.531037E-05  0.385E-03    1.44       1.4  T
  10   -531.2734076 -0.633528E-06  0.169E-03    1.44       3.2  T
  11   -531.2734077 -0.164132E-06  0.853E-04    1.44       6.4  T
  12   -531.2734078 -0.347069E-07  0.352E-04    1.44      15.6  T
  13   -531.2734078 -0.488285E-08  0.183E-04    1.44      30.0  T
  14   -531.2734078 -0.146667E-08  0.669E-05    1.44      81.9  T
  15   -531.2734078 -0.192131E-09  0.289E-05    1.44     189.9  T
speedup 15.81
cpu  time for SCC   26.52 s
wall time for SCC    1.68 s

   *** convergence criteria satisfied after 15 iterations ***

          eigenvalues
 #    :         447        448        449        450        451        452        453        454
 occ. :        2.000      2.000      2.000      2.000      2.000      2.000      2.000      2.000
 eps  :       -10.749    -10.739    -10.721    -10.710    -10.660    -10.469    -10.285    -10.177
 #    :         455        456        457        458        459        460        461        462
 occ. :        2.000      2.000      2.000      2.000      2.000      0.000      0.000      0.000
 eps  :       -10.115     -9.915     -9.744     -9.579     -9.563     -8.126     -7.797     -7.688
 #    :         463        464        465        466        467        468        469        470
 occ. :        0.000      0.000      0.000      0.000      0.000      0.000      0.000      0.000
 eps  :        -7.681     -7.499     -7.053     -6.829     -6.669     -6.602     -6.523     -6.475


   #   Z            q   n(s)   n(p)   n(d)      C6AA      α(0)
   1   7 N     -0.399  1.311  4.088  0.000    30.344     8.181
   2   6 C      0.009  1.066  2.924  0.000    20.434     6.439
   3   6 C      0.257  1.053  2.690  0.000    22.670     7.797
   4   8 O     -0.480  1.739  4.741  0.000    23.354     6.479
   5   6 C     -0.083  1.060  3.023  0.000    22.088     6.691
   6   6 C     -0.083  1.052  3.031  0.000    22.079     6.690
   7   6 C     -0.094  1.054  3.040  0.000    22.292     6.722
   8   6 C     -0.050  1.058  2.992  0.000    21.572     6.630
   9   7 N     -0.140  1.226  3.914  0.000    24.024     7.280
  10   1 H      0.162  0.838  0.000  0.000     1.322     1.801
  11   1 H      0.067  0.933  0.000  0.000     2.120     2.277
  12   1 H      0.069  0.931  0.000  0.000     2.102     2.267
  13   1 H      0.046  0.954  0.000  0.000     2.373     2.409
  14   1 H      0.056  0.944  0.000  0.000     2.242     2.342
  15   1 H      0.063  0.937  0.000  0.000     2.165     2.301
  16   1 H      0.082  0.918  0.000  0.000     1.959     2.189
  17   1 H      0.078  0.922  0.000  0.000     2.000     2.212
  18   1 H      0.115  0.885  0.000  0.000     1.652     2.010
  19   1 H      0.117  0.883  0.000  0.000     1.636     2.000
  20   1 H      0.294  0.706  0.000  0.000     0.733     1.341
  21   1 H      0.294  0.706  0.000  0.000     0.731     1.339
  22   1 H      0.283  0.717  0.000  0.000     0.765     1.370
  23   7 N     -0.171  1.239  3.932  0.000    24.691     7.380
  24   6 C      0.005  1.065  2.930  0.000    20.498     6.447
  25   6 C      0.272  1.042  2.686  0.000    22.404     7.751
  26   8 O     -0.457  1.737  4.720  0.000    22.863     6.411
  27   6 C      0.066  1.041  2.893  0.000    19.680     6.355
  28   8 O     -0.478  1.720  4.758  0.000    22.419     6.392
  29   1 H      0.222  0.778  0.000  0.000     1.002     1.568
  30   1 H      0.107  0.893  0.000  0.000     1.722     2.052
  31   1 H      0.063  0.937  0.000  0.000     2.163     2.300
  32   1 H      0.050  0.950  0.000  0.000     2.320     2.382
  33   1 H      0.349  0.651  0.000  0.000     0.590     1.207
  34   7 N     -0.180  1.243  3.937  0.000    24.888     7.409
  35   6 C      0.010  1.065  2.925  0.000    20.418     6.434
  36   6 C      0.273  1.042  2.686  0.000    22.393     7.749
  37   8 O     -0.475  1.748  4.727  0.000    23.243     6.464
  38   6 C     -0.090  1.059  3.031  0.000    22.219     6.711
  39   6 C     -0.097  1.052  3.044  0.000    22.337     6.728
  40   6 C      0.292  1.036  2.672  0.000    22.055     7.689
  41   8 O     -0.532  1.771  4.761  0.000    24.494     6.636
  42   7 N     -0.282  1.262  4.020  0.000    27.287     7.758
  43   1 H      0.227  0.773  0.000  0.000     0.978     1.549
  44   1 H      0.086  0.914  0.000  0.000     1.917     2.165
  45   1 H      0.086  0.914  0.000  0.000     1.915     2.164
  46   1 H      0.084  0.916  0.000  0.000     1.943     2.180
  47   1 H      0.073  0.927  0.000  0.000     2.049     2.239
  48   1 H      0.074  0.926  0.000  0.000     2.042     2.235
  49   1 H      0.238  0.762  0.000  0.000     0.930     1.511
  50   1 H      0.226  0.774  0.000  0.000     0.981     1.551
  51   7 N     -0.177  1.244  3.934  0.000    24.843     7.403
  52   6 C      0.001  1.067  2.932  0.000    20.576     6.460
  53   6 C      0.269  1.040  2.691  0.000    22.451     7.759
  54   8 O     -0.511  1.756  4.755  0.000    24.031     6.572
  55   6 C      0.039  1.047  2.914  0.000    20.130     6.427
  56   8 O     -0.453  1.692  4.761  0.000    21.897     6.317
  57   1 H      0.223  0.777  0.000  0.000     0.996     1.563
  58   1 H      0.079  0.921  0.000  0.000     1.994     2.208
  59   1 H      0.088  0.912  0.000  0.000     1.901     2.156
  60   1 H      0.085  0.915  0.000  0.000     1.930     2.173
  61   1 H      0.325  0.675  0.000  0.000     0.649     1.266
  62   7 N     -0.177  1.249  3.928  0.000    24.839     7.402
  63   6 C      0.019  1.060  2.921  0.000    20.263     6.410
  64   6 C      0.267  1.046  2.687  0.000    22.485     7.765
  65   8 O     -0.486  1.740  4.746  0.000    23.487     6.498
  66   6 C     -0.146  1.044  3.101  0.000    23.369     6.893
  67   1 H      0.239  0.761  0.000  0.000     0.926     1.507
  68   1 H      0.079  0.921  0.000  0.000     1.991     2.207
  69   1 H      0.078  0.922  0.000  0.000     1.999     2.211
  70   1 H      0.085  0.915  0.000  0.000     1.924     2.169
  71   1 H      0.083  0.917  0.000  0.000     1.947     2.182
  72   7 N     -0.183  1.249  3.934  0.000    24.967     7.421
  73   6 C      0.020  1.064  2.916  0.000    20.245     6.406
  74   6 C      0.289  1.040  2.670  0.000    22.093     7.697
  75   8 O     -0.490  1.741  4.749  0.000    23.565     6.508
  76   6 C     -0.091  1.061  3.031  0.000    22.239     6.714
  77   6 C     -0.015  1.057  2.958  0.000    20.817     6.490
  78   6 C     -0.113  1.039  3.074  0.000    22.713     6.796
  79   6 C     -0.117  1.039  3.077  0.000    22.788     6.807
  80   1 H      0.231  0.769  0.000  0.000     0.963     1.537
  81   1 H      0.083  0.917  0.000  0.000     1.946     2.182
  82   1 H      0.059  0.941  0.000  0.000     2.207     2.323
  83   1 H      0.077  0.923  0.000  0.000     2.014     2.219
  84   1 H      0.041  0.959  0.000  0.000     2.431     2.438
  85   1 H      0.037  0.963  0.000  0.000     2.489     2.467
  86   1 H      0.036  0.964  0.000  0.000     2.501     2.473
  87   1 H      0.030  0.970  0.000  0.000     2.588     2.516
  88   1 H      0.035  0.965  0.000  0.000     2.513     2.479
  89   1 H      0.049  0.951  0.000  0.000     2.327     2.386
  90   1 H      0.046  0.954  0.000  0.000     2.375     2.410
  91   7 N     -0.180  1.243  3.936  0.000    24.895     7.410
  92   6 C     -0.015  1.046  2.968  0.000    20.902     6.521
  93   6 C      0.300  1.036  2.665  0.000    21.914     7.666
  94   8 O     -0.495  1.748  4.747  0.000    23.681     6.524
  95   1 H      0.228  0.772  0.000  0.000     0.973     1.545
  96   1 H      0.057  0.943  0.000  0.000     2.240     2.341
  97   1 H      0.079  0.921  0.000  0.000     1.985     2.203
  98   7 N     -0.192  1.259  3.933  0.000    25.167     7.451
  99   6 C      0.029  1.059  2.912  0.000    20.093     6.382
 100   6 C      0.275  1.044  2.681  0.000    22.357     7.743
 101   8 O     -0.504  1.732  4.773  0.000    23.882     6.552
 102   6 C      0.114  1.050  2.837  0.000    18.821     6.195
 103   8 O     -0.492  1.735  4.757  0.000    22.727     6.436
 104   6 C     -0.167  1.049  3.118  0.000    23.799     6.957
 105   1 H      0.224  0.776  0.000  0.000     0.990     1.559
 106   1 H      0.064  0.936  0.000  0.000     2.154     2.295
 107   1 H      0.026  0.974  0.000  0.000     2.645     2.543
 108   1 H      0.357  0.643  0.000  0.000     0.573     1.189
 109   1 H      0.080  0.920  0.000  0.000     1.984     2.202
 110   1 H      0.082  0.918  0.000  0.000     1.959     2.189
 111   1 H      0.070  0.930  0.000  0.000     2.086     2.259
 112   7 N     -0.174  1.246  3.927  0.000    24.763     7.391
 113   6 C      0.023  1.060  2.917  0.000    20.185     6.397
 114   6 C      0.269  1.046  2.686  0.000    22.466     7.762
 115   8 O     -0.489  1.730  4.760  0.000    23.552     6.507
 116   6 C     -0.140  1.044  3.097  0.000    23.257     6.876
 117   1 H      0.234  0.766  0.000  0.000     0.948     1.526
 118   1 H      0.086  0.914  0.000  0.000     1.921     2.168
 119   1 H      0.080  0.920  0.000  0.000     1.977     2.199
 120   1 H      0.091  0.909  0.000  0.000     1.868     2.137
 121   1 H      0.068  0.932  0.000  0.000     2.103     2.268
 122   7 N     -0.176  1.249  3.927  0.000    24.808     7.397
 123   6 C      0.031  1.060  2.909  0.000    20.052     6.375
 124   6 C      0.281  1.046  2.674  0.000    22.245     7.724
 125   8 O     -0.508  1.745  4.763  0.000    23.964     6.563
 126   6 C     -0.014  1.061  2.954  0.000    20.793     6.486
 127   6 C     -0.061  1.050  3.012  0.000    21.679     6.629
 128   6 C     -0.109  1.038  3.071  0.000    22.638     6.784
 129   6 C     -0.109  1.035  3.074  0.000    22.655     6.788
 130   1 H      0.231  0.769  0.000  0.000     0.959     1.534
 131   1 H      0.070  0.930  0.000  0.000     2.084     2.258
 132   1 H      0.033  0.967  0.000  0.000     2.549     2.497
 133   1 H      0.051  0.949  0.000  0.000     2.313     2.378
 134   1 H      0.036  0.964  0.000  0.000     2.506     2.475
 135   1 H      0.048  0.952  0.000  0.000     2.351     2.398
 136   1 H      0.019  0.981  0.000  0.000     2.745     2.591
 137   1 H      0.052  0.948  0.000  0.000     2.298     2.370
 138   1 H      0.050  0.950  0.000  0.000     2.321     2.382
 139   1 H      0.041  0.959  0.000  0.000     2.442     2.444
 140   1 H      0.044  0.956  0.000  0.000     2.395     2.420
 141   7 N     -0.192  1.259  3.933  0.000    25.170     7.451
 142   6 C      0.046  1.053  2.900  0.000    19.799     6.334
 143   6 C      0.277  1.045  2.678  0.000    22.314     7.736
 144   8 O     -0.515  1.742  4.772  0.000    24.109     6.583
 145   6 C     -0.062  1.054  3.008  0.000    21.688     6.630
 146   6 C     -0.095  1.069  3.027  0.000    22.317     6.727
 147   6 C      0.372  1.024  2.604  0.000    20.695     7.445
 148   8 O     -0.640  1.765  4.875  0.000    27.118     6.982
 149   8 O     -0.652  1.780  4.872  0.000    27.441     7.023
 150   1 H      0.217  0.783  0.000  0.000     1.026     1.586
 151   1 H      0.033  0.967  0.000  0.000     2.540     2.493
 152   1 H      0.070  0.930  0.000  0.000     2.091     2.261
 153   1 H      0.050  0.950  0.000  0.000     2.320     2.382
 154   1 H      0.034  0.966  0.000  0.000     2.536     2.490
 155   1 H      0.008  0.992  0.000  0.000     2.931     2.677
 156   7 N     -0.181  1.248  3.932  0.000    24.910     7.413
 157   6 C      0.019  1.062  2.919  0.000    20.254     6.408
 158   6 C      0.272  1.045  2.683  0.000    22.405     7.752
 159   8 O     -0.503  1.745  4.758  0.000    23.847     6.547
 160   6 C     -0.090  1.059  3.032  0.000    22.215     6.709
 161   6 C     -0.092  1.056  3.036  0.000    22.260     6.717
 162   6 C     -0.031  1.054  2.977  0.000    21.208     6.571
 163   7 N     -0.136  1.205  3.931  0.000    23.946     7.268
 164   6 C      0.227  1.020  2.753  0.000    23.223     7.890
 165   7 N     -0.228  1.221  4.007  0.000    25.986     7.571
 166   7 N     -0.246  1.229  4.017  0.000    26.403     7.631
 167   1 H      0.233  0.767  0.000  0.000     0.950     1.527
 168   1 H      0.078  0.922  0.000  0.000     2.000     2.211
 169   1 H      0.081  0.919  0.000  0.000     1.973     2.196
 170   1 H      0.072  0.928  0.000  0.000     2.059     2.244
 171   1 H      0.082  0.918  0.000  0.000     1.963     2.191
 172   1 H      0.071  0.929  0.000  0.000     2.075     2.252
 173   1 H      0.080  0.920  0.000  0.000     1.979     2.200
 174   1 H      0.098  0.902  0.000  0.000     1.800     2.098
 175   1 H      0.246  0.754  0.000  0.000     0.898     1.484
 176   1 H      0.229  0.771  0.000  0.000     0.970     1.543
 177   1 H      0.248  0.752  0.000  0.000     0.892     1.480
 178   1 H      0.249  0.751  0.000  0.000     0.886     1.475
 179   1 H      0.245  0.755  0.000  0.000     0.905     1.490
 180   7 N     -0.190  1.266  3.924  0.000    25.125     7.445
 181   6 C      0.028  1.062  2.909  0.000    20.093     6.381
 182   6 C      0.287  1.039  2.673  0.000    22.132     7.704
 183   8 O     -0.500  1.750  4.750  0.000    23.795     6.540
 184   6 C     -0.074  1.058  3.016  0.000    21.902     6.662
 185   6 C     -0.011  1.058  2.953  0.000    20.732     6.476
 186   6 C     -0.110  1.040  3.070  0.000    22.658     6.787
 187   6 C     -0.117  1.042  3.075  0.000    22.793     6.807
 188   1 H      0.243  0.757  0.000  0.000     0.912     1.496
 189   1 H      0.071  0.929  0.000  0.000     2.071     2.250
 190   1 H      0.054  0.946  0.000  0.000     2.266     2.354
 191   1 H      0.046  0.954  0.000  0.000     2.370     2.408
 192   1 H      0.049  0.951  0.000  0.000     2.335     2.390
 193   1 H      0.053  0.947  0.000  0.000     2.278     2.360
 194   1 H      0.036  0.964  0.000  0.000     2.501     2.473
 195   1 H      0.036  0.964  0.000  0.000     2.500     2.473
 196   1 H      0.054  0.946  0.000  0.000     2.270     2.356
 197   1 H      0.039  0.961  0.000  0.000     2.459     2.452
 198   1 H      0.034  0.966  0.000  0.000     2.537     2.491
 199   7 N     -0.193  1.245  3.948  0.000    25.194     7.455
 200   6 C      0.025  1.059  2.916  0.000    20.161     6.394
 201   6 C      0.287  1.040  2.672  0.000    22.129     7.703
 202   8 O     -0.482  1.745  4.736  0.000    23.385     6.484
 203   6 C      0.079  1.039  2.882  0.000    19.470     6.320
 204   8 O     -0.487  1.728  4.759  0.000    22.606     6.418
 205   1 H      0.216  0.784  0.000  0.000     1.030     1.590
 206   1 H      0.073  0.927  0.000  0.000     2.057     2.243
 207   1 H      0.038  0.962  0.000  0.000     2.475     2.460
 208   1 H      0.039  0.961  0.000  0.000     2.457     2.451
 209   1 H      0.355  0.645  0.000  0.000     0.576     1.193
 210   7 N     -0.191  1.247  3.944  0.000    25.142     7.447
 211   6 C      0.009  1.061  2.930  0.000    20.440     6.438
 212   6 C      0.270  1.042  2.689  0.000    22.445     7.759
 213   8 O     -0.506  1.747  4.759  0.000    23.916     6.557
 214   6 C      0.083  1.038  2.879  0.000    19.404     6.308
 215   8 O     -0.483  1.720  4.763  0.000    22.522     6.406
 216   1 H      0.221  0.779  0.000  0.000     1.003     1.569
 217   1 H      0.083  0.917  0.000  0.000     1.944     2.181
 218   1 H      0.050  0.950  0.000  0.000     2.315     2.380
 219   1 H      0.035  0.965  0.000  0.000     2.517     2.481
 220   1 H      0.342  0.658  0.000  0.000     0.607     1.224
 221   7 N     -0.155  1.233  3.922  0.000    24.354     7.329
 222   6 C     -0.032  1.052  2.980  0.000    21.215     6.570
 223   6 C      0.201  1.084  2.715  0.000    23.724     7.977
 224   8 O     -0.364  1.753  4.611  0.000    20.972     6.140
 225   1 H      0.231  0.769  0.000  0.000     0.962     1.536
 226   1 H      0.129  0.871  0.000  0.000     1.546     1.944
 227   1 H      0.112  0.888  0.000  0.000     1.678     2.026
 228   7 N     -0.401  1.324  4.077  0.000    30.395     8.188
 229   6 C      0.029  1.062  2.909  0.000    20.095     6.385
 230   6 C      0.278  1.042  2.680  0.000    22.297     7.732
 231   8 O     -0.513  1.756  4.757  0.000    24.072     6.578
 232   6 C     -0.121  1.067  3.054  0.000    22.811     6.799
 233   6 C      0.286  1.038  2.676  0.000    22.161     7.708
 234   8 O     -0.475  1.732  4.743  0.000    23.246     6.464
 235   7 N     -0.268  1.262  4.007  0.000    26.947     7.710
 236   1 H      0.163  0.837  0.000  0.000     1.313     1.795
 237   1 H      0.056  0.944  0.000  0.000     2.247     2.344
 238   1 H      0.091  0.909  0.000  0.000     1.868     2.138
 239   1 H      0.068  0.932  0.000  0.000     2.108     2.271
 240   1 H      0.244  0.756  0.000  0.000     0.909     1.493
 241   1 H      0.228  0.772  0.000  0.000     0.972     1.544
 242   7 N     -0.205  1.267  3.937  0.000    25.448     7.492
 243   6 C      0.003  1.067  2.930  0.000    20.546     6.455
 244   6 C      0.268  1.043  2.689  0.000    22.468     7.762
 245   8 O     -0.489  1.760  4.728  0.000    23.540     6.505
 246   6 C      0.060  1.043  2.897  0.000    19.788     6.373
 247   8 O     -0.450  1.699  4.752  0.000    21.852     6.310
 248   1 H      0.245  0.755  0.000  0.000     0.903     1.489
 249   1 H      0.071  0.929  0.000  0.000     2.079     2.255
 250   1 H      0.078  0.922  0.000  0.000     2.000     2.212
 251   1 H      0.047  0.953  0.000  0.000     2.361     2.403
 252   1 H      0.323  0.677  0.000  0.000     0.655     1.271
 253   7 N     -0.174  1.243  3.931  0.000    24.759     7.390
 254   6 C      0.024  1.059  2.918  0.000    20.185     6.399
 255   6 C      0.213  1.080  2.707  0.000    23.487     7.937
 256   8 O     -0.380  1.761  4.619  0.000    21.278     6.184
 257   6 C     -0.143  1.046  3.097  0.000    23.299     6.881
 258   1 H      0.234  0.766  0.000  0.000     0.948     1.526
 259   1 H      0.099  0.901  0.000  0.000     1.790     2.092
 260   1 H      0.081  0.919  0.000  0.000     1.965     2.192
 261   1 H      0.100  0.900  0.000  0.000     1.782     2.087
 262   1 H      0.078  0.922  0.000  0.000     2.000     2.212
 263   7 N     -0.387  1.310  4.077  0.000    30.010     8.136
 264   6 C      0.037  1.054  2.910  0.000    19.975     6.366
 265   6 C      0.191  1.101  2.708  0.000    23.908     8.008
 266   8 O     -0.368  1.742  4.626  0.000    21.046     6.151
 267   6 C     -0.062  1.053  3.009  0.000    21.652     6.619
 268   6 C     -0.008  1.061  2.947  0.000    20.724     6.482
 269  16 S     -0.223  1.913  4.259  0.051   150.566    20.652
 270   6 C     -0.066  1.054  3.011  0.000    21.832     6.665
 271   1 H      0.165  0.835  0.000  0.000     1.306     1.790
 272   1 H      0.078  0.922  0.000  0.000     1.997     2.210
 273   1 H      0.053  0.947  0.000  0.000     2.281     2.362
 274   1 H      0.050  0.950  0.000  0.000     2.318     2.381
 275   1 H      0.048  0.952  0.000  0.000     2.347     2.396
 276   1 H      0.048  0.952  0.000  0.000     2.348     2.396
 277   1 H      0.082  0.918  0.000  0.000     1.961     2.190
 278   1 H      0.063  0.937  0.000  0.000     2.161     2.299
 279   1 H      0.049  0.951  0.000  0.000     2.337     2.390
 280   7 N     -0.396  1.318  4.078  0.000    30.266     8.171
 281   6 C      0.034  1.056  2.910  0.000    20.010     6.372
 282   6 C      0.267  1.049  2.684  0.000    22.501     7.768
 283   8 O     -0.501  1.747  4.754  0.000    23.804     6.541
 284   6 C     -0.128  1.045  3.083  0.000    23.018     6.840
 285   1 H      0.163  0.837  0.000  0.000     1.319     1.799
 286   1 H      0.030  0.970  0.000  0.000     2.589     2.516
 287   1 H      0.057  0.943  0.000  0.000     2.232     2.336
 288   1 H      0.062  0.938  0.000  0.000     2.173     2.305
 289   1 H      0.063  0.937  0.000  0.000     2.168     2.302
 290   7 N     -0.166  1.244  3.922  0.000    24.595     7.366
 291   6 C      0.027  1.058  2.915  0.000    20.132     6.389
 292   6 C      0.205  1.083  2.712  0.000    23.654     7.965
 293   8 O     -0.362  1.759  4.604  0.000    20.941     6.135
 294   6 C     -0.069  1.055  3.014  0.000    21.822     6.650
 295   6 C     -0.106  1.061  3.045  0.000    22.510     6.753
 296   6 C      0.292  1.036  2.672  0.000    22.046     7.688
 297   8 O     -0.507  1.760  4.748  0.000    23.943     6.560
 298   7 N     -0.288  1.265  4.023  0.000    27.427     7.778
 299   1 H      0.238  0.762  0.000  0.000     0.931     1.511
 300   1 H      0.085  0.915  0.000  0.000     1.932     2.174
 301   1 H      0.077  0.923  0.000  0.000     2.006     2.215
 302   1 H      0.060  0.940  0.000  0.000     2.200     2.319
 303   1 H      0.069  0.931  0.000  0.000     2.095     2.263
 304   1 H      0.086  0.914  0.000  0.000     1.916     2.165
 305   1 H      0.226  0.774  0.000  0.000     0.984     1.554
 306   1 H      0.220  0.780  0.000  0.000     1.009     1.573
 307   7 N     -0.405  1.318  4.087  0.000    30.510     8.203
 308   6 C      0.040  1.053  2.907  0.000    19.917     6.357
 309   6 C      0.200  1.095  2.705  0.000    23.735     7.979
 310   8 O     -0.394  1.757  4.637  0.000    21.563     6.226
 311   6 C     -0.051  1.053  2.998  0.000    21.480     6.598
 312   6 C     -0.096  1.058  3.038  0.000    22.318     6.725
 313   6 C      0.288  1.038  2.674  0.000    22.114     7.700
 314   8 O     -0.508  1.756  4.752  0.000    23.968     6.564
 315   7 N     -0.275  1.260  4.015  0.000    27.122     7.735
 316   1 H      0.183  0.817  0.000  0.000     1.197     1.714
 317   1 H      0.070  0.930  0.000  0.000     2.082     2.256
 318   1 H      0.062  0.938  0.000  0.000     2.179     2.309
 319   1 H      0.035  0.965  0.000  0.000     2.510     2.478
 320   1 H      0.075  0.925  0.000  0.000     2.036     2.232
 321   1 H      0.061  0.939  0.000  0.000     2.184     2.311
 322   1 H      0.216  0.784  0.000  0.000     1.027     1.587
 323   1 H      0.228  0.772  0.000  0.000     0.972     1.544
 324   1 H      0.190  0.810  0.000  0.000     1.156     1.684
 325   1 H      0.099  0.901  0.000  0.000     1.794     2.094
 326   1 H      0.185  0.815  0.000  0.000     1.187     1.706
 327   1 H      0.066  0.934  0.000  0.000     2.129     2.281
 328   1 H      0.188  0.812  0.000  0.000     1.170     1.695
 329   1 H      0.086  0.914  0.000  0.000     1.913     2.163
 330   1 H      0.177  0.823  0.000  0.000     1.231     1.738
 331   1 H      0.074  0.926  0.000  0.000     2.039     2.233
 332   1 H      0.175  0.825  0.000  0.000     1.241     1.745
 333   1 H      0.069  0.931  0.000  0.000     2.098     2.265

 Mol. C6AA /au·bohr⁶  :    1003826.406636
 Mol. C8AA /au·bohr⁸  :   22280093.841174
 Mol. α(0) /au        :       1491.042425

 
molecular dipole:
                 x           y           z       tot (Debye)
 q only:      176.495      98.507     331.548
   full:      176.230      97.974     333.691     990.994
molecular quadrupole (traceless):
                xx          xy          yy          xz          yz          zz
 q only:   -29347.727   25043.831  -61061.622   88513.470   49087.210   90409.349
  q+dip:   -30052.027   24846.350  -61839.897   89064.735   49197.640   91891.924
   full:   -30047.349   24843.102  -61840.432   89065.479   49199.604   91887.782
speedup 15.80
cpu  time for grad   29.24 s
wall time for grad    1.85 s

SCC energy    :    -531.2864339
rep           :       5.9876262
ES            :       1.8398087
AES           :      -0.0886162
AXC           :       0.1494950
disp          :      -0.4292716
XB            :       0.0000000
fix           :       0.0000000
Gborn         :       0.0000000
Gsasa         :       0.0000000
Ghb           :       0.0000000
Gshift        :       0.0000000
Gsolv         :      -0.5080083     -318.78
Etot ala COSMO:    -531.2864339
grad norm     :       0.4984851
total E       :    -525.2645542
atomizationE  :      91.6364893    57502.77
(atE without considering molecular charge,
 total energy contains solvation terms)
H-L gap (eV)  :          1.4368

------------------------------------------------------------------------
 * finished run on 2019/02/13 at 00:17:43.581     
------------------------------------------------------------------------
 total:
 * wall-time:     0 d,  0 h,  0 min,  2.095 sec
 *  cpu-time:     0 d,  0 h,  0 min, 32.598 sec
 * ratio c/w:    15.563 speedup
 SCF:
 * wall-time:     0 d,  0 h,  0 min,  1.970 sec
 *  cpu-time:     0 d,  0 h,  0 min, 31.157 sec
 * ratio c/w:    15.812 speedup

