      -----------------------------------------------------------      
     |                   =====================                   |     
     |                           x T B                           |     
     |                   =====================                   |     
     |                         S. Grimme                         |     
     |          Mulliken Center for Theoretical Chemistry        |     
     |                    University of Bonn                     |     
     |                 Version 6.0.1 (SAW181210)                 |     
      -----------------------------------------------------------      

   This program is distributed in the hope that it will be useful,
   but WITHOUT ANY WARRANTY; without even the implied warranty of
   MERCHANTABILITY or FITNESS FOR A PARTICULAR PURPOSE.
   
   FOR NON-COMMERCIAL, ACADEMIA USE ONLY.
   
   Cite this work as:
   S. Grimme, C. Bannwarth, P. Shushkov, J. Comput. Theory Chem., 2017,
   13, 1989-2009.
   C. Bannwarth, S. Ehlert and S. Grimme., ChemRxiv, 2018, preprint.
   http://doi.org/10.26434/chemrxiv.7246238.v1
   
   for sTDA-xTB:
   S. Grimme and C. Bannwarth, J. Chem. Phys., 2016, 145, 054103.
   
   in the mass-spec context:
   V. Asgeirsson, C. Bauer and S. Grimme, Chem. Sci., 2017, 8, 4879.
   
   if GBSA is used:
   P. Shushkov, F. März and S. Grimme, unpublished.
   
   for ANC optimizer:
   S. Grimme, unpublished.
   Rational Function algorithm used in ANCopt:
   F. Eckert, P. Pulay, H.-J. Werner, J. Comput. Chem., 1997, 18, 1473.
   
   with help from (in alphabetical order)
   C. Bannwarth, F. Bohle, G. Brandenburg, E. Caldeweyher, M. Checinski,
   S. Dohm, S. Ehlert, S. Ehrlich, F. März, H. Neugebauer, J. Pisarek,
   P. Pracht, P. Shushkov, and S. Spicher.
   
 * started run on 2019/02/13 at 00:18:03.595     
========================================================================
 # omp threads = 16
========================================================================
number of atoms            : 412
number of electrons        : 1146
charge                     : -3
spin                       : .0
first test random number   : .6037

########################################################################
# WARNING! Please study the warnings concerning your input carefully
#  - Process number higher than OMP_NUM_THREADS, I hope you know what you are doing.
########################################################################

           ------------------------------------------------- 
          |                 G F N 2 - x T B                 |
          | Geometry, Frequencies, Noncovalent interactions |
          |            JCTC 2018 parametrisation            |
           ------------------------------------------------- 
 
      method parameters     
 k(s)        :  1.8500
 k(p)        :  2.2300
 k(d)        :  2.2300
 k(f)        :  2.0000
 kEN (H0ij)  : -2.0000
 D4 a1       :  0.5200
 D4 a2       :  5.0000
 D4 s6       :  1.0000
 D4 s8       :  2.7000
 D4 s9       :  5.0000
 alphaj      :  2.0000

 Solvent             : h2o
 Using internal parameter file: .param_gbsa2_h2o
 Gsolv ref. state (COSMO-RS): gsolv [1 M gas/solution]
 temperature (mdtemp)       :    298.150000000000     
 dielectric constant        :    80.2000000000000     
 rho                        :    1.00000000000000     
 mass                       :    18.0000000000000     
 surface tension            :    15.5689454083859     
 probe radius               :   0.975313790000000     
 vdW radii scaling          :    1.00000000000000     
 Gshift (Eh)                :   1.857443126794793E-003
 c1                         :    1.55243817000000     
 soset                      :   0.130326360000000     
 HB correction              :  T

            Z     q(EN)     CN     RAES       Cart. coordinates
     1  N   5.0   -0.23    3.25    1.97   282.14554   139.28560   193.55199
     2  C   4.0    0.02    4.32    4.24   284.27580   140.64504   192.49139
     3  C   4.0    0.14    3.45    3.10   285.79018   138.83361   190.81620
     4  O   6.0   -0.32    1.26    1.80   286.60791   139.44350   188.73428
     5  C   4.0   -0.06    4.28    4.16   285.94167   141.66198   194.62097
     6  C   4.0   -0.05    4.18    3.97   287.85594   143.60662   193.67783
     7  C   4.0   -0.02    4.21    4.02   286.63113   146.21313   193.47309
     8  N   5.0   -0.15    3.40    2.02   288.44912   148.06566   192.60502
     9  C   4.0    0.08    3.33    3.06   288.08725   149.83257   190.85370
    10  N   5.0   -0.20    3.23    1.96   285.94694   150.03194   189.57356
    11  N   5.0   -0.20    3.24    1.97   289.95252   151.50214   190.44715
    12  H   1.0    0.06    1.02    1.43   281.95262   139.22553   195.45555
    13  H   1.0    0.03    1.05    1.44   283.59405   142.18615   191.27821
    14  H   1.0    0.03    1.03    1.43   284.72308   142.52621   196.04446
    15  H   1.0    0.03    1.03    1.43   286.89309   140.05754   195.49574
    16  H   1.0    0.04    1.03    1.43   289.44574   143.71584   194.98374
    17  H   1.0    0.05    1.03    1.43   288.56674   143.03363   191.82985
    18  H   1.0    0.03    1.03    1.43   285.04903   146.13019   192.16538
    19  H   1.0    0.03    1.02    1.43   285.92151   146.78631   195.33142
    20  H   1.0    0.08    1.07    1.44   290.11639   148.04920   193.54405
    21  H   1.0    0.06    1.01    1.43   284.65557   148.55566   189.42725
    22  H   1.0    0.06    1.04    1.43   285.83256   151.31004   188.16974
    23  H   1.0    0.08    1.03    1.43   291.50787   151.50096   191.53705
    24  H   1.0    0.07    1.03    1.43   289.73513   152.90704   189.18717
    25  N   5.0   -0.15    3.49    2.07   286.15499   136.53863   191.79787
    26  C   4.0    0.03    4.42    4.42   287.54145   134.64325   190.38987
    27  C   4.0    0.08    3.29    3.05   286.30568   134.28943   187.79936
    28  O   6.0   -0.31    1.13    1.80   287.60126   134.23627   185.87297
    29  C   4.0   -0.03    4.25    4.09   287.79948   132.15932   191.86403
    30  C   4.0   -0.08    4.14    3.88   289.03819   130.15889   190.19800
    31  C   4.0   -0.09    4.11    3.83   289.39999   132.55959   194.23581
    32  H   1.0    0.07    1.07    1.44   285.63064   136.16753   193.60368
    33  H   1.0    0.05    1.06    1.44   289.44371   135.37185   189.97962
    34  H   1.0    0.03    1.05    1.44   285.89828   131.54280   192.38599
    35  H   1.0    0.03    1.00    1.43   289.26244   128.41347   191.25170
    36  H   1.0    0.04    1.01    1.43   287.90915   129.79406   188.52852
    37  H   1.0    0.04    1.00    1.43   290.89484   130.79608   189.59096
    38  H   1.0    0.03    1.00    1.43   289.59108   130.78815   195.25706
    39  H   1.0    0.03    1.00    1.43   291.28428   133.20253   193.72412
    40  H   1.0    0.03    1.00    1.43   288.56882   133.94880   195.49632
    41  N   5.0   -0.20    3.23    1.96   288.66416   139.07678   183.36000
    42  C   4.0    0.03    4.23    4.06   291.32320   138.76197   182.77389
    43  C   4.0    0.07    3.20    3.04   291.64498   136.73373   180.73834
    44  O   6.0   -0.32    1.11    1.80   292.99569   137.08769   178.88136
    45  C   4.0   -0.05    4.34    4.28   292.76618   138.10965   185.18723
    46  C   4.0   -0.02    4.19    3.98   292.77478   140.33260   187.05348
    47  C   4.0   -0.08    4.11    3.81   293.41763   139.42307   189.71229
    48  C   4.0   -0.08    4.10    3.81   294.65607   142.36441   186.24222
    49  H   1.0    0.12    1.05    1.44   288.08514   138.70262   185.15056
    50  H   1.0    0.04    1.05    1.44   292.05805   140.51745   181.95023
    51  H   1.0    0.05    1.03    1.43   291.85101   136.46991   186.03788
    52  H   1.0    0.04    1.03    1.43   294.70456   137.59912   184.71106
    53  H   1.0    0.05    1.06    1.44   290.87874   141.15877   187.09608
    54  H   1.0    0.04    1.00    1.43   293.19400   140.96503   191.04757
    55  H   1.0    0.04    1.00    1.43   292.17115   137.89578   190.27948
    56  H   1.0    0.04    1.00    1.43   295.36081   138.76175   189.78874
    57  H   1.0    0.04    1.00    1.43   294.49741   144.01687   187.45154
    58  H   1.0    0.04    1.00    1.43   296.58051   141.65213   186.39365
    59  H   1.0    0.03    1.00    1.43   294.34547   142.96689   184.30158
    60  N   5.0   -0.22    3.23    1.96   316.31001   139.30642   168.74530
    61  C   4.0    0.02    4.33    4.26   316.71481   137.70235   170.93319
    62  C   4.0    0.15    3.40    3.08   316.64434   139.20880   173.40752
    63  O   6.0   -0.30    1.29    1.80   315.60691   138.33033   175.27182
    64  C   4.0   -0.04    4.25    4.11   319.10597   136.12159   170.64533
    65  C   4.0   -0.04    4.25    4.09   318.58079   133.98961   168.76353
    66  C   4.0    0.14    3.22    3.04   320.95044   132.53648   168.08570
    67  O   6.0   -0.32    1.20    1.80   322.25479   133.13367   166.27051
    68  N   5.0   -0.20    3.18    1.95   321.50123   130.57251   169.55509
    69  H   1.0    0.08    1.03    1.43   317.61188   139.30755   167.35508
    70  H   1.0    0.04    1.06    1.44   315.08423   136.42087   171.09308
    71  H   1.0    0.05    1.02    1.43   320.67219   137.30241   170.00030
    72  H   1.0    0.05    1.03    1.43   319.63057   135.34477   172.48315
    73  H   1.0    0.03    1.03    1.43   317.18265   132.70898   169.56412
    74  H   1.0    0.04    1.03    1.43   317.82258   134.77151   167.01388
    75  H   1.0    0.08    1.02    1.43   320.56926   130.18993   171.17837
    76  H   1.0    0.08    1.03    1.43   322.92531   129.40313   169.05009
    77  N   5.0   -0.13    3.52    2.09   317.72738   141.48688   173.33425
    78  C   4.0    0.04    4.39    4.36   317.57852   143.27031   175.40487
    79  C   4.0    0.16    3.47    3.10   314.82266   143.76003   176.16334
    80  O   6.0   -0.31    1.28    1.80   314.13331   143.68387   178.37475
    81  C   4.0    0.02    4.17    3.94   318.80961   145.74347   174.53634
    82  O   6.0   -0.26    2.10    1.84   317.90131   146.28569   172.08040
    83  H   1.0    0.09    1.09    1.44   318.47443   142.13992   171.70421
    84  H   1.0    0.06    1.05    1.44   318.53777   142.48001   177.06739
    85  H   1.0    0.04    1.01    1.43   318.32045   147.23550   175.87931
    86  H   1.0    0.03    1.01    1.43   320.86782   145.50164   174.49402
    87  H   1.0    0.11    1.02    1.43   318.20738   148.03681   171.68559
    88  N   5.0   -0.14    3.52    2.09   313.25728   144.30274   174.26296
    89  C   4.0    0.04    4.44    4.45   310.59872   144.79171   174.71732
    90  C   4.0    0.16    3.50    3.12   309.44515   142.59747   176.17435
    91  O   6.0   -0.32    1.27    1.80   308.09423   142.91799   178.03654
    92  C   4.0   -0.04    4.29    4.18   309.20846   145.07599   172.22378
    93  C   4.0    0.24    3.10    3.02   309.87773   147.59047   170.82368
    94  O   6.0   -0.31    1.18    1.80   310.34102   149.47521   172.13495
    95  O   6.0   -0.31    1.16    1.80   309.85161   147.47155   168.46691
    96  H   1.0    0.09    1.07    1.44   313.94243   144.66895   172.51940
    97  H   1.0    0.06    1.05    1.44   310.37645   146.52649   175.83958
    98  H   1.0    0.04    1.03    1.43   309.65085   143.48662   170.99333
    99  H   1.0    0.04    1.03    1.43   307.16809   145.10482   172.54628
   100  N   5.0   -0.14    3.53    2.10   309.91948   140.32409   175.20234
   101  C   4.0    0.03    4.43    4.44   308.89006   138.06448   176.34179
   102  C   4.0    0.16    3.48    3.11   309.81750   137.80253   179.06496
   103  O   6.0   -0.32    1.29    1.80   308.37002   137.13587   180.75277
   104  C   4.0   -0.05    4.36    4.31   309.58493   135.71304   174.82819
   105  C   4.0   -0.02    4.18    3.95   308.42212   135.60922   172.17211
   106  C   4.0   -0.08    4.11    3.82   309.37429   133.23415   170.83683
   107  C   4.0   -0.08    4.11    3.82   305.54086   135.54128   172.30459
   108  H   1.0    0.08    1.07    1.44   311.02558   140.15445   173.65262
   109  H   1.0    0.05    1.06    1.44   306.82913   138.26735   176.46890
   110  H   1.0    0.05    1.03    1.43   311.64613   135.63903   174.70753
   111  H   1.0    0.06    1.04    1.43   308.92421   134.06162   175.87546
   112  H   1.0    0.03    1.05    1.44   309.02835   137.27235   171.09542
   113  H   1.0    0.03    1.00    1.43   308.64768   133.16691   168.91829
   114  H   1.0    0.04    1.00    1.43   311.42832   133.21914   170.74604
   115  H   1.0    0.05    1.00    1.43   308.73011   131.58199   171.87486
   116  H   1.0    0.03    1.00    1.43   304.74659   135.20205   170.44190
   117  H   1.0    0.05    1.00    1.43   304.96354   134.02046   173.55967
   118  H   1.0    0.03    1.00    1.43   304.78543   137.32227   172.99879
   119  N   5.0   -0.13    3.53    2.10   312.24300   138.33983   179.46856
   120  C   4.0    0.04    4.44    4.44   313.29987   138.19441   181.98662
   121  C   4.0    0.16    3.50    3.11   311.74984   139.82129   183.78513
   122  O   6.0   -0.32    1.29    1.80   311.17800   139.09299   185.91290
   123  C   4.0   -0.03    4.27    4.15   316.02882   139.10115   182.00283
   124  C   4.0    0.26    3.10    3.02   317.84515   137.40339   180.38756
   125  O   6.0   -0.31    1.26    1.80   317.38158   135.09008   180.31409
   126  O   6.0   -0.29    1.17    1.80   319.63212   138.51386   179.35979
   127  H   1.0    0.12    1.11    1.44   313.46946   138.61055   178.01989
   128  H   1.0    0.06    1.05    1.44   313.21462   136.23780   182.68467
   129  H   1.0    0.07    1.03    1.43   316.14415   141.02347   181.27215
   130  H   1.0    0.05    1.03    1.43   316.75588   139.07261   183.93511
   131  N   5.0   -0.14    3.51    2.09   311.12881   142.10206   182.91066
   132  C   4.0    0.04    4.40    4.38   309.65059   143.85207   184.40350
   133  C   4.0    0.17    3.50    3.12   307.06187   142.71656   185.05254
   134  O   6.0   -0.30    1.29    1.80   306.25868   142.66260   187.22431
   135  C   4.0    0.03    4.16    3.93   309.32688   146.33672   182.96132
   136  O   6.0   -0.26    2.06    1.83   307.88259   147.98734   184.45613
   137  H   1.0    0.11    1.09    1.44   311.74873   142.65000   181.18451
   138  H   1.0    0.05    1.05    1.44   310.60522   144.22204   186.20952
   139  H   1.0    0.04    1.01    1.43   311.21081   147.12060   182.57760
   140  H   1.0    0.06    1.02    1.43   308.39539   145.94665   181.15015
   141  H   1.0    0.11    1.02    1.43   307.69319   149.56259   183.55333
   142  N   5.0   -0.14    3.53    2.10   305.76932   141.80446   183.09287
   143  C   4.0    0.03    4.53    4.57   303.25857   140.78421   183.49421
   144  C   4.0    0.16    3.53    3.13   303.42588   138.79478   185.59458
   145  O   6.0   -0.32    1.25    1.80   301.86821   138.63549   187.29665
   146  C   4.0   -0.03    4.33    4.25   302.12349   139.66358   181.06626
   147  C   4.0   -0.05    4.19    3.98   301.85262   141.72637   179.04578
   148  C   4.0   -0.08    4.14    3.89   299.57011   138.45873   181.66659
   149  C   4.0   -0.08    4.02    3.65   300.78996   140.72865   176.55659
   150  H   1.0    0.11    1.09    1.44   306.49887   141.93717   181.33075
   151  H   1.0    0.05    1.05    1.44   302.01943   142.29627   184.20115
   152  H   1.0    0.05    1.05    1.44   303.42088   138.21106   180.36794
   153  H   1.0    0.04    1.03    1.43   300.62763   143.22898   179.75343
   154  H   1.0    0.06    1.03    1.43   303.69430   142.56865   178.66345
   155  H   1.0    0.04    1.00    1.43   298.79233   137.55679   179.99684
   156  H   1.0    0.05    1.01    1.43   299.76857   137.04854   183.14512
   157  H   1.0    0.04    1.00    1.43   298.25307   139.90226   182.29996
   158  H   1.0    0.03    1.00    1.43   301.08045   142.11631   175.06664
   159  H   1.0    0.04    1.00    1.43   301.75520   138.99751   176.00801
   160  H   1.0    0.04    1.00    1.43   298.77781   140.34570   176.70148
   161  N   5.0   -0.14    3.53    2.10   305.36616   137.20252   185.32730
   162  C   4.0    0.04    4.45    4.45   305.85160   135.18642   187.09990
   163  C   4.0    0.16    3.53    3.13   306.29322   136.20188   189.75031
   164  O   6.0   -0.33    1.40    1.80   305.26637   135.19087   191.58735
   165  C   4.0   -0.03    4.31    4.21   308.15493   133.63794   186.29243
   166  C   4.0   -0.03    4.24    4.08   308.62430   131.43414   188.10268
   167  C   4.0    0.15    3.24    3.04   306.45228   129.56019   188.01848
   168  O   6.0   -0.33    1.29    1.80   305.25336   129.20060   186.06100
   169  N   5.0   -0.19    3.18    1.95   305.97181   128.28830   190.13561
   170  H   1.0    0.11    1.11    1.45   306.54575   137.36448   183.82898
   171  H   1.0    0.06    1.06    1.44   304.18220   133.95252   187.19612
   172  H   1.0    0.06    1.03    1.43   307.80160   132.91694   184.39233
   173  H   1.0    0.06    1.03    1.43   309.80417   134.87205   186.21466
   174  H   1.0    0.06    1.03    1.43   310.32997   130.42880   187.51336
   175  H   1.0    0.05    1.03    1.43   308.92796   132.09884   190.02670
   176  H   1.0    0.09    1.03    1.43   306.84101   128.71967   191.77455
   177  H   1.0    0.12    1.05    1.44   304.60681   126.92701   190.14632
   178  N   5.0   -0.13    3.53    2.10   307.85800   138.13249   189.99366
   179  C   4.0    0.04    4.36    4.31   308.40441   139.19501   192.46201
   180  C   4.0    0.16    3.49    3.11   305.92061   139.68060   193.87062
   181  O   6.0   -0.32    1.26    1.80   305.62223   139.04927   196.08330
   182  C   4.0   -0.07    4.11    3.83   309.89761   141.63495   192.16274
   183  H   1.0    0.12    1.11    1.44   308.80601   138.82827   188.47760
   184  H   1.0    0.05    1.05    1.44   309.48504   137.81938   193.58324
   185  H   1.0    0.04    1.00    1.43   310.26661   142.46718   194.00162
   186  H   1.0    0.05    1.00    1.43   311.68398   141.22853   191.23179
   187  H   1.0    0.06    1.00    1.43   308.83595   142.95917   191.00391
   188  N   5.0   -0.14    3.51    2.09   304.17020   140.88606   192.52897
   189  C   4.0    0.04    4.43    4.44   301.73750   141.54730   193.60310
   190  C   4.0    0.16    3.50    3.11   300.25823   139.17010   194.32507
   191  O   6.0   -0.31    1.30    1.80   299.30792   138.93654   196.43021
   192  C   4.0   -0.04    4.26    4.12   300.29255   143.21280   191.74403
   193  C   4.0   -0.03    4.20    4.00   297.61531   143.76488   192.63276
   194  C   4.0    0.25    3.11    3.02   297.32559   145.22324   195.15065
   195  O   6.0   -0.33    1.30    1.80   295.05788   145.70098   195.70974
   196  O   6.0   -0.30    1.18    1.80   299.18743   145.80001   196.43750
   197  H   1.0    0.11    1.08    1.44   304.52847   141.37079   190.71176
   198  H   1.0    0.07    1.06    1.44   302.03351   142.59734   195.36847
   199  H   1.0    0.05    1.03    1.43   301.34537   144.97261   191.51506
   200  H   1.0    0.05    1.03    1.43   300.23250   142.24619   189.91886
   201  H   1.0    0.04    1.03    1.43   296.62162   144.84323   191.18475
   202  H   1.0    0.05    1.04    1.43   296.60916   141.98719   192.90656
   203  N   5.0   -0.14    3.50    2.08   300.03303   137.39864   192.54344
   204  C   4.0    0.03    4.51    4.56   298.80589   135.00679   193.11885
   205  C   4.0    0.16    3.56    3.14   299.81768   133.97504   195.62614
   206  O   6.0   -0.32    1.28    1.80   298.43805   133.15430   197.29042
   207  C   4.0   -0.02    4.34    4.27   299.23871   133.03221   191.02135
   208  C   4.0   -0.05    4.18    3.96   297.90086   133.83449   188.57735
   209  C   4.0   -0.07    4.15    3.90   298.33213   130.43563   191.90286
   210  C   4.0   -0.08    4.02    3.65   298.35364   132.00606   186.39439
   211  H   1.0    0.11    1.08    1.44   300.86605   137.62830   190.83347
   212  H   1.0    0.04    1.05    1.44   296.77203   135.33471   193.37499
   213  H   1.0    0.06    1.06    1.44   301.27628   132.94161   190.66920
   214  H   1.0    0.03    1.03    1.43   295.87384   133.97623   188.92518
   215  H   1.0    0.05    1.03    1.43   298.58988   135.69651   188.02052
   216  H   1.0    0.04    1.00    1.43   298.79644   129.01470   190.49956
   217  H   1.0    0.05    1.01    1.43   299.24494   129.89111   193.65875
   218  H   1.0    0.03    1.00    1.43   296.30058   130.45702   192.20395
   219  H   1.0    0.04    1.00    1.43   297.65554   132.81538   184.63944
   220  H   1.0    0.05    1.00    1.43   300.36214   131.62201   186.16611
   221  H   1.0    0.04    1.00    1.43   297.38936   130.22198   186.70251
   222  N   5.0   -0.14    3.56    2.12   302.33274   133.92989   195.76505
   223  C   4.0    0.04    4.47    4.49   303.65076   132.79745   197.87102
   224  C   4.0    0.16    3.50    3.12   302.89091   134.11934   200.31705
   225  O   6.0   -0.30    1.31    1.80   302.27302   132.93101   202.20597
   226  C   4.0    0.05    4.23    4.06   306.53483   132.89384   197.44087
   227  O   6.0   -0.26    2.13    1.84   307.17526   131.78338   195.09843
   228  C   4.0   -0.07    4.09    3.78   307.90844   131.44097   199.51273
   229  H   1.0    0.12    1.13    1.45   303.35164   134.70249   194.34754
   230  H   1.0    0.05    1.05    1.44   303.06656   130.81207   198.04999
   231  H   1.0    0.05    1.04    1.43   307.11128   134.89222   197.45347
   232  H   1.0    0.15    1.07    1.44   306.54960   132.86700   193.75476
   233  H   1.0    0.04    1.00    1.43   309.92773   131.77324   199.37249
   234  H   1.0    0.06    1.00    1.43   307.23047   132.01058   201.36296
   235  H   1.0    0.05    1.00    1.43   307.55696   129.43226   199.27454
   236  N   5.0   -0.14    3.51    2.08   302.90095   136.64084   200.24099
   237  C   4.0    0.04    4.44    4.45   302.06475   138.06648   202.42527
   238  C   4.0    0.17    3.52    3.12   299.47671   137.08542   203.29824
   239  O   6.0   -0.31    1.28    1.80   299.04949   136.62881   205.53134
   240  C   4.0   -0.04    4.27    4.14   301.91360   140.89298   201.83504
   241  C   4.0   -0.04    4.23    4.07   301.34565   142.39471   204.25166
   242  C   4.0    0.15    3.22    3.04   300.40965   145.04433   203.67858
   243  O   6.0   -0.32    1.25    1.80   298.27322   145.73640   204.22527
   244  N   5.0   -0.19    3.19    1.95   302.10058   146.58590   202.60792
   245  H   1.0    0.11    1.09    1.44   303.51652   137.58849   198.69181
   246  H   1.0    0.05    1.05    1.44   303.38231   137.74127   203.99801
   247  H   1.0    0.05    1.02    1.43   303.71167   141.47345   201.00854
   248  H   1.0    0.07    1.03    1.43   300.44518   141.20925   200.42009
   249  H   1.0    0.06    1.04    1.43   299.88618   141.42741   205.34165
   250  H   1.0    0.03    1.03    1.43   303.04024   142.51167   205.41913
   251  H   1.0    0.08    1.03    1.43   303.77088   145.92301   201.99180
   252  H   1.0    0.09    1.03    1.43   301.52581   148.28967   201.97533
   253  N   5.0   -0.13    3.52    2.09   297.74415   136.90619   201.48207
   254  C   4.0    0.04    4.42    4.42   295.17556   136.12393   202.03613
   255  C   4.0    0.16    3.48    3.11   295.20412   133.63341   203.51826
   256  O   6.0   -0.30    1.23    1.80   293.91531   133.32719   205.42129
   257  C   4.0   -0.05    4.27    4.14   293.66637   135.76276   199.59276
   258  C   4.0   -0.05    4.16    3.93   293.25706   138.20772   198.10488
   259  C   4.0   -0.02    4.19    3.97   291.32423   139.99045   199.34757
   260  N   5.0   -0.14    3.41    2.02   292.18111   142.58904   199.32770
   261  C   4.0    0.10    3.36    3.07   293.27908   143.81885   201.23937
   262  N   5.0   -0.19    3.24    1.97   293.19190   142.98458   203.61064
   263  N   5.0   -0.18    3.28    1.98   294.33928   146.03461   200.72092
   264  H   1.0    0.11    1.09    1.44   298.18440   137.34567   199.66827
   265  H   1.0    0.05    1.05    1.44   294.27902   137.52649   203.27381
   266  H   1.0    0.06    1.04    1.43   294.69137   134.41973   198.41532
   267  H   1.0    0.04    1.03    1.43   291.83876   134.94580   200.07759
   268  H   1.0    0.07    1.03    1.43   295.05240   139.19815   197.89788
   269  H   1.0    0.04    1.03    1.43   292.60526   137.70964   196.21588
   270  H   1.0    0.03    1.03    1.43   289.53359   139.90830   198.32910
   271  H   1.0    0.04    1.03    1.43   290.95900   139.40626   201.28420
   272  H   1.0    0.10    1.10    1.44   292.63227   143.31839   197.60481
   273  H   1.0    0.08    1.03    1.43   292.09030   141.52812   204.16548
   274  H   1.0    0.10    1.04    1.43   294.11315   143.98629   204.94127
   275  H   1.0    0.13    1.11    1.45   294.77422   146.33876   198.82853
   276  H   1.0    0.11    1.06    1.44   295.48456   146.78871   202.05289
   277  N   5.0   -0.14    3.52    2.09   296.62342   131.82940   202.47887
   278  C   4.0    0.03    4.42    4.42   296.75721   129.30649   203.53269
   279  C   4.0    0.16    3.49    3.11   297.66447   129.44284   206.27475
   280  O   6.0   -0.29    1.24    1.80   296.56177   128.44525   208.04800
   281  C   4.0   -0.05    4.36    4.32   298.55070   127.61844   202.02733
   282  C   4.0   -0.02    4.17    3.95   297.72255   127.12545   199.29345
   283  C   4.0   -0.08    4.11    3.81   299.78423   125.62212   197.94281
   284  C   4.0   -0.09    4.10    3.81   295.22135   125.69294   199.18429
   285  H   1.0    0.11    1.09    1.44   297.64104   132.24178   200.90774
   286  H   1.0    0.05    1.05    1.44   294.86287   128.46543   203.58933
   287  H   1.0    0.06    1.03    1.43   300.42527   128.48057   202.03270
   288  H   1.0    0.04    1.03    1.43   298.68503   125.81533   203.02630
   289  H   1.0    0.05    1.06    1.44   297.49630   128.93771   198.32276
   290  H   1.0    0.04    1.00    1.43   299.27848   125.27761   195.98263
   291  H   1.0    0.04    1.00    1.43   301.58448   126.61158   197.99894
   292  H   1.0    0.03    1.00    1.43   300.05277   123.78963   198.83890
   293  H   1.0    0.03    1.00    1.43   294.90656   124.96193   197.29183
   294  H   1.0    0.03    1.00    1.43   295.26239   124.09611   200.48240
   295  H   1.0    0.03    1.00    1.43   293.64371   126.90056   199.70123
   296  N   5.0   -0.13    3.56    2.12   299.74384   130.84549   206.57194
   297  C   4.0    0.05    4.45    4.47   300.92665   131.08840   209.02100
   298  C   4.0    0.16    3.49    3.11   298.96634   132.00042   210.94105
   299  O   6.0   -0.29    1.22    1.80   298.80714   131.08441   213.06965
   300  C   4.0   -0.04    4.32    4.24   303.10247   132.97725   208.87666
   301  C   4.0    0.15    3.22    3.04   305.31554   131.94704   207.33443
   302  O   6.0   -0.30    1.22    1.80   305.27015   129.93789   206.21778
   303  N   5.0   -0.20    3.18    1.95   307.32799   133.50051   207.28672
   304  H   1.0    0.12    1.11    1.44   300.73902   131.44836   205.04870
   305  H   1.0    0.06    1.05    1.44   301.61179   129.23173   209.66002
   306  H   1.0    0.06    1.03    1.43   302.40221   134.70865   207.99678
   307  H   1.0    0.04    1.03    1.43   303.74916   133.40668   210.78636
   308  H   1.0    0.08    1.03    1.43   308.91889   132.89192   206.43110
   309  H   1.0    0.07    1.03    1.43   307.40675   135.04780   208.39046
   310  N   5.0   -0.13    3.49    2.07   297.56857   133.94624   210.16691
   311  C   4.0    0.05    4.36    4.31   295.68821   135.07279   211.80325
   312  C   4.0    0.10    3.26    3.05   293.65692   133.15466   212.50269
   313  O   6.0   -0.28    1.11    1.80   292.98105   132.85774   214.70683
   314  C   4.0   -0.04    4.25    4.11   294.54426   137.41667   210.56709
   315  C   4.0   -0.03    4.19    3.99   292.45900   138.57621   212.18301
   316  C   4.0    0.25    3.10    3.02   293.21236   139.28284   214.91989
   317  O   6.0   -0.30    1.20    1.80   295.44910   139.03021   215.61893
   318  O   6.0   -0.31    1.17    1.80   291.46058   140.09478   216.28043
   319  H   1.0    0.11    1.10    1.44   297.78023   134.65615   208.39767
   320  H   1.0    0.08    1.07    1.44   296.59461   135.63052   213.58382
   321  H   1.0    0.05    1.03    1.43   296.05651   138.79217   210.30636
   322  H   1.0    0.06    1.03    1.43   293.77177   136.89135   208.72605
   323  H   1.0    0.04    1.03    1.43   291.74686   140.29948   211.29943
   324  H   1.0    0.05    1.03    1.43   290.86261   137.27501   212.35194
   325  N   5.0   -0.21    3.22    1.96   300.17148   119.13175   191.08574
   326  C   4.0    0.02    4.32    4.23   299.36343   120.65299   188.94430
   327  C   4.0    0.14    3.42    3.08   301.53558   122.41118   188.16161
   328  O   6.0   -0.32    1.26    1.80   302.46740   123.92995   189.64187
   329  C   4.0   -0.05    4.36    4.31   297.03266   122.16014   189.74379
   330  C   4.0   -0.03    4.19    3.98   296.10946   124.07212   187.77752
   331  C   4.0   -0.09    4.11    3.82   295.34820   122.80772   185.30259
   332  C   4.0   -0.09    4.11    3.82   293.86406   125.52532   188.86256
   333  H   1.0    0.07    1.03    1.43   299.48750   119.63289   192.80336
   334  H   1.0    0.02    1.05    1.44   298.95597   119.37279   187.37688
   335  H   1.0    0.02    1.03    1.43   295.52540   120.82700   190.19827
   336  H   1.0    0.04    1.03    1.43   297.51415   123.15819   191.48556
   337  H   1.0    0.04    1.05    1.44   297.65633   125.39506   187.39861
   338  H   1.0    0.03    1.00    1.43   294.59807   124.22333   184.01862
   339  H   1.0    0.04    1.00    1.43   296.96446   121.91301   184.41050
   340  H   1.0    0.03    1.00    1.43   293.89664   121.39838   185.65919
   341  H   1.0    0.03    1.00    1.43   293.26936   127.00088   187.56536
   342  H   1.0    0.03    1.00    1.43   292.28242   124.25057   189.17081
   343  H   1.0    0.03    1.00    1.43   294.36040   126.38197   190.66099
   344  N   5.0   -0.15    3.44    2.04   302.26657   122.19207   185.74748
   345  C   4.0    0.04    4.45    4.46   304.43672   123.53487   184.78782
   346  C   4.0    0.15    3.45    3.09   304.12267   124.17282   181.98894
   347  O   6.0   -0.31    1.23    1.80   303.36235   122.60374   180.46471
   348  C   4.0   -0.03    4.32    4.24   306.83991   121.90889   185.09117
   349  C   4.0    0.15    3.26    3.05   309.10064   123.48125   184.32652
   350  O   6.0   -0.30    1.27    1.80   309.78416   123.62422   182.11518
   351  N   5.0   -0.18    3.20    1.95   310.20432   124.76383   186.19394
   352  H   1.0    0.07    1.06    1.44   301.65593   120.70205   184.69534
   353  H   1.0    0.07    1.08    1.44   304.62681   125.28109   185.87324
   354  H   1.0    0.04    1.03    1.43   306.97820   121.30253   187.05109
   355  H   1.0    0.05    1.03    1.43   306.71080   120.25146   183.86810
   356  H   1.0    0.12    1.06    1.44   311.66257   125.97314   185.84599
   357  H   1.0    0.09    1.03    1.43   309.56717   124.63033   187.97822
   358  N   5.0   -0.14    3.50    2.08   304.82911   126.51882   181.35994
   359  C   4.0    0.03    4.49    4.53   304.48042   127.48978   178.83058
   360  C   4.0    0.15    3.40    3.08   306.91482   128.54146   177.67206
   361  O   6.0   -0.32    1.25    1.80   306.87614   130.21316   176.07427
   362  C   4.0   -0.02    4.27    4.14   302.32545   129.44649   178.69117
   363  C   4.0   -0.08    4.11    3.82   299.82057   128.23984   179.45588
   364  C   4.0   -0.07    4.11    3.83   302.88545   131.77236   180.30657
   365  H   1.0    0.10    1.10    1.44   305.19825   127.78094   182.75527
   366  H   1.0    0.06    1.07    1.44   303.93789   125.85927   177.66387
   367  H   1.0    0.04    1.06    1.44   302.21621   130.02527   176.70842
   368  H   1.0    0.03    1.00    1.43   298.26840   129.47779   178.93877
   369  H   1.0    0.04    1.00    1.43   299.56303   126.44717   178.48642
   370  H   1.0    0.04    1.00    1.43   299.77539   127.90721   181.48299
   371  H   1.0    0.04    1.00    1.43   301.34022   133.11249   180.13694
   372  H   1.0    0.05    1.00    1.43   303.08905   131.26389   182.28590
   373  H   1.0    0.06    1.00    1.43   304.60665   132.69804   179.67210
   374  N   5.0   -0.12    3.52    2.09   309.06369   127.50973   178.51270
   375  C   4.0    0.04    4.32    4.24   311.51496   128.30101   177.60855
   376  C   4.0    0.08    3.20    3.04   312.46014   126.52551   175.52057
   377  O   6.0   -0.29    1.13    1.80   311.44506   124.49942   175.07951
   378  C   4.0   -0.04    4.28    4.16   313.39488   128.32703   179.80803
   379  C   4.0   -0.03    4.24    4.08   312.72961   130.40970   181.69994
   380  C   4.0    0.15    3.23    3.04   314.38405   130.18847   184.02286
   381  O   6.0   -0.31    1.25    1.80   314.05194   128.52053   185.60946
   382  N   5.0   -0.19    3.20    1.96   316.16946   131.94312   184.25354
   383  H   1.0    0.12    1.11    1.45   309.05991   126.02681   179.73481
   384  H   1.0    0.05    1.06    1.44   311.31010   130.20391   176.81079
   385  H   1.0    0.07    1.03    1.43   313.31338   126.49271   180.74669
   386  H   1.0    0.04    1.02    1.43   315.31702   128.61102   179.11481
   387  H   1.0    0.05    1.03    1.43   312.99458   132.25588   180.82865
   388  H   1.0    0.05    1.03    1.43   310.75840   130.19395   182.27207
   389  H   1.0    0.12    1.09    1.44   316.57631   133.17180   182.80709
   390  H   1.0    0.10    1.03    1.43   317.41372   131.82015   185.69164
   391  N   5.0   -0.21    3.21    1.96   321.13293   125.71306   181.99215
   392  C   4.0    0.04    4.22    4.04   322.54740   127.65009   180.69518
   393  C   4.0    0.08    3.21    3.04   325.29006   126.83837   180.22906
   394  O   6.0   -0.31    1.11    1.80   326.44324   127.58114   178.36163
   395  C   4.0   -0.02    4.25    4.10   322.54115   130.17149   182.12116
   396  C   4.0    0.25    3.11    3.03   323.70399   130.05256   184.80025
   397  O   6.0   -0.29    1.17    1.80   324.36926   132.09811   185.75995
   398  O   6.0   -0.31    1.22    1.80   323.92232   127.94170   185.83641
   399  H   1.0    0.11    1.05    1.44   321.40470   125.64583   183.88563
   400  H   1.0    0.05    1.05    1.44   321.66760   127.94581   178.83832
   401  H   1.0    0.06    1.02    1.43   323.55765   131.58287   181.01043
   402  H   1.0    0.06    1.03    1.43   320.59835   130.85005   182.31128
   403  H   1.0    0.08    1.07    1.44   280.69567   139.97650   192.99245
   404  H   1.0    0.04    1.04    1.44   284.43033   134.09938   187.66514
   405  H   1.0    0.09    1.07    1.44   288.20767   140.69054   183.07725
   406  H   1.0    0.05    1.04    1.44   290.74689   135.07920   180.90278
   407  H   1.0    0.08    1.07    1.44   314.86044   138.86108   167.97524
   408  H   1.0    0.07    1.05    1.44   292.84428   132.10588   211.15705
   409  H   1.0    0.07    1.07    1.44   299.68918   117.51796   190.84992
   410  H   1.0    0.04    1.05    1.44   313.95273   127.01347   174.46932
   411  H   1.0    0.10    1.07    1.44   319.46887   125.96511   181.74733
   412  H   1.0    0.06    1.04    1.44   326.15722   125.69107   181.45494

  Z AO/shell   Hii/eV     exponent
  1     Wed Apr 25 08:07:45 CEST 2018   EN: 2.200 GM2: 0.406  GM3: 0.0800  RAES: 1.40
     1s    -10.707211    1.230000
  6     Wed Apr 25 08:07:45 CEST 2018   EN: 2.550 GM2: 0.538  GM3: 0.1500  RAES: 3.00
     2s    -13.970922    2.096432
     2p    -10.063292    1.800000
  7     Wed Apr 25 08:07:45 CEST 2018   EN: 3.040 GM2: 0.461  GM3:-0.0640  RAES: 1.90
     2s    -16.686243    2.339881
     2p    -12.523956    2.014332
  8     Wed Apr 25 08:07:45 CEST 2018   EN: 3.440 GM2: 0.452  GM3:-0.0517  RAES: 1.80
     2s    -20.229985    2.439742
     2p    -15.503117    2.137023
 no old-style atom pair restraining (fixing) potential

molecular fragmentation (1/2 indicates fragments):
111111111111111111111111111111111111111122222222222222222222222222222222
222222222222222222222222222222222222222222222222222222222222222222222222
222222222222222222222222222222222222222222222222222222222222222222222222
222222222222222222222222222222222222222222222222222222222222222222222222
222222222222222222222222222222222222222222222222222222222222222222222222
2222222222222222222222222222222222222222221122222222
# atoms in fragment 1/2:    42   370
 fragment masses (1/2) :      258.34     2628.87
CMA distance (Bohr)    :  18.868
constraining FC (au)   :  0.0500
           ------------------------------------------------- 
          |        Self-Consistent Charge Iterations        |
           ------------------------------------------------- 

 Ncao       : 1018
 Nao        : 1018
 Nshell     : 614
 Nel        : 1146
 T(el)      :   500.0
 intcut     :    35.0
 scfconv/Eh :  0.100E-06
   qconv/e  :  0.100E-04
 intneglect :  0.100E-08
 broydamp   :      0.400
 iter      E             dE          RMSdq      gap      omega  full diag
   1   -660.5830551 -0.660583E+03  0.476E+00    3.17       0.0  T
   2   -662.3958014 -0.181275E+01  0.216E+00    1.87       1.0  T
   3   -662.5141522 -0.118351E+00  0.126E+00    1.97       1.0  T
   4   -662.6158826 -0.101730E+00  0.252E-01    1.37       1.0  T
   5   -662.6217522 -0.586967E-02  0.128E-01    1.41       1.0  T
   6   -662.6225050 -0.752790E-03  0.491E-02    1.37       1.0  T
   7   -662.6227621 -0.257127E-03  0.205E-02    1.35       1.0  T
   8   -662.6227843 -0.221570E-04  0.910E-03    1.35       1.0  T
   9   -662.6227920 -0.769654E-05  0.404E-03    1.34       1.2  T
  10   -662.6227931 -0.108491E-05  0.171E-03    1.34       2.9  T
  11   -662.6227934 -0.298147E-06  0.772E-04    1.33       6.4  T
  12   -662.6227934 -0.455942E-07  0.328E-04    1.33      15.0  T
  13   -662.6227934 -0.793113E-08  0.162E-04    1.33      30.4  T
  14   -662.6227934 -0.210662E-08  0.534E-05    1.33      92.2  T
  15   -662.6227934 -0.223736E-09  0.225E-05    1.33     219.3  T
speedup 12.37
cpu  time for SCC   37.77 s
wall time for SCC    3.05 s

   *** convergence criteria satisfied after 15 iterations ***

          eigenvalues
 #    :         561        562        563        564        565        566        567        568
 occ. :        2.000      2.000      2.000      2.000      2.000      2.000      2.000      2.000
 eps  :       -10.460    -10.432    -10.349    -10.277    -10.241    -10.103     -9.949     -9.939
 #    :         569        570        571        572        573        574        575        576
 occ. :        2.000      2.000      2.000      2.000      2.000      0.000      0.000      0.000
 eps  :        -9.871     -9.804     -9.779     -9.460     -9.397     -8.064     -7.856     -7.529
 #    :         577        578        579        580        581        582        583        584
 occ. :        0.000      0.000      0.000      0.000      0.000      0.000      0.000      0.000
 eps  :        -7.524     -7.375     -6.913     -6.838     -6.794     -6.675     -6.549     -6.545


   #   Z            q   n(s)   n(p)   n(d)      C6AA      α(0)
   1   7 N     -0.401  1.316  4.085  0.000    30.388     8.187
   2   6 C      0.024  1.061  2.915  0.000    20.183     6.399
   3   6 C      0.267  1.049  2.685  0.000    22.499     7.768
   4   8 O     -0.492  1.750  4.742  0.000    23.600     6.513
   5   6 C     -0.084  1.061  3.023  0.000    22.102     6.692
   6   6 C     -0.088  1.052  3.035  0.000    22.169     6.703
   7   6 C     -0.027  1.055  2.973  0.000    21.139     6.560
   8   7 N     -0.134  1.207  3.927  0.000    23.896     7.260
   9   6 C      0.235  1.018  2.748  0.000    23.086     7.867
  10   7 N     -0.244  1.239  4.005  0.000    26.375     7.627
  11   7 N     -0.266  1.236  4.030  0.000    26.892     7.702
  12   1 H      0.169  0.831  0.000  0.000     1.277     1.770
  13   1 H      0.052  0.948  0.000  0.000     2.293     2.368
  14   1 H      0.072  0.928  0.000  0.000     2.060     2.244
  15   1 H      0.051  0.949  0.000  0.000     2.302     2.373
  16   1 H      0.066  0.934  0.000  0.000     2.133     2.284
  17   1 H      0.064  0.936  0.000  0.000     2.149     2.292
  18   1 H      0.086  0.914  0.000  0.000     1.923     2.168
  19   1 H      0.094  0.906  0.000  0.000     1.842     2.122
  20   1 H      0.224  0.776  0.000  0.000     0.992     1.560
  21   1 H      0.249  0.751  0.000  0.000     0.889     1.477
  22   1 H      0.251  0.749  0.000  0.000     0.878     1.468
  23   1 H      0.239  0.761  0.000  0.000     0.927     1.508
  24   1 H      0.252  0.748  0.000  0.000     0.874     1.464
  25   7 N     -0.167  1.241  3.926  0.000    24.605     7.367
  26   6 C      0.023  1.063  2.913  0.000    20.181     6.396
  27   6 C      0.206  1.082  2.712  0.000    23.631     7.961
  28   8 O     -0.360  1.761  4.598  0.000    20.891     6.128
  29   6 C     -0.021  1.063  2.958  0.000    20.921     6.506
  30   6 C     -0.119  1.039  3.080  0.000    22.829     6.812
  31   6 C     -0.126  1.043  3.084  0.000    22.980     6.835
  32   1 H      0.218  0.782  0.000  0.000     1.019     1.581
  33   1 H      0.073  0.927  0.000  0.000     2.057     2.243
  34   1 H      0.062  0.938  0.000  0.000     2.173     2.305
  35   1 H      0.060  0.940  0.000  0.000     2.197     2.318
  36   1 H      0.039  0.961  0.000  0.000     2.460     2.453
  37   1 H      0.046  0.954  0.000  0.000     2.366     2.405
  38   1 H      0.061  0.939  0.000  0.000     2.187     2.313
  39   1 H      0.045  0.955  0.000  0.000     2.382     2.414
  40   1 H      0.054  0.946  0.000  0.000     2.268     2.355
  41   7 N     -0.393  1.314  4.079  0.000    30.181     8.159
  42   6 C      0.044  1.055  2.901  0.000    19.849     6.346
  43   6 C      0.200  1.096  2.705  0.000    23.749     7.981
  44   8 O     -0.397  1.763  4.634  0.000    21.620     6.234
  45   6 C     -0.070  1.059  3.012  0.000    21.835     6.652
  46   6 C     -0.011  1.057  2.954  0.000    20.742     6.478
  47   6 C     -0.114  1.041  3.072  0.000    22.729     6.797
  48   6 C     -0.112  1.040  3.072  0.000    22.699     6.793
  49   1 H      0.183  0.817  0.000  0.000     1.197     1.714
  50   1 H      0.041  0.959  0.000  0.000     2.440     2.443
  51   1 H      0.059  0.941  0.000  0.000     2.210     2.325
  52   1 H      0.030  0.970  0.000  0.000     2.591     2.517
  53   1 H      0.058  0.942  0.000  0.000     2.227     2.333
  54   1 H      0.050  0.950  0.000  0.000     2.324     2.384
  55   1 H      0.040  0.960  0.000  0.000     2.453     2.449
  56   1 H      0.028  0.972  0.000  0.000     2.610     2.527
  57   1 H      0.045  0.955  0.000  0.000     2.385     2.415
  58   1 H      0.024  0.976  0.000  0.000     2.674     2.557
  59   1 H      0.034  0.966  0.000  0.000     2.523     2.484
  60   7 N     -0.399  1.312  4.087  0.000    30.336     8.180
  61   6 C      0.033  1.058  2.908  0.000    20.023     6.373
  62   6 C      0.271  1.046  2.683  0.000    22.425     7.754
  63   8 O     -0.509  1.750  4.760  0.000    23.995     6.568
  64   6 C     -0.056  1.050  3.006  0.000    21.581     6.613
  65   6 C     -0.095  1.058  3.038  0.000    22.306     6.723
  66   6 C      0.292  1.034  2.674  0.000    22.046     7.688
  67   8 O     -0.499  1.749  4.750  0.000    23.761     6.535
  68   7 N     -0.284  1.264  4.020  0.000    27.333     7.765
  69   1 H      0.181  0.819  0.000  0.000     1.210     1.723
  70   1 H      0.040  0.960  0.000  0.000     2.446     2.446
  71   1 H      0.057  0.943  0.000  0.000     2.236     2.338
  72   1 H      0.031  0.969  0.000  0.000     2.572     2.508
  73   1 H      0.055  0.945  0.000  0.000     2.257     2.349
  74   1 H      0.078  0.922  0.000  0.000     1.997     2.210
  75   1 H      0.217  0.783  0.000  0.000     1.025     1.586
  76   1 H      0.238  0.762  0.000  0.000     0.932     1.512
  77   7 N     -0.175  1.244  3.930  0.000    24.783     7.394
  78   6 C      0.022  1.058  2.919  0.000    20.206     6.401
  79   6 C      0.282  1.042  2.677  0.000    22.230     7.721
  80   8 O     -0.505  1.743  4.761  0.000    23.890     6.553
  81   6 C      0.067  1.041  2.892  0.000    19.663     6.351
  82   8 O     -0.478  1.718  4.760  0.000    22.421     6.392
  83   1 H      0.243  0.757  0.000  0.000     0.912     1.496
  84   1 H      0.072  0.928  0.000  0.000     2.063     2.246
  85   1 H      0.048  0.952  0.000  0.000     2.344     2.394
  86   1 H      0.066  0.934  0.000  0.000     2.127     2.281
  87   1 H      0.362  0.638  0.000  0.000     0.560     1.175
  88   7 N     -0.180  1.248  3.932  0.000    24.899     7.411
  89   6 C      0.040  1.054  2.906  0.000    19.909     6.353
  90   6 C      0.276  1.044  2.680  0.000    22.326     7.738
  91   8 O     -0.496  1.732  4.764  0.000    23.699     6.527
  92   6 C     -0.102  1.072  3.029  0.000    22.434     6.743
  93   6 C      0.375  1.018  2.607  0.000    20.647     7.436
  94   8 O     -0.624  1.767  4.857  0.000    26.707     6.929
  95   8 O     -0.630  1.771  4.859  0.000    26.873     6.950
  96   1 H      0.221  0.779  0.000  0.000     1.004     1.570
  97   1 H      0.067  0.933  0.000  0.000     2.119     2.276
  98   1 H      0.038  0.962  0.000  0.000     2.477     2.461
  99   1 H      0.045  0.955  0.000  0.000     2.383     2.414
 100   7 N     -0.173  1.240  3.933  0.000    24.741     7.387
 101   6 C      0.031  1.059  2.911  0.000    20.057     6.376
 102   6 C      0.277  1.043  2.680  0.000    22.308     7.735
 103   8 O     -0.496  1.731  4.766  0.000    23.705     6.528
 104   6 C     -0.072  1.056  3.015  0.000    21.859     6.655
 105   6 C     -0.006  1.057  2.950  0.000    20.658     6.465
 106   6 C     -0.118  1.043  3.075  0.000    22.805     6.808
 107   6 C     -0.122  1.042  3.080  0.000    22.887     6.821
 108   1 H      0.192  0.808  0.000  0.000     1.146     1.677
 109   1 H      0.082  0.918  0.000  0.000     1.956     2.187
 110   1 H      0.034  0.966  0.000  0.000     2.527     2.486
 111   1 H      0.068  0.932  0.000  0.000     2.112     2.272
 112   1 H      0.022  0.978  0.000  0.000     2.709     2.574
 113   1 H      0.059  0.941  0.000  0.000     2.211     2.325
 114   1 H      0.025  0.975  0.000  0.000     2.662     2.551
 115   1 H      0.057  0.943  0.000  0.000     2.232     2.336
 116   1 H      0.060  0.940  0.000  0.000     2.204     2.322
 117   1 H      0.059  0.941  0.000  0.000     2.206     2.323
 118   1 H      0.033  0.967  0.000  0.000     2.540     2.492
 119   7 N     -0.191  1.254  3.937  0.000    25.148     7.448
 120   6 C      0.051  1.050  2.899  0.000    19.724     6.323
 121   6 C      0.277  1.044  2.679  0.000    22.309     7.735
 122   8 O     -0.494  1.728  4.766  0.000    23.647     6.520
 123   6 C     -0.101  1.071  3.031  0.000    22.431     6.743
 124   6 C      0.379  1.021  2.600  0.000    20.587     7.425
 125   8 O     -0.613  1.757  4.856  0.000    26.451     6.895
 126   8 O     -0.613  1.766  4.847  0.000    26.430     6.893
 127   1 H      0.219  0.781  0.000  0.000     1.014     1.577
 128   1 H      0.049  0.951  0.000  0.000     2.337     2.391
 129   1 H      0.046  0.954  0.000  0.000     2.372     2.408
 130   1 H      0.029  0.971  0.000  0.000     2.596     2.520
 131   7 N     -0.185  1.247  3.938  0.000    25.009     7.427
 132   6 C      0.025  1.061  2.915  0.000    20.162     6.394
 133   6 C      0.282  1.039  2.678  0.000    22.222     7.720
 134   8 O     -0.482  1.730  4.752  0.000    23.391     6.484
 135   6 C      0.074  1.038  2.888  0.000    19.549     6.333
 136   8 O     -0.476  1.721  4.756  0.000    22.384     6.387
 137   1 H      0.212  0.788  0.000  0.000     1.046     1.602
 138   1 H      0.078  0.922  0.000  0.000     1.998     2.210
 139   1 H      0.038  0.962  0.000  0.000     2.477     2.461
 140   1 H      0.046  0.954  0.000  0.000     2.373     2.409
 141   1 H      0.366  0.634  0.000  0.000     0.553     1.168
 142   7 N     -0.181  1.248  3.933  0.000    24.923     7.415
 143   6 C      0.023  1.066  2.910  0.000    20.179     6.395
 144   6 C      0.286  1.041  2.673  0.000    22.161     7.709
 145   8 O     -0.480  1.722  4.757  0.000    23.339     6.477
 146   6 C     -0.021  1.064  2.956  0.000    20.906     6.503
 147   6 C     -0.066  1.051  3.015  0.000    21.754     6.640
 148   6 C     -0.114  1.037  3.077  0.000    22.737     6.799
 149   6 C     -0.109  1.037  3.072  0.000    22.650     6.787
 150   1 H      0.215  0.785  0.000  0.000     1.034     1.593
 151   1 H      0.076  0.924  0.000  0.000     2.025     2.225
 152   1 H      0.037  0.963  0.000  0.000     2.483     2.464
 153   1 H      0.050  0.950  0.000  0.000     2.316     2.380
 154   1 H      0.032  0.968  0.000  0.000     2.565     2.505
 155   1 H      0.064  0.936  0.000  0.000     2.153     2.295
 156   1 H      0.038  0.962  0.000  0.000     2.477     2.461
 157   1 H      0.061  0.939  0.000  0.000     2.189     2.314
 158   1 H      0.038  0.962  0.000  0.000     2.480     2.463
 159   1 H      0.032  0.968  0.000  0.000     2.558     2.501
 160   1 H      0.062  0.938  0.000  0.000     2.174     2.306
 161   7 N     -0.192  1.248  3.944  0.000    25.163     7.450
 162   6 C      0.037  1.053  2.910  0.000    19.947     6.359
 163   6 C      0.275  1.044  2.681  0.000    22.348     7.742
 164   8 O     -0.512  1.726  4.786  0.000    24.053     6.575
 165   6 C     -0.062  1.050  3.012  0.000    21.674     6.627
 166   6 C     -0.101  1.055  3.045  0.000    22.418     6.740
 167   6 C      0.283  1.039  2.678  0.000    22.203     7.715
 168   8 O     -0.505  1.735  4.770  0.000    23.888     6.553
 169   7 N     -0.273  1.265  4.008  0.000    27.052     7.725
 170   1 H      0.216  0.784  0.000  0.000     1.030     1.590
 171   1 H      0.075  0.925  0.000  0.000     2.029     2.227
 172   1 H      0.062  0.938  0.000  0.000     2.179     2.308
 173   1 H      0.046  0.954  0.000  0.000     2.376     2.410
 174   1 H      0.076  0.924  0.000  0.000     2.020     2.222
 175   1 H      0.058  0.942  0.000  0.000     2.222     2.331
 176   1 H      0.226  0.774  0.000  0.000     0.984     1.554
 177   1 H      0.252  0.748  0.000  0.000     0.877     1.467
 178   7 N     -0.172  1.252  3.920  0.000    24.729     7.386
 179   6 C      0.028  1.059  2.913  0.000    20.110     6.385
 180   6 C      0.280  1.039  2.681  0.000    22.265     7.727
 181   8 O     -0.496  1.732  4.764  0.000    23.696     6.527
 182   6 C     -0.134  1.043  3.092  0.000    23.132     6.857
 183   1 H      0.228  0.772  0.000  0.000     0.972     1.545
 184   1 H      0.067  0.933  0.000  0.000     2.115     2.274
 185   1 H      0.078  0.922  0.000  0.000     1.998     2.210
 186   1 H      0.063  0.937  0.000  0.000     2.169     2.303
 187   1 H      0.073  0.927  0.000  0.000     2.056     2.243
 188   7 N     -0.179  1.249  3.930  0.000    24.881     7.408
 189   6 C      0.029  1.058  2.913  0.000    20.089     6.382
 190   6 C      0.277  1.044  2.679  0.000    22.307     7.734
 191   8 O     -0.492  1.732  4.760  0.000    23.604     6.514
 192   6 C     -0.062  1.051  3.011  0.000    21.689     6.630
 193   6 C     -0.101  1.063  3.038  0.000    22.431     6.743
 194   6 C      0.362  1.026  2.612  0.000    20.865     7.475
 195   8 O     -0.604  1.743  4.861  0.000    26.218     6.865
 196   8 O     -0.608  1.774  4.834  0.000    26.327     6.879
 197   1 H      0.212  0.788  0.000  0.000     1.046     1.602
 198   1 H      0.081  0.919  0.000  0.000     1.967     2.193
 199   1 H      0.047  0.953  0.000  0.000     2.364     2.404
 200   1 H      0.047  0.953  0.000  0.000     2.360     2.403
 201   1 H      0.056  0.944  0.000  0.000     2.241     2.341
 202   1 H      0.045  0.955  0.000  0.000     2.385     2.415
 203   7 N     -0.181  1.249  3.932  0.000    24.919     7.414
 204   6 C      0.019  1.068  2.913  0.000    20.249     6.406
 205   6 C      0.283  1.041  2.676  0.000    22.199     7.716
 206   8 O     -0.477  1.727  4.749  0.000    23.278     6.469
 207   6 C     -0.023  1.065  2.957  0.000    20.946     6.509
 208   6 C     -0.065  1.051  3.014  0.000    21.745     6.639
 209   6 C     -0.118  1.038  3.080  0.000    22.809     6.810
 210   6 C     -0.105  1.035  3.070  0.000    22.562     6.774
 211   1 H      0.216  0.784  0.000  0.000     1.030     1.590
 212   1 H      0.080  0.920  0.000  0.000     1.974     2.197
 213   1 H      0.033  0.967  0.000  0.000     2.543     2.494
 214   1 H      0.057  0.943  0.000  0.000     2.239     2.340
 215   1 H      0.040  0.960  0.000  0.000     2.448     2.447
 216   1 H      0.060  0.940  0.000  0.000     2.197     2.318
 217   1 H      0.037  0.963  0.000  0.000     2.490     2.468
 218   1 H      0.064  0.936  0.000  0.000     2.158     2.297
 219   1 H      0.041  0.959  0.000  0.000     2.432     2.439
 220   1 H      0.021  0.979  0.000  0.000     2.713     2.576
 221   1 H      0.053  0.947  0.000  0.000     2.280     2.362
 222   7 N     -0.198  1.246  3.952  0.000    25.300     7.470
 223   6 C      0.016  1.065  2.919  0.000    20.314     6.417
 224   6 C      0.275  1.041  2.684  0.000    22.349     7.742
 225   8 O     -0.486  1.738  4.748  0.000    23.478     6.496
 226   6 C      0.114  1.046  2.839  0.000    18.805     6.192
 227   8 O     -0.475  1.713  4.762  0.000    22.354     6.383
 228   6 C     -0.129  1.041  3.088  0.000    23.030     6.843
 229   1 H      0.221  0.779  0.000  0.000     1.006     1.571
 230   1 H      0.072  0.928  0.000  0.000     2.063     2.246
 231   1 H      0.026  0.974  0.000  0.000     2.640     2.541
 232   1 H      0.315  0.685  0.000  0.000     0.677     1.293
 233   1 H      0.068  0.932  0.000  0.000     2.106     2.269
 234   1 H      0.052  0.948  0.000  0.000     2.296     2.369
 235   1 H      0.071  0.929  0.000  0.000     2.074     2.252
 236   7 N     -0.184  1.249  3.936  0.000    24.989     7.424
 237   6 C      0.023  1.062  2.914  0.000    20.180     6.396
 238   6 C      0.280  1.040  2.680  0.000    22.264     7.727
 239   8 O     -0.500  1.744  4.756  0.000    23.781     6.538
 240   6 C     -0.070  1.054  3.016  0.000    21.840     6.653
 241   6 C     -0.103  1.057  3.046  0.000    22.464     6.747
 242   6 C      0.289  1.038  2.673  0.000    22.100     7.697
 243   8 O     -0.485  1.731  4.754  0.000    23.461     6.494
 244   7 N     -0.274  1.265  4.009  0.000    27.088     7.730
 245   1 H      0.224  0.776  0.000  0.000     0.993     1.561
 246   1 H      0.066  0.934  0.000  0.000     2.136     2.285
 247   1 H      0.064  0.936  0.000  0.000     2.153     2.294
 248   1 H      0.066  0.934  0.000  0.000     2.129     2.282
 249   1 H      0.066  0.934  0.000  0.000     2.125     2.280
 250   1 H      0.076  0.924  0.000  0.000     2.025     2.225
 251   1 H      0.221  0.779  0.000  0.000     1.006     1.571
 252   1 H      0.236  0.764  0.000  0.000     0.938     1.518
 253   7 N     -0.177  1.245  3.932  0.000    24.822     7.399
 254   6 C      0.018  1.064  2.919  0.000    20.282     6.412
 255   6 C      0.277  1.040  2.684  0.000    22.317     7.736
 256   8 O     -0.505  1.755  4.750  0.000    23.900     6.555
 257   6 C     -0.092  1.058  3.034  0.000    22.251     6.715
 258   6 C     -0.085  1.055  3.029  0.000    22.116     6.696
 259   6 C     -0.028  1.054  2.974  0.000    21.164     6.565
 260   7 N     -0.155  1.221  3.934  0.000    24.350     7.329
 261   6 C      0.236  1.023  2.741  0.000    23.058     7.862
 262   7 N     -0.251  1.227  4.024  0.000    26.541     7.651
 263   7 N     -0.288  1.286  4.002  0.000    27.418     7.777
 264   1 H      0.229  0.771  0.000  0.000     0.968     1.541
 265   1 H      0.069  0.931  0.000  0.000     2.096     2.264
 266   1 H      0.085  0.915  0.000  0.000     1.929     2.172
 267   1 H      0.077  0.923  0.000  0.000     2.009     2.217
 268   1 H      0.059  0.941  0.000  0.000     2.214     2.327
 269   1 H      0.075  0.925  0.000  0.000     2.035     2.231
 270   1 H      0.099  0.901  0.000  0.000     1.794     2.094
 271   1 H      0.076  0.924  0.000  0.000     2.019     2.222
 272   1 H      0.228  0.772  0.000  0.000     0.973     1.545
 273   1 H      0.224  0.776  0.000  0.000     0.990     1.559
 274   1 H      0.236  0.764  0.000  0.000     0.940     1.519
 275   1 H      0.260  0.740  0.000  0.000     0.846     1.441
 276   1 H      0.235  0.765  0.000  0.000     0.944     1.522
 277   7 N     -0.180  1.245  3.935  0.000    24.894     7.410
 278   6 C      0.024  1.060  2.916  0.000    20.175     6.395
 279   6 C      0.283  1.040  2.677  0.000    22.214     7.718
 280   8 O     -0.511  1.756  4.754  0.000    24.020     6.571
 281   6 C     -0.075  1.058  3.016  0.000    21.923     6.665
 282   6 C     -0.015  1.057  2.958  0.000    20.808     6.488
 283   6 C     -0.111  1.041  3.070  0.000    22.673     6.789
 284   6 C     -0.122  1.042  3.080  0.000    22.891     6.822
 285   1 H      0.226  0.774  0.000  0.000     0.982     1.552
 286   1 H      0.074  0.926  0.000  0.000     2.044     2.236
 287   1 H      0.049  0.951  0.000  0.000     2.329     2.387
 288   1 H      0.049  0.951  0.000  0.000     2.335     2.390
 289   1 H      0.050  0.950  0.000  0.000     2.325     2.384
 290   1 H      0.049  0.951  0.000  0.000     2.330     2.387
 291   1 H      0.024  0.976  0.000  0.000     2.671     2.556
 292   1 H      0.044  0.956  0.000  0.000     2.398     2.422
 293   1 H      0.059  0.941  0.000  0.000     2.207     2.323
 294   1 H      0.041  0.959  0.000  0.000     2.437     2.441
 295   1 H      0.044  0.956  0.000  0.000     2.402     2.424
 296   7 N     -0.190  1.252  3.938  0.000    25.116     7.443
 297   6 C      0.039  1.054  2.907  0.000    19.913     6.353
 298   6 C      0.284  1.039  2.677  0.000    22.193     7.715
 299   8 O     -0.516  1.755  4.761  0.000    24.149     6.589
 300   6 C     -0.112  1.064  3.048  0.000    22.635     6.772
 301   6 C      0.293  1.034  2.673  0.000    22.031     7.685
 302   8 O     -0.477  1.747  4.729  0.000    23.274     6.468
 303   7 N     -0.295  1.268  4.027  0.000    27.606     7.803
 304   1 H      0.234  0.766  0.000  0.000     0.947     1.525
 305   1 H      0.062  0.938  0.000  0.000     2.173     2.305
 306   1 H      0.091  0.909  0.000  0.000     1.871     2.139
 307   1 H      0.078  0.922  0.000  0.000     1.998     2.210
 308   1 H      0.233  0.767  0.000  0.000     0.952     1.528
 309   1 H      0.232  0.768  0.000  0.000     0.956     1.532
 310   7 N     -0.179  1.249  3.930  0.000    24.883     7.409
 311   6 C      0.041  1.053  2.907  0.000    19.892     6.351
 312   6 C      0.218  1.084  2.698  0.000    23.404     7.923
 313   8 O     -0.386  1.760  4.626  0.000    21.401     6.202
 314   6 C     -0.057  1.053  3.004  0.000    21.595     6.615
 315   6 C     -0.094  1.066  3.027  0.000    22.289     6.722
 316   6 C      0.372  1.025  2.604  0.000    20.703     7.446
 317   8 O     -0.643  1.774  4.869  0.000    27.202     6.993
 318   8 O     -0.657  1.771  4.886  0.000    27.561     7.039
 319   1 H      0.229  0.771  0.000  0.000     0.971     1.544
 320   1 H      0.082  0.918  0.000  0.000     1.958     2.188
 321   1 H      0.061  0.939  0.000  0.000     2.193     2.316
 322   1 H      0.061  0.939  0.000  0.000     2.182     2.310
 323   1 H      0.048  0.952  0.000  0.000     2.346     2.395
 324   1 H      0.019  0.981  0.000  0.000     2.754     2.595
 325   7 N     -0.396  1.322  4.074  0.000    30.256     8.169
 326   6 C      0.032  1.060  2.908  0.000    20.045     6.377
 327   6 C      0.273  1.051  2.677  0.000    22.394     7.749
 328   8 O     -0.473  1.737  4.736  0.000    23.196     6.457
 329   6 C     -0.071  1.061  3.010  0.000    21.850     6.653
 330   6 C     -0.012  1.055  2.956  0.000    20.752     6.480
 331   6 C     -0.119  1.041  3.078  0.000    22.827     6.812
 332   6 C     -0.120  1.043  3.077  0.000    22.848     6.815
 333   1 H      0.166  0.834  0.000  0.000     1.298     1.785
 334   1 H      0.033  0.967  0.000  0.000     2.543     2.494
 335   1 H      0.052  0.948  0.000  0.000     2.297     2.370
 336   1 H      0.046  0.954  0.000  0.000     2.368     2.407
 337   1 H      0.013  0.987  0.000  0.000     2.841     2.636
 338   1 H      0.047  0.953  0.000  0.000     2.363     2.404
 339   1 H      0.026  0.974  0.000  0.000     2.651     2.546
 340   1 H      0.051  0.949  0.000  0.000     2.305     2.374
 341   1 H      0.047  0.953  0.000  0.000     2.361     2.403
 342   1 H      0.050  0.950  0.000  0.000     2.318     2.381
 343   1 H      0.044  0.956  0.000  0.000     2.396     2.420
 344   7 N     -0.173  1.250  3.923  0.000    24.738     7.387
 345   6 C      0.018  1.059  2.922  0.000    20.265     6.409
 346   6 C      0.277  1.040  2.683  0.000    22.310     7.735
 347   8 O     -0.480  1.742  4.738  0.000    23.357     6.480
 348   6 C     -0.105  1.064  3.041  0.000    22.500     6.752
 349   6 C      0.287  1.037  2.677  0.000    22.142     7.705
 350   8 O     -0.509  1.746  4.763  0.000    23.983     6.566
 351   7 N     -0.283  1.270  4.013  0.000    27.302     7.760
 352   1 H      0.205  0.795  0.000  0.000     1.081     1.629
 353   1 H      0.087  0.913  0.000  0.000     1.909     2.161
 354   1 H      0.077  0.923  0.000  0.000     2.008     2.216
 355   1 H      0.081  0.919  0.000  0.000     1.967     2.193
 356   1 H      0.233  0.767  0.000  0.000     0.954     1.530
 357   1 H      0.221  0.779  0.000  0.000     1.007     1.572
 358   7 N     -0.184  1.253  3.931  0.000    24.996     7.425
 359   6 C      0.014  1.064  2.923  0.000    20.345     6.422
 360   6 C      0.268  1.046  2.686  0.000    22.475     7.763
 361   8 O     -0.487  1.739  4.748  0.000    23.500     6.499
 362   6 C     -0.014  1.059  2.955  0.000    20.796     6.486
 363   6 C     -0.120  1.041  3.079  0.000    22.855     6.817
 364   6 C     -0.112  1.036  3.076  0.000    22.694     6.793
 365   1 H      0.215  0.785  0.000  0.000     1.034     1.593
 366   1 H      0.088  0.912  0.000  0.000     1.901     2.156
 367   1 H      0.056  0.944  0.000  0.000     2.249     2.345
 368   1 H      0.062  0.938  0.000  0.000     2.180     2.309
 369   1 H      0.048  0.952  0.000  0.000     2.343     2.394
 370   1 H      0.045  0.955  0.000  0.000     2.378     2.412
 371   1 H      0.055  0.945  0.000  0.000     2.254     2.348
 372   1 H      0.045  0.955  0.000  0.000     2.386     2.416
 373   1 H      0.024  0.976  0.000  0.000     2.678     2.559
 374   7 N     -0.176  1.241  3.935  0.000    24.821     7.399
 375   6 C      0.031  1.056  2.913  0.000    20.052     6.377
 376   6 C      0.196  1.086  2.718  0.000    23.810     7.991
 377   8 O     -0.343  1.750  4.594  0.000    20.584     6.083
 378   6 C     -0.059  1.051  3.008  0.000    21.631     6.620
 379   6 C     -0.086  1.054  3.032  0.000    22.132     6.697
 380   6 C      0.290  1.038  2.672  0.000    22.075     7.693
 381   8 O     -0.496  1.735  4.761  0.000    23.706     6.528
 382   7 N     -0.291  1.282  4.010  0.000    27.517     7.791
 383   1 H      0.227  0.773  0.000  0.000     0.979     1.550
 384   1 H      0.086  0.914  0.000  0.000     1.922     2.168
 385   1 H      0.080  0.920  0.000  0.000     1.984     2.203
 386   1 H      0.048  0.952  0.000  0.000     2.350     2.397
 387   1 H      0.048  0.952  0.000  0.000     2.351     2.398
 388   1 H      0.071  0.929  0.000  0.000     2.074     2.252
 389   1 H      0.231  0.769  0.000  0.000     0.962     1.537
 390   1 H      0.199  0.801  0.000  0.000     1.111     1.651
 391   7 N     -0.386  1.308  4.078  0.000    29.988     8.133
 392   6 C      0.052  1.055  2.894  0.000    19.729     6.327
 393   6 C      0.207  1.092  2.700  0.000    23.600     7.956
 394   8 O     -0.380  1.746  4.634  0.000    21.289     6.186
 395   6 C     -0.085  1.068  3.018  0.000    22.127     6.697
 396   6 C      0.370  1.023  2.607  0.000    20.733     7.452
 397   8 O     -0.655  1.777  4.879  0.000    27.515     7.033
 398   8 O     -0.627  1.763  4.863  0.000    26.780     6.938
 399   1 H      0.173  0.827  0.000  0.000     1.256     1.756
 400   1 H      0.049  0.951  0.000  0.000     2.334     2.389
 401   1 H      0.011  0.989  0.000  0.000     2.872     2.650
 402   1 H      0.025  0.975  0.000  0.000     2.655     2.548
 403   1 H      0.185  0.815  0.000  0.000     1.187     1.706
 404   1 H      0.073  0.927  0.000  0.000     2.054     2.241
 405   1 H      0.182  0.818  0.000  0.000     1.202     1.717
 406   1 H      0.073  0.927  0.000  0.000     2.049     2.239
 407   1 H      0.186  0.814  0.000  0.000     1.179     1.701
 408   1 H      0.071  0.929  0.000  0.000     2.076     2.253
 409   1 H      0.188  0.812  0.000  0.000     1.168     1.693
 410   1 H      0.081  0.919  0.000  0.000     1.964     2.192
 411   1 H      0.173  0.827  0.000  0.000     1.254     1.754
 412   1 H      0.072  0.928  0.000  0.000     2.066     2.248

 Mol. C6AA /au·bohr⁶  :    1569195.978005
 Mol. C8AA /au·bohr⁸  :   34490618.283216
 Mol. α(0) /au        :       1860.814548

 
molecular dipole:
                 x           y           z       tot (Debye)
 q only:     -951.222    -396.357    -573.106
   full:     -947.359    -394.821    -575.535    2990.924
molecular quadrupole (traceless):
                xx          xy          yy          xz          yz          zz
 q only:  -219873.839 -188879.005  153793.296 -271646.992 -113388.004   66080.543
  q+dip:  -217249.932 -187356.001  153517.724 -271646.352 -113472.191   63732.208
   full:  -217249.134 -187360.989  153520.885 -271642.687 -113470.421   63728.249
speedup 12.62
cpu  time for grad   41.46 s
wall time for grad    3.29 s

SCC energy    :    -662.6345100
rep           :       7.5280666
ES            :       2.6133992
AES           :      -0.1103803
AXC           :       0.1673880
disp          :      -0.5649963
XB            :       0.0000000
fix           :       0.0000000
Gborn         :       0.0000000
Gsasa         :       0.0000000
Ghb           :       0.0000000
Gshift        :       0.0000000
Gsolv         :      -0.7667807     -481.16
Etot ala COSMO:    -662.6345100
grad norm     :       0.5004557
total E       :    -655.0468291
atomizationE  :     116.7171226    73241.10
(atE without considering molecular charge,
 total energy contains solvation terms)
H-L gap (eV)  :          1.3326

------------------------------------------------------------------------
 * finished run on 2019/02/13 at 00:18:07.272     
------------------------------------------------------------------------
 total:
 * wall-time:     0 d,  0 h,  0 min,  3.676 sec
 *  cpu-time:     0 d,  0 h,  0 min, 47.496 sec
 * ratio c/w:    12.921 speedup
 SCF:
 * wall-time:     0 d,  0 h,  0 min,  3.457 sec
 *  cpu-time:     0 d,  0 h,  0 min, 44.202 sec
 * ratio c/w:    12.786 speedup

