      -----------------------------------------------------------      
     |                   =====================                   |     
     |                           x T B                           |     
     |                   =====================                   |     
     |                         S. Grimme                         |     
     |          Mulliken Center for Theoretical Chemistry        |     
     |                    University of Bonn                     |     
     |                Version 6.1 RC1 (SAW190329)                |     
      -----------------------------------------------------------      

   This program is distributed in the hope that it will be useful,
   but WITHOUT ANY WARRANTY; without even the implied warranty of
   MERCHANTABILITY or FITNESS FOR A PARTICULAR PURPOSE.
   
   FOR NON-COMMERCIAL, ACADEMIA USE ONLY.
   
   Cite this work as:
   S. Grimme, C. Bannwarth, P. Shushkov, J. Comput. Theory Chem., 2017,
   13, 1989-2009. DOI: 10.1021/acs.jctc.7b00118
   C. Bannwarth, S. Ehlert and S. Grimme., J. Comput. Theory Chem., 2019,
   just accepted. DOI: 10.1021/acs.jctc.8b01176
   
   for sTDA-xTB:
   S. Grimme and C. Bannwarth, J. Chem. Phys., 2016, 145, 054103.
   DOI: 10.1063/1.4959605
   
   in the mass-spec context:
   V. Asgeirsson, C. Bauer and S. Grimme, Chem. Sci., 2017, 8, 4879.
   DOI: 10.1039/c7sc00601b
   
   for metadynamics refer to:
   S. Grimme, ChemRxiv, Preprint. DOI: 10.26434/chemrxiv.7660532.v1
   
   with help from (in alphabetical order)
   C. Bannwarth, F. Bohle, G. Brandenburg, E. Caldeweyher, M. Checinski,
   S. Dohm, S. Ehlert, S. Ehrlich, F. März, H. Neugebauer, J. Pisarek,
   P. Pracht, P. Shushkov, and S. Spicher.
   
 * started run on 2019/05/31 at 05:35:29.007     

           -------------------------------------------------
          |                Calculation Setup                |
           -------------------------------------------------

          program call               : /home/lum/install/xtb/xtb-190329/bin/xtb xtb_tmp.xyz --chrg 1 --grad --gfn 2 --etemp 500 --acc 0.1 --gbsa h2o --parallel 2
          hostname                   : cpu02
          coordinate file            : xtb_tmp.xyz
          omp threads                :                     2
          number of atoms            :                    59
          number of electrons        :                   160
          charge                     :                     1
          spin                       :                   0.0
          first test random number   :      0.40365559249684


########################################################################
# WARNING! Please study the warnings concerning your input carefully
#  - XTBPATH is not set, using XTBHOME instead
#  - Process number higher than OMP_NUM_THREADS, I hope you know what you are doing.
########################################################################

           ------------------------------------------------- 
          |                 G F N 2 - x T B                 |
          | Geometry, Frequencies, Noncovalent interactions |
          |            JCTC 2018 parametrisation            |
           ------------------------------------------------- 
 
             k(s)              :                1.8500
             k(p)              :                2.2300
             k(d)              :                2.2300
             k(f)              :                2.0000
             kEN (H0ij)        :               -2.0000
             D4 a1             :                0.5200
             D4 a2             :                5.0000
             D4 s6             :                1.0000
             D4 s8             :                2.7000
             D4 s9             :                5.0000
             alphaj            :                2.0000

  Z AO/shell   Hii/eV     exponent
  1     Wed Apr 25 08:07:45 CEST 2018   EN: 2.200 GM2: 0.406  GM3: 0.0800  RAES: 1.40
     1s    -10.707211    1.230000
  6     Wed Apr 25 08:07:45 CEST 2018   EN: 2.550 GM2: 0.538  GM3: 0.1500  RAES: 3.00
     2s    -13.970922    2.096432
     2p    -10.063292    1.800000
  7     Wed Apr 25 08:07:45 CEST 2018   EN: 3.040 GM2: 0.461  GM3:-0.0640  RAES: 1.90
     2s    -16.686243    2.339881
     2p    -12.523956    2.014332
  8     Wed Apr 25 08:07:45 CEST 2018   EN: 3.440 GM2: 0.452  GM3:-0.0517  RAES: 1.80
     2s    -20.229985    2.439742
     2p    -15.503117    2.137023

 Solvent             : h2o
 Using internal parameter file: .param_gbsa2_h2o
 Gsolv ref. state (COSMO-RS): gsolv [1 M gas/solution]
 temperature (mdtemp)       :    298.150000000000     
 dielectric constant        :    80.2000000000000     
 rho                        :    1.00000000000000     
 mass                       :    18.0000000000000     
 surface tension            :    15.5689454083859     
 probe radius               :   0.975313790000000     
 vdW radii scaling          :    1.00000000000000     
 Gshift (Eh)                :   1.857443126794793E-003
 c1                         :    1.55243817000000     
 soset                      :   0.130326360000000     
 HB correction              :  T
 Number of grid points      :          230

            Z     q(EN)     CN     RAES       Cart. coordinates
     1  N   5.0   -0.68    2.99    1.92   442.30476   142.21655   237.28054
     2  C   4.0    0.04    3.98    3.59   444.76403   141.48131   236.35679
     3  C   4.0    0.27    3.01    3.02   444.99636   140.90568   233.52893
     4  O   6.0   -0.38    1.00    1.80   447.02180   140.20323   232.66528
     5  H   1.0    0.29    1.00    1.43   441.83662   144.06256   237.19502
     6  H   1.0    0.15    0.99    1.43   446.13083   142.95305   236.82214
     7  H   1.0    0.16    0.99    1.43   445.31667   139.74667   237.34189
     8  N   5.0   -0.47    3.00    1.93   442.90863   141.15266   232.12862
     9  C   4.0    0.02    4.00    3.61   442.89217   140.48483   229.47481
    10  C   4.0    0.28    3.01    3.02   443.54362   142.77183   227.83374
    11  O   6.0   -0.42    1.00    1.80   441.95448   144.31223   227.14359
    12  H   1.0    0.25    1.00    1.43   441.28851   141.89138   232.83901
    13  H   1.0    0.14    0.99    1.43   444.27125   138.97801   229.17712
    14  H   1.0    0.12    0.99    1.43   441.00673   139.82614   228.97654
    15  N   5.0   -0.46    3.01    1.93   445.98693   142.98135   227.26375
    16  C   4.0    0.10    3.99    3.61   446.97951   144.99722   225.69664
    17  C   4.0    0.29    3.01    3.02   445.52217   145.06677   223.17967
    18  O   6.0   -0.39    1.00    1.80   445.70968   143.41470   221.59271
    19  C   4.0    0.04    3.98    3.58   449.82290   144.52107   225.22265
    20  O   6.0   -0.44    1.99    1.83   450.12328   141.90073   224.83376
    21  C   4.0   -0.19    3.98    3.58   451.40218   145.46338   227.44961
    22  H   1.0    0.28    1.00    1.43   447.23583   141.61827   227.75529
    23  H   1.0    0.12    0.99    1.43   446.73552   146.81111   226.66787
    24  H   1.0    0.13    0.99    1.43   450.36444   145.56383   223.50385
    25  H   1.0    0.28    0.99    1.43   451.87038   141.54456   224.48792
    26  H   1.0    0.13    0.99    1.43   453.39361   145.07962   227.10983
    27  H   1.0    0.12    0.99    1.43   451.16689   147.48790   227.69101
    28  H   1.0    0.15    0.99    1.43   450.83611   144.50404   229.17761
    29  N   5.0   -0.49    3.00    1.93   444.08150   147.13986   222.85666
    30  C   4.0    0.04    3.99    3.61   442.59219   147.43576   220.58972
    31  C   4.0    0.28    3.00    3.02   440.42478   145.54604   220.25773
    32  O   6.0   -0.39    1.00    1.80   439.70144   144.98057   218.13664
    33  H   1.0    0.26    1.00    1.43   443.63299   148.19906   224.37629
    34  H   1.0    0.13    0.99    1.43   441.80807   149.34192   220.54359
    35  H   1.0    0.16    0.99    1.43   443.83464   147.19417   218.95386
    36  N   5.0   -0.48    3.00    1.93   439.39063   144.62733   222.37541
    37  C   4.0    0.07    3.99    3.60   437.40310   142.75480   222.33430
    38  C   4.0    0.09    3.00    3.02   434.96282   143.70813   223.57063
    39  O   6.0   -0.34    1.00    1.80   433.29339   142.26142   224.24504
    40  C   4.0   -0.12    3.98    3.59   438.21216   140.26347   223.58119
    41  C   4.0   -0.15    3.98    3.59   440.78301   139.27635   222.71625
    42  C   4.0   -0.13    3.98    3.59   440.98614   138.89608   219.86458
    43  C   4.0   -0.03    3.98    3.59   443.62865   137.99277   219.16680
    44  N   5.0   -0.72    3.98    2.82   443.95193   138.08152   216.37675
    45  H   1.0    0.30    1.00    1.43   440.16098   144.98900   224.09593
    46  H   1.0    0.16    0.99    1.43   436.90935   142.41856   220.34796
    47  H   1.0    0.13    0.99    1.43   438.26920   140.57212   225.62003
    48  H   1.0    0.14    0.99    1.43   436.72165   138.89769   223.18898
    49  H   1.0    0.15    0.99    1.43   442.24250   140.60428   223.31082
    50  H   1.0    0.12    0.99    1.43   441.15058   137.48900   223.67939
    51  H   1.0    0.13    0.99    1.43   439.57928   137.53087   219.23571
    52  H   1.0    0.16    0.99    1.43   440.61521   140.68417   218.91681
    53  H   1.0    0.16    0.99    1.43   445.02176   139.22985   220.05141
    54  H   1.0    0.13    0.99    1.43   443.90994   136.06451   219.83232
    55  H   1.0    0.27    1.00    1.43   445.57251   137.16758   215.83092
    56  H   1.0    0.26    0.99    1.43   442.37260   137.28282   215.49806
    57  H   1.0    0.28    1.00    1.43   444.03581   139.93256   215.79695
    58  H   1.0    0.32    1.00    1.43   441.09988   141.41172   236.39000
    59  H   1.0    0.17    1.00    1.43   434.70349   145.55977   223.84495

           ------------------------------------------------- 
          |        Self-Consistent Charge Iterations        |
           ------------------------------------------------- 

          ...................................................
          :                      SETUP                      :
          :.................................................:
          :  # basis functions                 143          :
          :  # atomic orbitals                 143          :
          :  # shells                           87          :
          :  # electrons                       160          :
          :  max. iterations                   250          :
          :  Hamiltonian                  GFN2-xTB          :
          :  restarted?                      false          :
          :  GBSA solvation                   true          :
          :  PC potential                    false          :
          :  electronic temp.          500.0000000     K    :
          :  accuracy                    0.1000000          :
          :  -> integral cutoff          0.3500000E+02      :
          :  -> integral neglect         0.1000000E-08      :
          :  -> SCF convergence          0.1000000E-06 Eh   :
          :  -> wf. convergence          0.1000000E-04 e    :
          :  Broyden damping             0.4000000          :
          ...................................................

 iter      E             dE          RMSdq      gap      omega  full diag
   1    -92.4421733 -0.924422E+02  0.448E+00    2.51       0.0  T
   2    -92.7539714 -0.311798E+00  0.231E+00    1.99       1.0  T
   3    -92.7634780 -0.950657E-02  0.125E+00    2.47       1.0  T
   4    -92.7647965 -0.131856E-02  0.295E-01    2.19       1.0  T
   5    -92.7673187 -0.252214E-02  0.117E-01    2.37       1.0  T
   6    -92.7674326 -0.113967E-03  0.540E-02    2.34       1.0  T
   7    -92.7674411 -0.842199E-05  0.133E-02    2.35       1.0  T
   8    -92.7674431 -0.203875E-05  0.608E-03    2.36       2.1  T
   9    -92.7674434 -0.293632E-06  0.245E-03    2.36       5.3  T
  10    -92.7674434 -0.271291E-07  0.855E-04    2.36      15.2  T
  11    -92.7674434 -0.602319E-08  0.247E-04    2.36      52.8  T
  12    -92.7674434 -0.111002E-08  0.101E-04    2.36     128.5  T
  13    -92.7674434 -0.677858E-10  0.483E-05    2.36     269.5  T
  14    -92.7674434 -0.157456E-10  0.160E-05    2.36     811.4  T

   *** convergence criteria satisfied after 14 iterations ***

         #    Occupation            Energy/Eh            Energy/eV
      -------------------------------------------------------------
         1        2.0000           -0.7328473             -19.9418
       ...           ...                  ...                  ...
        74        2.0000           -0.4266828             -11.6106
        75        2.0000           -0.4257455             -11.5851
        76        2.0000           -0.4110090             -11.1841
        77        2.0000           -0.4068325             -11.0705
        78        2.0000           -0.4059039             -11.0452
        79        2.0000           -0.4033605             -10.9760
        80        2.0000           -0.3744482             -10.1893 (HOMO)
        81                         -0.2878059              -7.8316 (LUMO)
        82                         -0.2444778              -6.6526
        83                         -0.2361934              -6.4271
        84                         -0.2241247              -6.0987
        85                         -0.2214968              -6.0272
       ...                                ...                  ...
       143                          0.6142120              16.7136
      -------------------------------------------------------------
                  HL-Gap            0.0866423 Eh            2.3577 eV
             Fermi-level           -0.3311271 Eh           -9.0104 eV

 SCC (total)                   0 d,  0 h,  0 min,  0.084 sec
 SCC setup                      ...        0 min,  0.003 sec (  4.010%)
 Dispersion                     ...        0 min,  0.001 sec (  1.093%)
 integral evaluation            ...        0 min,  0.009 sec ( 10.587%)
 zeroth order Hamiltonian       ...        0 min,  0.000 sec (  0.361%)
 iterations                     ...        0 min,  0.048 sec ( 57.938%)
 molecular gradient             ...        0 min,  0.021 sec ( 25.060%)
 printout                       ...        0 min,  0.001 sec (  0.902%)

         :::::::::::::::::::::::::::::::::::::::::::::::::::::
         ::                     SUMMARY                     ::
         :::::::::::::::::::::::::::::::::::::::::::::::::::::
         :: total energy              -91.710163965065 Eh   ::
         :: total w/o Gsasa/hb        -91.689504191850 Eh   ::
         :: gradient norm               0.222636130849 Eh/α ::
         :: HOMO-LUMO gap               2.357655969496 eV   ::
         ::.................................................::
         :: SCC energy                -92.769809852024 Eh   ::
         :: -> isotropic ES             0.339960748643 Eh   ::
         :: -> anisotropic ES          -0.014868450167 Eh   ::
         :: -> anisotropic XC           0.028329343458 Eh   ::
         :: -> dispersion              -0.058121184957 Eh   ::
         :: -> Gsolv                   -0.121728580272 Eh   ::
         ::    -> Gborn                -0.101068807057 Eh   ::
         ::    -> Gsasa                -0.004223872227 Eh   ::
         ::    -> Ghb                  -0.018293344115 Eh   ::
         ::    -> Gshift                0.001857443127 Eh   ::
         :: repulsion energy            1.057638141035 Eh   ::
         :: add. restraining            0.000000000000 Eh   ::
         :::::::::::::::::::::::::::::::::::::::::::::::::::::

           -------------------------------------------------
          |                Property Printout                |
           -------------------------------------------------

    * Orbital Energies and Occupations

         #    Occupation            Energy/Eh            Energy/eV
      -------------------------------------------------------------
         1        2.0000           -0.7328473             -19.9418
       ...           ...                  ...                  ...
        68        2.0000           -0.4504070             -12.2562
        69        2.0000           -0.4465665             -12.1517
        70        2.0000           -0.4454136             -12.1203
        71        2.0000           -0.4423284             -12.0364
        72        2.0000           -0.4360954             -11.8668
        73        2.0000           -0.4292903             -11.6816
        74        2.0000           -0.4266828             -11.6106
        75        2.0000           -0.4257455             -11.5851
        76        2.0000           -0.4110090             -11.1841
        77        2.0000           -0.4068325             -11.0705
        78        2.0000           -0.4059039             -11.0452
        79        2.0000           -0.4033605             -10.9760
        80        2.0000           -0.3744482             -10.1893 (HOMO)
        81                         -0.2878059              -7.8316 (LUMO)
        82                         -0.2444778              -6.6526
        83                         -0.2361934              -6.4271
        84                         -0.2241247              -6.0987
        85                         -0.2214968              -6.0272
        86                         -0.0675052              -1.8369
        87                         -0.0273954              -0.7455
        88                         -0.0194839              -0.5302
        89                         -0.0105332              -0.2866
        90                         -0.0053020              -0.1443
        91                          0.0266787               0.7260
       ...                                ...                  ...
       143                          0.6142120              16.7136
      -------------------------------------------------------------
                  HL-Gap            0.0866423 Eh            2.3577 eV
             Fermi-level           -0.3311271 Eh           -9.0104 eV

   #   Z        covCN         q      C6AA      α(0)
   1   7 N      2.631    -0.391    30.128     8.152
   2   6 C      3.734    -0.021    21.046     6.548
   3   6 C      2.752     0.263    22.558     7.777
   4   8 O      0.859    -0.502    23.837     6.546
   5   1 H      0.860     0.166     1.295     1.782
   6   1 H      0.924     0.068     2.111     2.272
   7   1 H      0.924     0.075     2.027     2.227
   8   7 N      2.686    -0.172    24.727     7.385
   9   6 C      3.748    -0.033    21.236     6.573
  10   6 C      2.752     0.270    22.446     7.758
  11   8 O      0.859    -0.491    23.578     6.510
  12   1 H      0.860     0.207     1.073     1.623
  13   1 H      0.924     0.091     1.870     2.138
  14   1 H      0.925     0.089     1.889     2.149
  15   7 N      2.693    -0.151    24.270     7.317
  16   6 C      3.794     0.012    20.375     6.428
  17   6 C      2.758     0.271    22.428     7.755
  18   8 O      0.858    -0.438    22.454     6.353
  19   6 C      3.726     0.118    18.751     6.183
  20   8 O      1.656    -0.469    22.242     6.366
  21   6 C      3.752    -0.140    23.253     6.877
  22   1 H      0.860     0.232     0.956     1.532
  23   1 H      0.924     0.059     2.216     2.328
  24   1 H      0.923     0.033     2.538     2.492
  25   1 H      0.805     0.345     0.600     1.216
  26   1 H      0.925     0.061     2.190     2.314
  27   1 H      0.925     0.054     2.276     2.359
  28   1 H      0.925     0.059     2.214     2.327
  29   7 N      2.685    -0.175    24.799     7.396
  30   6 C      3.747    -0.039    21.343     6.590
  31   6 C      2.751     0.278    22.302     7.733
  32   8 O      0.859    -0.483    23.411     6.487
  33   1 H      0.860     0.210     1.056     1.609
  34   1 H      0.924     0.093     1.849     2.127
  35   1 H      0.924     0.107     1.724     2.053
  36   7 N      2.687    -0.173    24.748     7.388
  37   6 C      3.791     0.019    20.263     6.411
  38   6 C      2.765     0.198    23.785     7.987
  39   8 O      0.856    -0.372    21.130     6.163
  40   6 C      3.805    -0.070    21.832     6.652
  41   6 C      3.804    -0.071    21.847     6.654
  42   6 C      3.803    -0.093    22.276     6.719
  43   6 C      3.733    -0.051    21.583     6.631
  44   7 N      3.483    -0.146    24.159     7.300
  45   1 H      0.860     0.221     1.007     1.572
  46   1 H      0.924     0.118     1.629     1.996
  47   1 H      0.924     0.047     2.361     2.403
  48   1 H      0.925     0.076     2.021     2.223
  49   1 H      0.924     0.046     2.376     2.410
  50   1 H      0.924     0.062     2.177     2.307
  51   1 H      0.925     0.074     2.039     2.233
  52   1 H      0.925     0.075     2.036     2.232
  53   1 H      0.924     0.125     1.576     1.963
  54   1 H      0.925     0.116     1.644     2.005
  55   1 H      0.859     0.304     0.702     1.313
  56   1 H      0.857     0.298     0.719     1.328
  57   1 H      0.859     0.293     0.735     1.343
  58   1 H      0.862     0.180     1.211     1.724
  59   1 H      0.930     0.073     2.051     2.239

 Mol. C6AA /au·bohr⁶  :      29761.730097
 Mol. C8AA /au·bohr⁸  :     651450.966277
 Mol. α(0) /au        :        256.480728


Wiberg/Mayer (AO) data.
largest (>0.10) Wiberg bond orders for each atom
          total WBO             WBO to atom ...
     1  N   3.003        C    2 1.036    H    5 0.958    H   58 0.948
     2  C   3.983        N    1 1.036    H    6 0.959    C    3 0.952    H    7 0.948
     3  C   3.944        O    4 1.632    N    8 1.285    C    2 0.952
     4  O   1.941        C    3 1.632    N    8 0.188
     5  H   0.972        N    1 0.958
     6  H   0.995        C    2 0.959
     7  H   0.994        C    2 0.948
     8  N   3.459        C    3 1.285    C    9 0.987    H   12 0.918    O    4 0.188
     9  C   3.962        N    8 0.987    H   13 0.961    H   14 0.961    C   10 0.943
    10  C   3.952        O   11 1.598    N   15 1.333    C    9 0.943
    11  O   1.950        C   10 1.598    N   15 0.203
    12  H   0.957        N    8 0.918
    13  H   0.992        C    9 0.961
    14  H   0.992        C    9 0.961
    15  N   3.505        C   10 1.333    C   16 0.982    H   22 0.906    O   11 0.203
    16  C   3.969        N   15 0.982    C   19 0.965    H   23 0.954    C   17 0.927
    17  C   3.955        O   18 1.673    N   29 1.276    C   16 0.927
    18  O   1.996        C   17 1.673    N   29 0.199
    19  C   3.961        O   20 0.999    C   21 0.999    C   16 0.965    H   24 0.960
    20  O   1.947        C   19 0.999    H   25 0.864
    21  C   3.991        C   19 0.999    H   28 0.984    H   27 0.984    H   26 0.982
    22  H   0.946        N   15 0.906
    23  H   0.996        C   16 0.954
    24  H   0.998        C   19 0.960
    25  H   0.881        O   20 0.864
    26  H   0.996        C   21 0.982
    27  H   0.997        C   21 0.984
    28  H   0.997        C   21 0.984
    29  N   3.457        C   17 1.276    C   30 0.998    H   33 0.924    O   18 0.199
    30  C   3.959        N   29 0.998    H   35 0.954    H   34 0.951    C   31 0.946
    31  C   3.953        O   32 1.632    N   36 1.303    C   30 0.946
    32  O   1.959        C   31 1.632    N   36 0.198
    33  H   0.956        N   29 0.924
    34  H   0.991        C   30 0.951
    35  H   0.988        C   30 0.954
    36  N   3.476        C   31 1.303    C   37 0.991    H   45 0.893    O   32 0.198
    37  C   3.966        N   36 0.991    C   38 0.984    C   40 0.966    H   46 0.910
    38  C   3.901        O   39 1.892    C   37 0.984    H   59 0.953
    39  O   2.041        C   38 1.892
    40  C   3.985        C   41 1.007    H   47 0.972    H   48 0.969    C   37 0.966
    41  C   3.993        C   40 1.007    C   42 1.005    H   50 0.972    H   49 0.971
    42  C   3.988        C   43 1.010    C   41 1.005    H   51 0.972    H   52 0.965
    43  C   3.911        C   42 1.010    H   54 0.965    H   53 0.959    N   44 0.956
    44  N   3.665        C   43 0.956    H   57 0.900    H   55 0.895    H   56 0.894
    45  H   0.951        N   36 0.893
    46  H   0.986        C   37 0.910
    47  H   0.997        C   40 0.972
    48  H   0.994        C   40 0.969
    49  H   0.998        C   41 0.971
    50  H   0.996        C   41 0.972
    51  H   0.994        C   42 0.972
    52  H   0.994        C   42 0.965
    53  H   0.984        C   43 0.959
    54  H   0.986        C   43 0.965
    55  H   0.907        N   44 0.895
    56  H   0.911        N   44 0.894
    57  H   0.914        N   44 0.900
    58  H   0.967        N    1 0.948
    59  H   0.994        C   38 0.953
 
molecular dipole:
                 x           y           z       tot (Debye)
 q only:      445.158     139.724     218.854
   full:      445.360     140.400     219.184    1311.183
molecular quadrupole (traceless):
                xx          xy          yy          xz          yz          zz
 q only:   164425.659   93311.771 -103491.497  146131.104   45903.275  -60934.162
  q+dip:   164436.858   93803.188 -103456.914  146416.299   46205.039  -60979.944
   full:   164436.834   93803.230 -103457.489  146416.292   46205.136  -60979.345


           -------------------------------------------------
          | TOTAL ENERGY              -91.710163965065 Eh   |
          | GRADIENT NORM               0.222636130849 Eh/α |
          | HOMO-LUMO GAP               2.357655969496 eV   |
           -------------------------------------------------

------------------------------------------------------------------------
 * finished run on 2019/05/31 at 05:35:29.312     
------------------------------------------------------------------------
 total:
 * wall-time:     0 d,  0 h,  0 min,  0.304 sec
 *  cpu-time:     0 d,  0 h,  0 min,  0.379 sec
 * ratio c/w:     1.245 speedup
 SCF:
 * wall-time:     0 d,  0 h,  0 min,  0.084 sec
 *  cpu-time:     0 d,  0 h,  0 min,  0.168 sec
 * ratio c/w:     2.002 speedup

