      -----------------------------------------------------------      
     |                   =====================                   |     
     |                           x T B                           |     
     |                   =====================                   |     
     |                         S. Grimme                         |     
     |          Mulliken Center for Theoretical Chemistry        |     
     |                    University of Bonn                     |     
     |                Version 6.1 RC1 (SAW190329)                |     
      -----------------------------------------------------------      

   This program is distributed in the hope that it will be useful,
   but WITHOUT ANY WARRANTY; without even the implied warranty of
   MERCHANTABILITY or FITNESS FOR A PARTICULAR PURPOSE.
   
   FOR NON-COMMERCIAL, ACADEMIA USE ONLY.
   
   Cite this work as:
   S. Grimme, C. Bannwarth, P. Shushkov, J. Comput. Theory Chem., 2017,
   13, 1989-2009. DOI: 10.1021/acs.jctc.7b00118
   C. Bannwarth, S. Ehlert and S. Grimme., J. Comput. Theory Chem., 2019,
   just accepted. DOI: 10.1021/acs.jctc.8b01176
   
   for sTDA-xTB:
   S. Grimme and C. Bannwarth, J. Chem. Phys., 2016, 145, 054103.
   DOI: 10.1063/1.4959605
   
   in the mass-spec context:
   V. Asgeirsson, C. Bauer and S. Grimme, Chem. Sci., 2017, 8, 4879.
   DOI: 10.1039/c7sc00601b
   
   for metadynamics refer to:
   S. Grimme, ChemRxiv, Preprint. DOI: 10.26434/chemrxiv.7660532.v1
   
   with help from (in alphabetical order)
   C. Bannwarth, F. Bohle, G. Brandenburg, E. Caldeweyher, M. Checinski,
   S. Dohm, S. Ehlert, S. Ehrlich, F. März, H. Neugebauer, J. Pisarek,
   P. Pracht, P. Shushkov, and S. Spicher.
   
 * started run on 2019/05/31 at 04:12:51.846     

           -------------------------------------------------
          |                Calculation Setup                |
           -------------------------------------------------

          program call               : /home/lum/install/xtb/xtb-190329/bin/xtb xtb_tmp.xyz --chrg 2 --grad --gfn 2 --etemp 500 --acc 0.1 --gbsa h2o --parallel 1
          hostname                   : cu08
          coordinate file            : xtb_tmp.xyz
          omp threads                :                     1
          number of atoms            :                   581
          number of electrons        :                  1570
          charge                     :                     2
          spin                       :                   0.0
          first test random number   :      0.56593405832741


molecular fragmentation (1/2 indicates fragments):
111111111121111111111111112222222222222222222222222222222222222222222222
222222222222222222222222222222222222222222222222222222222222222222222222
222222222222222222222222222222222222222222222222222222222222222222222222
222222222222222222222222222222222222222222222222222222222222222222222222
222222222222222222222222222222222222222222222222222222222222222222222222
222222222222222222222222222222222222222222222222222222222222222222222222
222222222222222222222222222222222222222222222222222222222222222222222222
222222222222222222222222222222222222222222222222222222222222222222221222
22222
# atoms in fragment 1/2:    26   555
 fragment masses (1/2) :      190.26     3793.45
CMA distance (Bohr)    :  30.934
constraining FC (au)   :  0.0500

########################################################################
# WARNING! Please study the warnings concerning your input carefully
#  - XTBPATH is not set, using XTBHOME instead
########################################################################

           ------------------------------------------------- 
          |                 G F N 2 - x T B                 |
          | Geometry, Frequencies, Noncovalent interactions |
          |            JCTC 2018 parametrisation            |
           ------------------------------------------------- 
 
             k(s)              :                1.8500
             k(p)              :                2.2300
             k(d)              :                2.2300
             k(f)              :                2.0000
             kEN (H0ij)        :               -2.0000
             D4 a1             :                0.5200
             D4 a2             :                5.0000
             D4 s6             :                1.0000
             D4 s8             :                2.7000
             D4 s9             :                5.0000
             alphaj            :                2.0000

  Z AO/shell   Hii/eV     exponent
  1     Wed Apr 25 08:07:45 CEST 2018   EN: 2.200 GM2: 0.406  GM3: 0.0800  RAES: 1.40
     1s    -10.707211    1.230000
  6     Wed Apr 25 08:07:45 CEST 2018   EN: 2.550 GM2: 0.538  GM3: 0.1500  RAES: 3.00
     2s    -13.970922    2.096432
     2p    -10.063292    1.800000
  7     Wed Apr 25 08:07:45 CEST 2018   EN: 3.040 GM2: 0.461  GM3:-0.0640  RAES: 1.90
     2s    -16.686243    2.339881
     2p    -12.523956    2.014332
  8     Wed Apr 25 08:07:45 CEST 2018   EN: 3.440 GM2: 0.452  GM3:-0.0517  RAES: 1.80
     2s    -20.229985    2.439742
     2p    -15.503117    2.137023
 16     Tue Apr 24 11:44:34 CEST 2018   EN: 2.580 GM2: 0.340  GM3:-0.0502  RAES: 3.10
     3s    -20.029654    1.981333
     3p    -11.377694    2.025643
     3d     -0.420282    1.702555

 Solvent             : h2o
 Using internal parameter file: .param_gbsa2_h2o
 Gsolv ref. state (COSMO-RS): gsolv [1 M gas/solution]
 temperature (mdtemp)       :    298.150000000000     
 dielectric constant        :    80.2000000000000     
 rho                        :    1.00000000000000     
 mass                       :    18.0000000000000     
 surface tension            :    15.5689454083859     
 probe radius               :   0.975313790000000     
 vdW radii scaling          :    1.00000000000000     
 Gshift (Eh)                :   1.857443126794793E-003
 c1                         :    1.55243817000000     
 soset                      :   0.130326360000000     
 HB correction              :  T
 Number of grid points      :          230

            Z     q(EN)     CN     RAES       Cart. coordinates
     1  N   5.0   -0.69    3.02    1.93    19.15895    29.62827    59.88819
     2  C   4.0    0.06    3.98    3.59    18.46961    27.00826    59.29665
     3  C   4.0    0.30    3.01    3.02    20.78479    25.71485    58.10789
     4  O   6.0   -0.44    1.00    1.80    21.05249    25.43023    55.83525
     5  C   4.0   -0.13    4.00    3.63    16.18758    26.95681    57.51273
     6  C   4.0   -0.14    3.98    3.58    13.73117    26.69939    58.98968
     7  S   6.0   -0.10    2.01    3.10    10.95823    26.42183    56.93892
     8  C   4.0   -0.19    3.98    3.58    10.38604    29.73417    56.26760
     9  H   1.0    0.26    1.00    1.43    17.58502    30.63170    60.32151
    10  H   1.0    0.27    1.00    1.43    20.36625    29.73837    61.37578
    11  H   1.0    0.32    1.00    1.43    20.58286    31.24178    57.67810
    12  H   1.0    0.10    0.99    1.43    17.96725    25.93205    61.00787
    13  H   1.0    0.13    0.99    1.43    16.17758    28.67273    56.37282
    14  H   1.0    0.13    0.99    1.43    16.35863    25.36598    56.21481
    15  H   1.0    0.12    0.99    1.43    13.73334    24.96122    60.09364
    16  H   1.0    0.11    0.99    1.43    13.39763    28.30049    60.23981
    17  H   1.0    0.13    0.99    1.43     8.74180    29.79990    55.04424
    18  H   1.0    0.12    0.99    1.43     9.99105    30.72700    58.02085
    19  H   1.0    0.12    0.99    1.43    12.00031    30.54972    55.29968
    20  N   5.0   -0.49    3.00    1.93    22.40133    24.79397    59.84207
    21  C   4.0    0.02    3.99    3.60    24.97249    24.04101    59.26591
    22  C   4.0    0.10    3.00    3.02    25.21761    22.32685    56.98876
    23  O   6.0   -0.46    1.00    1.80    27.06815    22.49960    55.60367
    24  H   1.0    0.23    1.00    1.43    22.10762    25.24922    61.67103
    25  H   1.0    0.16    0.99    1.43    26.13369    25.71145    58.87196
    26  H   1.0    0.11    0.99    1.43    25.73209    23.04164    60.90457
    27  N   5.0   -0.69    3.00    1.93    23.27390    22.48887    51.74410
    28  C   4.0    0.08    3.98    3.59    23.87280    23.94931    49.50223
    29  C   4.0    0.28    3.01    3.02    26.64834    23.68950    48.75343
    30  O   6.0   -0.40    1.00    1.80    27.26204    23.72694    46.50773
    31  C   4.0   -0.19    3.99    3.60    23.27618    26.73011    49.99859
    32  H   1.0    0.32    1.00    1.43    22.33930    23.46145    53.11951
    33  H   1.0    0.12    0.99    1.43    22.77678    23.24749    47.88471
    34  H   1.0    0.11    0.99    1.43    23.78098    27.88260    48.37638
    35  H   1.0    0.12    0.99    1.43    21.26505    26.94831    50.34692
    36  H   1.0    0.14    0.99    1.43    24.32790    27.39049    51.63627
    37  N   5.0   -0.48    3.00    1.93    28.32706    23.56222    50.62964
    38  C   4.0    0.07    3.99    3.60    31.01895    23.45362    50.12850
    39  C   4.0    0.09    3.00    3.02    31.74972    21.24329    48.40786
    40  O   6.0   -0.38    1.00    1.80    33.66008    21.37587    47.10005
    41  C   4.0   -0.14    3.98    3.58    32.51987    23.46816    52.62227
    42  C   4.0   -0.14    3.98    3.58    33.04434    20.85014    53.76569
    43  C   4.0   -0.03    3.98    3.59    32.57708    20.72181    56.61672
    44  N   5.0   -0.48    3.02    1.93    34.10091    22.53145    58.01129
    45  C   4.0    0.37    3.00    3.02    34.89465    22.32114    60.38468
    46  N   5.0   -0.64    3.02    1.93    34.59917    20.20526    61.70910
    47  N   5.0   -0.65    3.02    1.93    35.96032    24.31268    61.49961
    48  H   1.0    0.31    1.00    1.43    27.75474    23.29850    52.45731
    49  H   1.0    0.14    0.99    1.43    31.52871    25.14539    49.04095
    50  H   1.0    0.10    0.99    1.43    34.30779    24.42022    52.25111
    51  H   1.0    0.12    0.99    1.43    31.39338    24.59773    53.92906
    52  H   1.0    0.12    0.99    1.43    31.80298    19.45676    52.89776
    53  H   1.0    0.12    0.99    1.43    34.97743    20.28794    53.32869
    54  H   1.0    0.15    0.99    1.43    30.57485    21.10952    56.95319
    55  H   1.0    0.12    0.99    1.43    33.02465    18.80769    57.22656
    56  H   1.0    0.23    1.00    1.43    34.29009    24.23577    57.16805
    57  H   1.0    0.27    1.00    1.43    33.94203    18.61740    60.89525
    58  H   1.0    0.27    1.00    1.43    35.36663    20.05581    63.44483
    59  H   1.0    0.26    1.00    1.43    36.19563    25.95409    60.56556
    60  H   1.0    0.27    1.00    1.43    36.68214    24.18315    63.25466
    61  N   5.0   -0.72    3.00    1.93    57.84216    44.08223    29.46032
    62  C   4.0    0.07    3.99    3.60    55.92098    45.97173    29.02634
    63  C   4.0    0.28    3.01    3.02    54.60227    46.69825    31.47790
    64  O   6.0   -0.49    1.00    1.80    53.97913    48.91620    31.88097
    65  C   4.0   -0.15    3.98    3.59    53.99621    45.09105    27.05470
    66  C   4.0   -0.16    3.98    3.59    52.41028    47.29052    26.05084
    67  C   4.0   -0.15    3.98    3.58    53.90523    48.98581    24.24714
    68  C   4.0   -0.05    3.98    3.58    52.37311    51.29883    23.41703
    69  N   5.0   -0.73    3.98    2.81    53.60237    53.67934    24.28273
    70  H   1.0    0.26    1.00    1.43    57.73156    42.40748    28.53782
    71  H   1.0    0.11    0.99    1.43    56.87128    47.69653    28.37217
    72  H   1.0    0.11    0.99    1.43    55.00250    44.19199    25.49612
    73  H   1.0    0.11    0.99    1.43    52.77790    43.66676    27.91498
    74  H   1.0    0.11    0.99    1.43    50.77504    46.54231    25.04390
    75  H   1.0    0.13    0.99    1.43    51.70265    48.39916    27.63838
    76  H   1.0    0.12    0.99    1.43    55.62412    49.61849    25.18545
    77  H   1.0    0.11    0.99    1.43    54.44629    47.85660    22.61614
    78  H   1.0    0.12    0.99    1.43    52.16680    51.36949    21.37092
    79  H   1.0    0.12    0.99    1.43    50.46813    51.20112    24.19404
    80  H   1.0    0.25    1.00    1.43    52.49397    55.20694    23.83149
    81  H   1.0    0.30    0.99    1.43    53.85668    53.65677    26.25785
    82  H   1.0    0.25    1.00    1.43    55.33640    53.88143    23.42678
    83  N   5.0   -0.49    3.01    1.93    54.14188    44.84591    33.09140
    84  C   4.0    0.06    3.99    3.61    52.77922    45.20918    35.45232
    85  C   4.0    0.30    3.01    3.02    53.52636    47.72375    36.66328
    86  O   6.0   -0.46    1.00    1.80    51.95108    49.31714    37.26335
    87  C   4.0   -0.15    3.98    3.59    53.33015    42.91668    37.13732
    88  C   4.0   -0.10    3.97    3.58    51.93474    42.80174    39.67891
    89  C   4.0   -0.22    3.98    3.59    52.93351    44.70239    41.60664
    90  C   4.0   -0.23    3.98    3.59    49.08348    43.10631    39.35105
    91  H   1.0    0.24    1.00    1.43    54.58797    43.03403    32.63388
    92  H   1.0    0.11    0.99    1.43    50.74742    45.32949    35.05308
    93  H   1.0    0.10    0.99    1.43    52.78648    41.25915    36.03118
    94  H   1.0    0.11    0.99    1.43    55.36518    42.80928    37.45590
    95  H   1.0    0.10    0.99    1.43    52.28559    40.90780    40.43430
    96  H   1.0    0.10    0.99    1.43    52.07589    44.33986    43.43735
    97  H   1.0    0.10    0.99    1.43    54.97285    44.55040    41.78420
    98  H   1.0    0.13    0.99    1.43    52.44496    46.61901    41.06195
    99  H   1.0    0.09    0.99    1.43    48.11562    42.68978    41.11483
   100  H   1.0    0.10    0.99    1.43    48.61283    45.03609    38.82297
   101  H   1.0    0.09    0.99    1.43    48.37059    41.82754    37.90646
   102  N   5.0   -0.49    3.01    1.93    55.99964    48.02005    37.07003
   103  C   4.0    0.06    3.99    3.60    57.06751    50.18702    38.36732
   104  C   4.0    0.29    3.01    3.02    55.97937    52.71134    37.47793
   105  O   6.0   -0.44    1.00    1.80    55.76128    54.49311    38.93331
   106  C   4.0   -0.15    3.99    3.60    59.94552    50.11634    37.99442
   107  C   4.0   -0.10    3.97    3.58    61.35427    52.45666    38.99373
   108  C   4.0   -0.22    3.98    3.59    63.82469    51.64861    40.25116
   109  C   4.0   -0.21    3.98    3.59    61.90188    54.33380    36.86904
   110  H   1.0    0.24    1.00    1.43    57.22701    46.71636    36.40064
   111  H   1.0    0.11    0.99    1.43    56.61139    50.06498    40.38905
   112  H   1.0    0.10    0.99    1.43    60.61947    48.43453    38.97645
   113  H   1.0    0.12    0.99    1.43    60.32501    49.87072    35.98230
   114  H   1.0    0.13    0.99    1.43    60.16276    53.40734    40.38513
   115  H   1.0    0.11    0.99    1.43    64.88028    53.30341    40.85578
   116  H   1.0    0.11    0.99    1.43    63.43996    50.46497    41.88332
   117  H   1.0    0.11    0.99    1.43    64.94147    50.59164    38.89112
   118  H   1.0    0.11    0.99    1.43    62.91774    55.96711    37.59321
   119  H   1.0    0.11    0.99    1.43    63.03881    53.45768    35.39846
   120  H   1.0    0.13    0.99    1.43    60.15584    55.00791    36.02495
   121  N   5.0   -0.49    3.01    1.93    55.52556    52.86427    34.98852
   122  C   4.0    0.09    3.99    3.60    54.69984    55.16333    33.78863
   123  C   4.0    0.30    3.02    3.02    51.85346    55.70066    33.85886
   124  O   6.0   -0.41    1.00    1.80    51.05918    57.70323    32.99618
   125  C   4.0   -0.01    3.98    3.59    55.59823    55.19945    31.02464
   126  O   6.0   -0.53    1.99    1.82    54.31741    53.47751    29.45299
   127  H   1.0    0.31    1.00    1.43    55.35304    51.23845    33.98422
   128  H   1.0    0.13    0.99    1.43    55.59041    56.74475    34.79452
   129  H   1.0    0.13    0.99    1.43    55.22832    57.07833    30.25625
   130  H   1.0    0.11    0.99    1.43    57.63640    54.81628    31.00332
   131  H   1.0    0.32    0.99    1.43    54.23473    51.80579    30.25108
   132  N   5.0   -0.46    3.00    1.93    50.32430    53.89452    34.72606
   133  C   4.0    0.08    4.00    3.63    47.62835    54.40512    34.77691
   134  C   4.0    0.28    3.02    3.02    47.06991    56.44490    36.75152
   135  O   6.0   -0.39    1.00    1.80    48.06655    56.43026    38.84438
   136  C   4.0   -0.09    3.98    3.58    46.08837    51.98204    35.24574
   137  C   4.0   -0.20    3.98    3.59    46.17316    51.10922    37.98865
   138  C   4.0   -0.23    3.98    3.59    43.34442    52.38608    34.44793
   139  H   1.0    0.31    1.00    1.43    50.97269    52.36847    35.68977
   140  H   1.0    0.12    0.99    1.43    47.14161    55.13898    32.90623
   141  H   1.0    0.12    0.99    1.43    46.93689    50.52042    34.04857
   142  H   1.0    0.09    0.99    1.43    45.20048    49.30775    38.16353
   143  H   1.0    0.14    0.99    1.43    48.10673    50.89153    38.63432
   144  H   1.0    0.14    0.99    1.43    45.23015    52.48059    39.19139
   145  H   1.0    0.10    0.99    1.43    42.28515    50.64041    34.67320
   146  H   1.0    0.13    0.99    1.43    42.47874    53.80936    35.65180
   147  H   1.0    0.10    0.99    1.43    43.21199    52.97614    32.48344
   148  N   5.0   -0.33    3.03    1.93    45.41198    58.24722    36.10200
   149  C   4.0    0.07    4.03    3.67    44.50412    59.97642    38.04086
   150  C   4.0    0.28    3.01    3.02    43.24919    58.47078    40.16545
   151  O   6.0   -0.43    1.00    1.80    42.25211    56.42527    39.79079
   152  C   4.0   -0.13    4.01    3.64    42.57294    61.63663    36.66170
   153  C   4.0   -0.14    4.01    3.64    43.56106    61.64820    33.95310
   154  C   4.0   -0.05    4.02    3.65    44.49657    58.93817    33.60569
   155  H   1.0    0.13    0.99    1.43    46.08849    61.07271    38.80416
   156  H   1.0    0.13    0.99    1.43    40.72161    60.73119    36.73688
   157  H   1.0    0.11    0.99    1.43    42.44016    63.51300    37.48511
   158  H   1.0    0.11    0.99    1.43    42.11894    62.14976    32.57947
   159  H   1.0    0.12    0.99    1.43    45.13804    62.96152    33.78394
   160  H   1.0    0.10    0.99    1.43    42.94670    57.69595    33.03128
   161  H   1.0    0.13    0.99    1.43    46.02866    58.82932    32.22974
   162  N   5.0   -0.49    3.01    1.93    43.25877    59.62879    42.41982
   163  C   4.0    0.07    3.99    3.61    42.08370    58.56870    44.64656
   164  C   4.0    0.27    3.01    3.02    40.52131    60.60295    45.98059
   165  O   6.0   -0.38    1.00    1.80    41.00629    62.85410    45.76312
   166  C   4.0   -0.12    3.99    3.60    44.11700    57.64479    46.50817
   167  C   4.0   -0.09    3.98    3.58    45.80383    55.56320    45.40612
   168  C   4.0   -0.21    3.99    3.60    48.08113    55.16223    47.12585
   169  C   4.0   -0.22    3.98    3.59    44.35418    53.09299    45.08089
   170  H   1.0    0.26    1.00    1.43    43.92562    61.40483    42.61992
   171  H   1.0    0.14    0.99    1.43    40.87622    57.01127    44.02909
   172  H   1.0    0.13    0.99    1.43    45.26842    59.28076    47.01998
   173  H   1.0    0.11    0.99    1.43    43.19923    56.97818    48.23078
   174  H   1.0    0.16    0.99    1.43    46.47518    56.17228    43.54639
   175  H   1.0    0.11    0.99    1.43    49.32214    53.74728    46.31163
   176  H   1.0    0.12    0.99    1.43    49.12072    56.91636    47.36494
   177  H   1.0    0.14    0.99    1.43    47.46210    54.51719    48.97417
   178  H   1.0    0.10    0.99    1.43    45.60054    51.65157    44.31708
   179  H   1.0    0.10    0.99    1.43    43.62241    52.42651    46.88223
   180  H   1.0    0.12    0.99    1.43    42.79415    53.33572    43.77069
   181  N   5.0   -0.49    3.01    1.93    38.65492    59.68674    47.42489
   182  C   4.0    0.08    3.99    3.61    37.08679    61.28500    48.99649
   183  C   4.0    0.30    3.01    3.02    38.49493    62.18245    51.36803
   184  O   6.0   -0.41    1.00    1.80    39.95877    60.80151    52.53221
   185  C   4.0   -0.14    3.99    3.60    34.75352    59.84339    49.91059
   186  C   4.0   -0.14    3.98    3.59    33.02119    59.03607    47.75015
   187  C   4.0   -0.03    3.99    3.60    30.74671    57.58172    48.77193
   188  N   5.0   -0.48    3.02    1.93    29.20289    56.71710    46.67504
   189  C   4.0    0.38    3.00    3.02    27.52132    54.85237    46.75134
   190  N   5.0   -0.64    3.02    1.93    27.01741    53.64264    48.90308
   191  N   5.0   -0.63    3.02    1.93    26.31722    54.14142    44.67231
   192  H   1.0    0.25    1.00    1.43    38.34054    57.79913    47.48834
   193  H   1.0    0.15    0.99    1.43    36.53608    62.96080    47.91372
   194  H   1.0    0.12    0.99    1.43    35.37869    58.19059    50.97706
   195  H   1.0    0.13    0.99    1.43    33.72727    61.07964    51.20627
   196  H   1.0    0.13    0.99    1.43    32.38688    60.72462    46.75209
   197  H   1.0    0.13    0.99    1.43    34.06216    57.83701    46.43733
   198  H   1.0    0.12    0.99    1.43    31.42168    55.93836    49.82815
   199  H   1.0    0.13    0.99    1.43    29.65751    58.81410    50.02918
   200  H   1.0    0.24    1.00    1.43    29.40326    57.68702    45.04364
   201  H   1.0    0.26    1.00    1.43    27.61719    54.31720    50.57271
   202  H   1.0    0.28    1.00    1.43    25.73828    52.23359    48.83644
   203  H   1.0    0.27    1.00    1.43    26.77220    54.88531    42.98612
   204  H   1.0    0.33    1.00    1.43    25.33094    52.45569    44.69563
   205  N   5.0   -0.47    3.01    1.93    37.93066    64.54163    52.04094
   206  C   4.0    0.08    3.99    3.61    38.55142    65.49128    54.52724
   207  C   4.0    0.28    3.01    3.02    37.90951    63.45690    56.48547
   208  O   6.0   -0.41    1.00    1.80    36.00288    62.16247    56.35024
   209  C   4.0   -0.14    3.98    3.59    37.07317    67.94405    54.99933
   210  C   4.0   -0.10    3.97    3.58    34.21095    67.61891    55.23518
   211  C   4.0    0.32    2.99    3.02    32.64578    67.31977    52.76296
   212  O   6.0   -0.42    1.00    1.80    33.77062    66.98545    50.70119
   213  O   6.0   -0.35    1.00    1.80    30.31389    67.42592    53.02553
   214  H   1.0    0.30    1.00    1.43    36.40669    65.45403    51.21503
   215  H   1.0    0.13    0.99    1.43    40.58873    65.89165    54.60990
   216  H   1.0    0.11    0.99    1.43    37.78323    68.79945    56.73744
   217  H   1.0    0.14    0.99    1.43    37.47426    69.22565    53.43055
   218  H   1.0    0.15    0.99    1.43    33.75217    65.96732    56.38373
   219  H   1.0    0.13    0.99    1.43    33.40855    69.26318    56.19149
   220  N   5.0   -0.50    3.00    1.93    39.57160    63.25107    58.40253
   221  C   4.0    0.03    3.99    3.61    39.27243    61.39274    60.37241
   222  C   4.0    0.28    3.00    3.02    40.89994    59.02529    60.06726
   223  O   6.0   -0.38    1.00    1.80    41.37458    57.67958    61.88818
   224  H   1.0    0.25    1.00    1.43    41.20932    64.22296    58.34562
   225  H   1.0    0.13    0.99    1.43    39.67024    62.22016    62.22056
   226  H   1.0    0.15    0.99    1.43    37.29819    60.77302    60.33491
   227  N   5.0   -0.45    3.01    1.93    41.68782    58.54488    57.72224
   228  C   4.0    0.08    4.00    3.61    43.14665    56.33488    57.07782
   229  C   4.0    0.27    3.01    3.02    45.81437    57.13059    56.26726
   230  O   6.0   -0.37    1.00    1.80    46.39626    59.32587    55.87257
   231  C   4.0   -0.13    3.99    3.60    41.78448    54.87463    54.96121
   232  C   4.0   -0.03    3.03    3.02    39.27469    53.93835    55.90812
   233  C   4.0   -0.10    3.03    3.02    39.04897    51.58409    57.05308
   234  C   4.0   -0.08    3.03    3.02    37.14692    55.46824    55.74882
   235  C   4.0   -0.08    3.03    3.02    36.74446    50.74889    57.94808
   236  C   4.0   -0.09    3.03    3.02    34.83434    54.65123    56.64241
   237  C   4.0    0.10    3.03    3.02    34.61222    52.27331    57.73607
   238  O   6.0   -0.49    1.99    1.83    32.36452    51.36247    58.59083
   239  H   1.0    0.30    1.00    1.43    41.19787    59.68106    56.25952
   240  H   1.0    0.15    0.99    1.43    43.26812    55.18191    58.79598
   241  H   1.0    0.13    0.99    1.43    41.50899    56.18708    53.39117
   242  H   1.0    0.10    0.99    1.43    42.95815    53.29269    54.35986
   243  H   1.0    0.12    0.99    1.43    40.68772    50.38639    57.27197
   244  H   1.0    0.15    1.00    1.43    37.29657    57.33418    54.93490
   245  H   1.0    0.13    1.00    1.43    36.59096    48.94346    58.88590
   246  H   1.0    0.12    0.99    1.43    33.21681    55.89169    56.51822
   247  H   1.0    0.26    0.99    1.43    31.08628    52.66100    58.45923
   248  N   5.0   -0.49    3.01    1.93    47.44435    55.19816    56.05149
   249  C   4.0    0.02    3.99    3.61    50.03932    55.50801    55.26753
   250  C   4.0    0.26    3.00    3.02    50.72209    53.58510    53.22578
   251  O   6.0   -0.48    1.00    1.80    49.14307    52.12789    52.38171
   252  H   1.0    0.24    1.00    1.43    46.87072    53.41726    56.42266
   253  H   1.0    0.14    0.99    1.43    50.23343    57.43803    54.55554
   254  H   1.0    0.12    0.99    1.43    51.30212    55.25219    56.88995
   255  N   5.0   -0.49    3.01    1.93    53.13029    53.70736    52.43374
   256  C   4.0    0.06    3.99    3.61    54.34373    51.68685    51.04062
   257  C   4.0    0.27    3.01    3.02    55.58548    49.86674    52.93919
   258  O   6.0   -0.40    1.00    1.80    55.91086    50.43973    55.15365
   259  C   4.0   -0.14    3.98    3.59    56.35404    52.74579    49.24250
   260  C   4.0   -0.15    3.98    3.58    55.19244    53.89795    46.86165
   261  C   4.0   -0.04    3.99    3.60    57.23835    54.80759    45.02525
   262  N   5.0   -0.48    3.02    1.93    58.56054    57.02871    45.94966
   263  C   4.0    0.38    3.01    3.02    57.63651    59.36344    45.94913
   264  N   5.0   -0.64    3.02    1.93    55.44622    59.89409    44.84259
   265  N   5.0   -0.64    3.02    1.93    58.93364    61.20183    47.08530
   266  H   1.0    0.25    1.00    1.43    54.31664    54.77745    53.48113
   267  H   1.0    0.13    0.99    1.43    52.86361    50.67883    50.00738
   268  H   1.0    0.13    0.99    1.43    57.43137    54.16909    50.27290
   269  H   1.0    0.12    0.99    1.43    57.63836    51.22220    48.71678
   270  H   1.0    0.10    0.99    1.43    54.05399    52.47840    45.90023
   271  H   1.0    0.13    0.99    1.43    53.94768    55.44863    47.39285
   272  H   1.0    0.10    0.99    1.43    58.64416    53.32017    44.80113
   273  H   1.0    0.14    0.99    1.43    56.42013    55.18639    43.16595
   274  H   1.0    0.24    1.00    1.43    60.17517    56.72053    46.91817
   275  H   1.0    0.27    1.00    1.43    54.52754    58.58198    43.81267
   276  H   1.0    0.27    1.00    1.43    54.81991    61.68765    44.75096
   277  H   1.0    0.27    1.00    1.43    60.57462    60.85330    47.98100
   278  H   1.0    0.28    1.00    1.43    58.30045    62.99511    47.07568
   279  N   5.0   -0.48    3.01    1.93    56.30233    47.67066    51.91754
   280  C   4.0    0.07    3.99    3.60    57.57033    45.68779    53.31480
   281  C   4.0    0.07    3.00    3.02    60.39502    45.79142    52.66072
   282  O   6.0   -0.40    1.00    1.80    61.10367    46.22726    50.50145
   283  C   4.0   -0.08    3.98    3.59    56.42175    43.11321    52.56760
   284  C   4.0   -0.15    3.98    3.59    53.67562    42.98986    53.49368
   285  C   4.0   -0.22    3.98    3.59    58.01298    40.92499    53.56899
   286  C   4.0   -0.24    3.98    3.58    52.13761    40.87989    52.27690
   287  H   1.0    0.23    1.00    1.43    55.97903    47.33766    50.06682
   288  H   1.0    0.13    0.99    1.43    57.25603    46.10097    55.31171
   289  H   1.0    0.12    0.99    1.43    56.41552    43.03450    50.50163
   290  H   1.0    0.11    0.99    1.43    53.62959    42.79539    55.54745
   291  H   1.0    0.14    0.99    1.43    52.73732    44.77675    53.06739
   292  H   1.0    0.10    0.99    1.43    57.22997    39.14361    52.92734
   293  H   1.0    0.12    0.99    1.43    59.94453    41.04906    52.88113
   294  H   1.0    0.11    0.99    1.43    58.05436    40.96637    55.61915
   295  H   1.0    0.10    0.99    1.43    50.22563    40.91730    53.02975
   296  H   1.0    0.10    0.99    1.43    52.03064    41.15719    50.24608
   297  H   1.0    0.10    0.99    1.43    52.93377    39.02533    52.64319
   298  N   5.0   -0.72    3.00    1.93    46.50759    32.91025    52.87403
   299  C   4.0    0.06    3.98    3.59    44.72944    34.62242    51.66563
   300  C   4.0    0.27    3.01    3.02    42.37091    34.96662    53.29672
   301  O   6.0   -0.47    1.00    1.80    41.63601    37.06443    53.95049
   302  C   4.0   -0.14    3.99    3.60    44.11768    33.52180    49.05113
   303  C   4.0   -0.10    3.97    3.58    42.84349    35.25594    47.10588
   304  C   4.0   -0.21    3.98    3.59    40.23622    36.15816    47.94695
   305  C   4.0   -0.23    3.98    3.59    44.53871    37.47025    46.36892
   306  H   1.0    0.25    1.00    1.43    47.19181    31.48983    51.78034
   307  H   1.0    0.10    0.99    1.43    45.62441    36.48468    51.48941
   308  H   1.0    0.10    0.99    1.43    45.91152    32.89928    48.24797
   309  H   1.0    0.11    0.99    1.43    42.96014    31.83713    49.33046
   310  H   1.0    0.11    0.99    1.43    42.57082    34.08071    45.42178
   311  H   1.0    0.11    0.99    1.43    39.28685    37.13304    46.40603
   312  H   1.0    0.11    0.99    1.43    39.06621    34.56310    48.51358
   313  H   1.0    0.12    0.99    1.43    40.37022    37.44491    49.53966
   314  H   1.0    0.10    0.99    1.43    43.70644    38.48460    44.78949
   315  H   1.0    0.09    0.99    1.43    44.75120    38.78460    47.92743
   316  H   1.0    0.09    0.99    1.43    46.38922    36.78188    45.81089
   317  N   5.0   -0.50    3.01    1.93    41.15260    32.82619    53.86175
   318  C   4.0    0.08    4.00    3.61    38.67496    32.80076    55.01253
   319  C   4.0    0.29    3.01    3.02    38.68840    33.39919    57.85042
   320  O   6.0   -0.40    1.00    1.80    36.72282    33.67509    59.03698
   321  C   4.0   -0.10    3.98    3.59    37.38606    30.24586    54.48991
   322  C   4.0   -0.22    3.98    3.59    38.37709    28.23964    56.31098
   323  C   4.0   -0.22    3.98    3.59    34.51821    30.50060    54.67374
   324  H   1.0    0.23    1.00    1.43    41.90983    31.13353    53.38487
   325  H   1.0    0.14    0.99    1.43    37.56301    34.33504    54.15831
   326  H   1.0    0.11    0.99    1.43    37.90174    29.68739    52.56403
   327  H   1.0    0.10    0.99    1.43    37.68638    26.38467    55.76692
   328  H   1.0    0.11    0.99    1.43    40.43171    28.17489    56.29212
   329  H   1.0    0.12    0.99    1.43    37.78009    28.69437    58.22510
   330  H   1.0    0.10    0.99    1.43    33.60829    28.68622    54.37686
   331  H   1.0    0.14    0.99    1.43    33.99447    31.22145    56.52457
   332  H   1.0    0.11    0.99    1.43    33.81279    31.81077    53.25613
   333  N   5.0   -0.49    3.01    1.93    40.98041    33.58700    58.89100
   334  C   4.0    0.10    3.99    3.61    41.40449    34.38592    61.46036
   335  C   4.0    0.31    3.01    3.02    41.82564    37.26340    61.56901
   336  O   6.0   -0.34    1.00    1.80    40.76344    38.62980    63.10046
   337  C   4.0   -0.02    3.98    3.59    43.70925    32.96823    62.49860
   338  O   6.0   -0.45    1.99    1.82    44.10292    33.64955    65.03580
   339  H   1.0    0.25    1.00    1.43    42.53499    33.22636    57.83785
   340  H   1.0    0.16    0.99    1.43    39.72435    33.96434    62.59150
   341  H   1.0    0.11    0.99    1.43    43.36690    30.93194    62.29002
   342  H   1.0    0.11    0.99    1.43    45.35590    33.45796    61.33275
   343  H   1.0    0.26    0.99    1.43    45.35483    32.53507    65.75970
   344  N   5.0   -0.48    3.01    1.93    43.47606    38.08068    59.84568
   345  C   4.0    0.08    3.99    3.61    44.35688    40.66436    59.67222
   346  C   4.0    0.30    3.01    3.02    42.26903    42.49176    58.85345
   347  O   6.0   -0.39    1.00    1.80    41.98569    44.53603    59.89791
   348  C   4.0   -0.14    3.99    3.61    46.58001    40.71957    57.81006
   349  C   4.0   -0.03    3.03    3.02    48.04573    43.14649    57.95676
   350  C   4.0   -0.10    3.03    3.02    50.13133    43.36657    59.53622
   351  C   4.0   -0.07    3.03    3.02    47.33422    45.20615    56.49989
   352  C   4.0   -0.09    3.03    3.02    51.51975    45.58272    59.60546
   353  C   4.0   -0.08    3.03    3.02    48.72768    47.41602    56.55492
   354  C   4.0   -0.08    3.03    3.02    50.83836    47.60407    58.08927
   355  H   1.0    0.24    1.00    1.43    44.21945    36.83096    58.60003
   356  H   1.0    0.15    0.99    1.43    44.95027    41.29668    61.55797
   357  H   1.0    0.10    0.99    1.43    47.78600    39.11250    58.27299
   358  H   1.0    0.11    0.99    1.43    45.82077    40.44571    55.91137
   359  H   1.0    0.12    1.00    1.43    50.63145    41.79862    60.74100
   360  H   1.0    0.14    1.00    1.43    45.67993    45.06573    55.31946
   361  H   1.0    0.13    1.00    1.43    53.13003    45.74992    60.84505
   362  H   1.0    0.15    1.00    1.43    48.16006    48.98113    55.37692
   363  H   1.0    0.15    1.00    1.43    51.95299    49.31291    58.09590
   364  N   5.0   -0.46    3.01    1.93    40.91283    41.74862    56.84929
   365  C   4.0    0.08    3.99    3.61    38.82548    43.22797    55.89462
   366  C   4.0    0.28    3.01    3.02    36.31359    42.01987    56.68813
   367  O   6.0   -0.35    1.00    1.80    36.03015    39.74118    56.90279
   368  C   4.0   -0.13    3.99    3.60    38.91714    43.37626    52.98609
   369  C   4.0   -0.03    3.03    3.02    41.33053    44.56310    52.06948
   370  C   4.0   -0.11    3.03    3.02    43.26729    43.06891    51.11907
   371  C   4.0   -0.11    3.03    3.02    41.70004    47.15868    52.19066
   372  C   4.0   -0.10    3.03    3.02    45.51336    44.11659    50.31279
   373  C   4.0   -0.11    3.03    3.02    43.95623    48.22632    51.42219
   374  C   4.0    0.10    3.03    3.02    45.89878    46.71416    50.49121
   375  O   6.0   -0.49    1.99    1.83    48.15723    47.66563    49.77136
   376  H   1.0    0.30    1.00    1.43    41.10193    39.98874    56.11233
   377  H   1.0    0.13    0.99    1.43    39.00958    45.11215    56.73108
   378  H   1.0    0.12    0.99    1.43    38.75990    41.45381    52.25638
   379  H   1.0    0.11    0.99    1.43    37.29239    44.46729    52.33528
   380  H   1.0    0.12    1.00    1.43    42.99161    41.04933    51.04816
   381  H   1.0    0.11    1.00    1.43    40.20558    48.34399    52.91641
   382  H   1.0    0.11    1.00    1.43    47.02317    42.96261    49.57841
   383  H   1.0    0.11    0.99    1.43    44.25346    50.24288    51.55830
   384  H   1.0    0.30    0.99    1.43    48.31545    49.40608    50.36103
   385  N   5.0   -0.49    3.01    1.93    34.41964    43.67414    57.05330
   386  C   4.0    0.07    3.99    3.60    31.93417    42.88692    57.92142
   387  C   4.0    0.30    3.01    3.02    30.73384    41.19644    55.90401
   388  O   6.0   -0.44    1.00    1.80    30.56932    41.94257    53.71565
   389  C   4.0   -0.14    3.99    3.60    30.23205    45.20762    58.25653
   390  C   4.0   -0.10    3.98    3.58    28.05120    44.76645    60.11259
   391  C   4.0   -0.21    3.98    3.59    28.97899    45.07183    62.82796
   392  C   4.0   -0.22    3.98    3.59    25.92524    46.64119    59.56634
   393  H   1.0    0.22    1.00    1.43    34.73123    45.54650    56.87726
   394  H   1.0    0.13    0.99    1.43    32.16315    41.83490    59.69076
   395  H   1.0    0.13    0.99    1.43    31.35604    46.80047    58.92683
   396  H   1.0    0.11    0.99    1.43    29.48086    45.72107    56.40431
   397  H   1.0    0.12    0.99    1.43    27.32510    42.84589    59.85565
   398  H   1.0    0.11    0.99    1.43    27.46418    44.69559    64.16204
   399  H   1.0    0.12    0.99    1.43    30.53155    43.78973    63.23804
   400  H   1.0    0.12    0.99    1.43    29.64152    46.99402    63.13014
   401  H   1.0    0.11    0.99    1.43    24.41541    46.43672    60.94194
   402  H   1.0    0.11    0.99    1.43    26.63940    48.56350    59.67125
   403  H   1.0    0.11    0.99    1.43    25.13948    46.33225    57.69265
   404  N   5.0   -0.49    3.01    1.93    29.69805    39.02879    56.66281
   405  C   4.0    0.07    3.99    3.60    28.65553    37.17525    54.90663
   406  C   4.0    0.30    3.00    3.02    27.41709    38.48445    52.62529
   407  O   6.0   -0.43    1.00    1.80    28.13787    38.09588    50.46503
   408  C   4.0   -0.14    3.98    3.59    26.79503    35.48285    56.35935
   409  C   4.0   -0.11    3.98    3.59    25.63870    33.38057    54.73851
   410  C   4.0    0.27    3.00    3.02    24.05643    31.66541    56.41721
   411  O   6.0   -0.45    1.98    1.82    21.67511    32.32234    56.47595
   412  O   6.0   -0.40    1.00    1.80    24.94018    29.90560    57.60101
   413  H   1.0    0.24    1.00    1.43    30.06126    38.37491    58.42119
   414  H   1.0    0.12    0.99    1.43    30.18660    36.00077    54.12936
   415  H   1.0    0.12    0.99    1.43    27.82618    34.57632    57.90000
   416  H   1.0    0.13    0.99    1.43    25.26561    36.60037    57.17044
   417  H   1.0    0.13    0.99    1.43    24.44237    34.12769    53.24015
   418  H   1.0    0.11    0.99    1.43    27.13590    32.26274    53.88626
   419  N   5.0   -0.47    3.01    1.93    25.45454    39.99451    53.17478
   420  C   4.0    0.09    3.99    3.61    23.80527    41.00950    51.22792
   421  C   4.0    0.29    3.01    3.02    25.29945    42.59522    49.31734
   422  O   6.0   -0.44    1.00    1.80    25.16702    42.26285    47.03522
   423  C   4.0    0.03    3.98    3.58    21.73330    42.60343    52.52465
   424  O   6.0   -0.49    1.99    1.82    20.94153    41.22391    54.66575
   425  C   4.0   -0.21    3.98    3.59    19.56974    43.16409    50.71072
   426  H   1.0    0.26    1.00    1.43    24.69318    40.03688    54.92947
   427  H   1.0    0.13    0.99    1.43    22.91951    39.45463    50.17851
   428  H   1.0    0.12    0.99    1.43    22.58084    44.40249    53.14697
   429  H   1.0    0.26    0.99    1.43    19.31597    41.83731    55.21981
   430  H   1.0    0.11    0.99    1.43    18.18399    44.39632    51.59746
   431  H   1.0    0.13    0.99    1.43    20.28212    44.10453    49.02855
   432  H   1.0    0.12    0.99    1.43    18.64242    41.42069    50.14064
   433  N   5.0   -0.48    3.01    1.93    26.69311    44.41033    50.39375
   434  C   4.0    0.07    3.99    3.61    28.33063    46.08630    48.96054
   435  C   4.0    0.31    3.01    3.02    30.19084    44.55078    47.37496
   436  O   6.0   -0.47    1.00    1.80    30.58229    45.03530    45.14712
   437  C   4.0   -0.13    3.99    3.61    29.75160    47.76968    50.83898
   438  C   4.0   -0.03    3.02    3.02    31.85165    49.35921    49.75521
   439  C   4.0   -0.08    3.03    3.02    31.77412    50.41851    47.35333
   440  C   4.0   -0.11    3.04    3.02    33.93525    49.85588    51.27634
   441  C   4.0   -0.08    3.03    3.02    33.73171    51.92499    46.49509
   442  C   4.0   -0.11    3.03    3.02    35.89193    51.36516    50.44407
   443  C   4.0    0.09    3.03    3.02    35.80177    52.41023    48.03970
   444  O   6.0   -0.51    1.99    1.83    37.70757    53.91698    47.16251
   445  H   1.0    0.25    1.00    1.43    26.97222    44.33068    52.28106
   446  H   1.0    0.15    0.99    1.43    27.15814    47.17859    47.64068
   447  H   1.0    0.11    0.99    1.43    28.37843    49.01135    51.75390
   448  H   1.0    0.12    0.99    1.43    30.57556    46.53480    52.27657
   449  H   1.0    0.14    1.00    1.43    30.19011    50.04407    46.12844
   450  H   1.0    0.12    1.00    1.43    34.02552    49.06599    53.15427
   451  H   1.0    0.13    1.00    1.43    33.69485    52.72049    44.62079
   452  H   1.0    0.11    1.00    1.43    37.48324    51.74292    51.66407
   453  H   1.0    0.24    0.99    1.43    39.15596    53.73410    48.26231
   454  N   5.0   -0.47    3.00    1.93    31.36704    42.69869    48.60793
   455  C   4.0    0.02    4.00    3.61    33.19191    41.08669    47.37812
   456  C   4.0    0.30    3.01    3.02    32.17337    39.98238    44.92479
   457  O   6.0   -0.49    1.00    1.80    33.45827    39.97121    42.98676
   458  H   1.0    0.31    1.00    1.43    30.96397    42.34844    50.44759
   459  H   1.0    0.11    0.99    1.43    34.90426    42.15602    46.91695
   460  H   1.0    0.11    0.99    1.43    33.66245    39.54667    48.66214
   461  N   5.0   -0.46    3.01    1.93    29.86870    38.98864    45.03491
   462  C   4.0    0.07    4.00    3.61    28.66972    37.95371    42.79399
   463  C   4.0    0.30    3.01    3.02    28.74068    39.88437    40.62951
   464  O   6.0   -0.45    1.00    1.80    29.47858    39.32112    38.50628
   465  C   4.0   -0.21    3.98    3.59    25.94716    37.23036    43.37963
   466  H   1.0    0.30    1.00    1.43    28.90243    38.94139    46.69126
   467  H   1.0    0.13    0.99    1.43    29.74036    36.29877    42.14194
   468  H   1.0    0.11    0.99    1.43    24.98017    36.66562    41.65864
   469  H   1.0    0.11    0.99    1.43    25.90549    35.67067    44.71389
   470  H   1.0    0.15    0.99    1.43    24.95598    38.83505    44.19576
   471  N   5.0   -0.47    3.01    1.93    27.88837    42.17166    41.24667
   472  C   4.0    0.07    3.99    3.61    27.69111    44.20924    39.42740
   473  C   4.0    0.30    3.01    3.02    30.31219    44.83758    38.35167
   474  O   6.0   -0.41    1.00    1.80    30.73825    44.98968    36.07645
   475  C   4.0   -0.13    3.98    3.59    26.57107    46.55696    40.68866
   476  C   4.0   -0.10    3.98    3.58    23.91777    46.14392    41.73706
   477  C   4.0    0.32    2.99    3.02    23.02643    48.52147    43.21164
   478  O   6.0   -0.46    1.00    1.80    24.50689    49.34737    44.87373
   479  O   6.0   -0.36    1.00    1.80    20.93891    49.43902    42.67088
   480  H   1.0    0.28    1.00    1.43    27.31624    42.53122    43.03529
   481  H   1.0    0.13    0.99    1.43    26.50044    43.59789    37.84095
   482  H   1.0    0.15    0.99    1.43    27.79590    47.12345    42.24833
   483  H   1.0    0.13    0.99    1.43    26.52351    48.07768    39.29419
   484  H   1.0    0.13    0.99    1.43    22.56123    45.75092    40.23497
   485  H   1.0    0.14    0.99    1.43    23.89670    44.57561    43.07968
   486  N   5.0   -0.48    3.01    1.93    32.04872    45.24181    40.12214
   487  C   4.0    0.07    3.99    3.61    34.65842    45.85935    39.56587
   488  C   4.0    0.30    3.01    3.02    35.70261    44.00172    37.61572
   489  O   6.0   -0.47    1.00    1.80    36.89697    44.69928    35.75484
   490  C   4.0   -0.14    3.99    3.60    36.15381    45.73376    42.04067
   491  C   4.0   -0.11    3.98    3.58    38.93913    46.49626    41.81596
   492  C   4.0   -0.22    3.98    3.59    39.21328    49.32693    41.34556
   493  C   4.0   -0.23    3.98    3.59    40.31895    45.75052    44.24112
   494  H   1.0    0.30    1.00    1.43    31.56599    45.07063    41.97209
   495  H   1.0    0.12    0.99    1.43    34.75199    47.75077    38.72185
   496  H   1.0    0.12    0.99    1.43    35.21290    46.95861    43.41114
   497  H   1.0    0.13    0.99    1.43    36.03276    43.79399    42.72971
   498  H   1.0    0.12    0.99    1.43    39.76817    45.46772    40.22358
   499  H   1.0    0.10    0.99    1.43    41.19446    49.84058    41.20676
   500  H   1.0    0.11    0.99    1.43    38.29801    49.87246    39.59218
   501  H   1.0    0.12    0.99    1.43    38.36826    50.38898    42.88720
   502  H   1.0    0.10    0.99    1.43    42.28377    46.33334    44.15868
   503  H   1.0    0.11    0.99    1.43    39.44128    46.65920    45.86140
   504  H   1.0    0.10    0.99    1.43    40.25173    43.71704    44.52235
   505  N   5.0   -0.47    3.01    1.93    35.27425    41.58738    38.18148
   506  C   4.0    0.09    3.99    3.61    36.18820    39.51067    36.64838
   507  C   4.0    0.29    3.01    3.02    35.20893    39.83089    33.95741
   508  O   6.0   -0.39    1.00    1.80    36.62971    39.89994    32.12873
   509  C   4.0    0.04    3.98    3.58    35.33743    36.96714    37.81801
   510  O   6.0   -0.49    1.99    1.82    36.47479    36.58932    40.19180
   511  C   4.0   -0.19    3.98    3.59    36.08579    34.77182    36.11304
   512  H   1.0    0.30    1.00    1.43    34.32069    41.14015    39.78149
   513  H   1.0    0.13    0.99    1.43    38.26109    39.57027    36.57525
   514  H   1.0    0.14    0.99    1.43    33.26844    37.02179    38.01464
   515  H   1.0    0.30    0.99    1.43    35.70752    37.71214    41.41944
   516  H   1.0    0.12    0.99    1.43    35.48966    33.00446    36.96709
   517  H   1.0    0.12    0.99    1.43    35.19537    34.96697    34.27981
   518  H   1.0    0.12    0.99    1.43    38.12532    34.72757    35.89058
   519  N   5.0   -0.48    3.01    1.93    32.70774    40.05635    33.76130
   520  C   4.0    0.08    3.99    3.61    31.50332    40.37668    31.31823
   521  C   4.0    0.31    3.01    3.02    32.86104    42.42592    29.79492
   522  O   6.0   -0.35    1.00    1.80    33.37510    42.13413    27.55397
   523  C   4.0   -0.19    3.98    3.59    28.72558    41.05044    31.67615
   524  H   1.0    0.29    1.00    1.43    31.58049    39.98318    35.30870
   525  H   1.0    0.14    0.99    1.43    31.68129    38.61237    30.23708
   526  H   1.0    0.13    0.99    1.43    27.79348    41.19943    29.85455
   527  H   1.0    0.12    0.99    1.43    27.81535    39.57247    32.77478
   528  H   1.0    0.15    0.99    1.43    28.56402    42.82620    32.69683
   529  N   5.0   -0.45    3.01    1.93    33.30144    44.57265    31.03802
   530  C   4.0    0.09    4.00    3.61    34.58469    46.68320    29.84746
   531  C   4.0    0.29    3.01    3.02    37.07700    45.82575    28.62938
   532  O   6.0   -0.35    1.00    1.80    37.48429    46.13647    26.37170
   533  C   4.0   -0.10    3.99    3.60    35.06445    48.78184    31.76906
   534  C   4.0    0.28    3.00    3.02    32.65056    50.17247    32.48325
   535  O   6.0   -0.36    1.00    1.80    30.58280    49.66230    31.59318
   536  N   5.0   -0.65    3.00    1.93    32.98689    52.06141    34.12534
   537  H   1.0    0.31    1.00    1.43    32.74672    44.75950    32.86315
   538  H   1.0    0.16    0.99    1.43    33.41762    47.41466    28.29630
   539  H   1.0    0.14    0.99    1.43    35.90598    47.96750    33.46926
   540  H   1.0    0.11    0.99    1.43    36.39409    50.14212    30.97091
   541  H   1.0    0.29    1.00    1.43    31.48514    53.08129    34.70449
   542  H   1.0    0.25    1.00    1.43    34.70210    52.49416    34.81789
   543  N   5.0   -0.48    3.01    1.93    38.75652    44.82659    30.21905
   544  C   4.0    0.08    4.00    3.62    41.25548    44.15350    29.31702
   545  C   4.0    0.11    3.00    3.02    41.02259    42.33564    27.08028
   546  O   6.0   -0.38    1.00    1.80    42.29358    42.53987    25.14539
   547  C   4.0   -0.09    3.98    3.58    42.88950    42.97321    31.41065
   548  C   4.0   -0.22    3.98    3.59    45.56295    42.55223    30.40513
   549  C   4.0   -0.23    3.98    3.59    42.99122    44.66331    33.74891
   550  H   1.0    0.29    1.00    1.43    38.27921    44.44633    32.03353
   551  H   1.0    0.14    0.99    1.43    42.18087    45.86745    28.59514
   552  H   1.0    0.13    0.99    1.43    42.04657    41.15422    31.92146
   553  H   1.0    0.10    0.99    1.43    46.70069    41.54437    31.78497
   554  H   1.0    0.13    0.99    1.43    45.53784    41.46005    28.66633
   555  H   1.0    0.11    0.99    1.43    46.45398    44.36035    30.00257
   556  H   1.0    0.09    0.99    1.43    44.30476    43.86184    35.10929
   557  H   1.0    0.10    0.99    1.43    43.65379    46.53894    33.23795
   558  H   1.0    0.13    0.99    1.43    41.15717    44.83056    34.65565
   559  N   5.0   -0.71    3.00    1.92    18.39288    28.94427    38.31307
   560  C   4.0    0.08    3.98    3.58    19.10046    30.68692    40.29350
   561  C   4.0    0.09    3.00    3.02    16.84528    31.94892    41.58239
   562  O   6.0   -0.40    1.00    1.80    16.99929    32.54262    43.81088
   563  C   4.0    0.04    3.98    3.59    20.86019    32.83192    39.38650
   564  O   6.0   -0.45    1.99    1.82    19.71884    34.44219    37.61867
   565  C   4.0   -0.21    3.98    3.59    23.37423    31.77323    38.43090
   566  H   1.0    0.26    1.00    1.43    19.30700    28.98316    36.62983
   567  H   1.0    0.12    0.99    1.43    20.07602    29.63373    41.79564
   568  H   1.0    0.13    0.99    1.43    21.20635    34.01707    41.05689
   569  H   1.0    0.27    0.99    1.43    18.77984    33.44904    36.36955
   570  H   1.0    0.12    0.99    1.43    24.54270    33.31805    37.74998
   571  H   1.0    0.10    0.99    1.43    24.34293    30.80553    39.95623
   572  H   1.0    0.11    0.99    1.43    23.05573    30.44454    36.90150
   573  H   1.0    0.15    1.00    1.43    23.87133    21.05463    56.61451
   574  H   1.0    0.31    1.00    1.43    22.28349    21.17381    51.31717
   575  H   1.0    0.15    1.00    1.43    30.67017    19.69333    48.35078
   576  H   1.0    0.30    1.00    1.43    59.36203    44.70673    29.02149
   577  H   1.0    0.13    1.00    1.43    61.68809    45.50065    54.00775
   578  H   1.0    0.29    1.00    1.43    47.86433    33.78538    53.40878
   579  H   1.0    0.17    1.00    1.43    39.79362    40.90191    27.15194
   580  H   1.0    0.31    1.00    1.43    18.60658    27.34765    38.85869
   581  H   1.0    0.16    1.00    1.43    15.26289    32.28202    40.60456

           ------------------------------------------------- 
          |        Self-Consistent Charge Iterations        |
           ------------------------------------------------- 

          ...................................................
          :                      SETUP                      :
          :.................................................:
          :  # basis functions                1427          :
          :  # atomic orbitals                1426          :
          :  # shells                          862          :
          :  # electrons                      1570          :
          :  max. iterations                   250          :
          :  Hamiltonian                  GFN2-xTB          :
          :  restarted?                      false          :
          :  GBSA solvation                   true          :
          :  PC potential                    false          :
          :  electronic temp.          500.0000000     K    :
          :  accuracy                    0.1000000          :
          :  -> integral cutoff          0.3500000E+02      :
          :  -> integral neglect         0.1000000E-08      :
          :  -> SCF convergence          0.1000000E-06 Eh   :
          :  -> wf. convergence          0.1000000E-04 e    :
          :  Broyden damping             0.4000000          :
          ...................................................

 iter      E             dE          RMSdq      gap      omega  full diag
   1   -897.9243969 -0.897924E+03  0.414E+00    1.63       0.0  T
   2   -900.1846033 -0.226021E+01  0.219E+00    1.87       1.0  T
   3   -900.2637930 -0.791897E-01  0.113E+00    2.16       1.0  T
   4   -900.2845389 -0.207459E-01  0.255E-01    1.64       1.0  T
   5   -900.3027328 -0.181940E-01  0.111E-01    1.86       1.0  T
   6   -900.3036647 -0.931834E-03  0.497E-02    1.87       1.0  T
   7   -900.3038111 -0.146470E-03  0.231E-02    1.89       1.0  T
   8   -900.3038989 -0.877600E-04  0.917E-03    1.90       1.0  T
   9   -900.3039083 -0.937811E-05  0.426E-03    1.90       1.0  T
  10   -900.3039100 -0.174526E-05  0.197E-03    1.91       2.1  T
  11   -900.3039104 -0.330910E-06  0.788E-04    1.91       5.3  T
  12   -900.3039104 -0.826117E-07  0.407E-04    1.91      10.2  T
  13   -900.3039105 -0.204988E-07  0.208E-04    1.91      19.9  T
  14   -900.3039105 -0.481577E-08  0.910E-05    1.91      45.6  T
  15   -900.3039105 -0.102591E-08  0.412E-05    1.91     100.8  T

   *** convergence criteria satisfied after 15 iterations ***

         #    Occupation            Energy/Eh            Energy/eV
      -------------------------------------------------------------
         1        2.0000           -0.7394118             -20.1204
       ...           ...                  ...                  ...
       779        2.0000           -0.3753979             -10.2151
       780        2.0000           -0.3729358             -10.1481
       781        2.0000           -0.3706857             -10.0869
       782        2.0000           -0.3675587             -10.0018
       783        2.0000           -0.3667235              -9.9791
       784        2.0000           -0.3609521              -9.8220
       785        2.0000           -0.3605520              -9.8111 (HOMO)
       786                         -0.2904824              -7.9044 (LUMO)
       787                         -0.2892422              -7.8707
       788                         -0.2869758              -7.8090
       789                         -0.2828588              -7.6970
       790                         -0.2761022              -7.5131
       ...                                ...                  ...
      1426                          0.6720190              18.2866
      -------------------------------------------------------------
                  HL-Gap            0.0700696 Eh            1.9067 eV
             Fermi-level           -0.3254063 Eh           -8.8548 eV

 SCC (total)                   0 d,  0 h,  0 min, 16.367 sec
 SCC setup                      ...        0 min,  0.117 sec (  0.716%)
 Dispersion                     ...        0 min,  0.119 sec (  0.727%)
 integral evaluation            ...        0 min,  0.481 sec (  2.940%)
 zeroth order Hamiltonian       ...        0 min,  0.004 sec (  0.026%)
 iterations                     ...        0 min, 12.587 sec ( 76.908%)
 molecular gradient             ...        0 min,  2.933 sec ( 17.922%)
 printout                       ...        0 min,  0.125 sec (  0.761%)

         :::::::::::::::::::::::::::::::::::::::::::::::::::::
         ::                     SUMMARY                     ::
         :::::::::::::::::::::::::::::::::::::::::::::::::::::
         :: total energy             -889.494712200280 Eh   ::
         :: total w/o Gsasa/hb       -889.389452539023 Eh   ::
         :: gradient norm               0.462841559000 Eh/α ::
         :: HOMO-LUMO gap               1.906689922230 eV   ::
         ::.................................................::
         :: SCC energy               -900.328381913293 Eh   ::
         :: -> isotropic ES             2.650026143808 Eh   ::
         :: -> anisotropic ES          -0.123804784660 Eh   ::
         :: -> anisotropic XC           0.280411424682 Eh   ::
         :: -> dispersion              -0.760935140374 Eh   ::
         :: -> Gsolv                   -0.708623305250 Eh   ::
         ::    -> Gborn                -0.603363643993 Eh   ::
         ::    -> Gsasa                -0.026328892690 Eh   ::
         ::    -> Ghb                  -0.080788211694 Eh   ::
         ::    -> Gshift                0.001857443127 Eh   ::
         :: repulsion energy           10.765549736027 Eh   ::
         :: add. restraining            0.000000000000 Eh   ::
         :::::::::::::::::::::::::::::::::::::::::::::::::::::

           -------------------------------------------------
          |                Property Printout                |
           -------------------------------------------------

    * Orbital Energies and Occupations

         #    Occupation            Energy/Eh            Energy/eV
      -------------------------------------------------------------
         1        2.0000           -0.7394118             -20.1204
       ...           ...                  ...                  ...
       773        2.0000           -0.3875813             -10.5466
       774        2.0000           -0.3848627             -10.4726
       775        2.0000           -0.3840336             -10.4501
       776        2.0000           -0.3819604             -10.3937
       777        2.0000           -0.3794296             -10.3248
       778        2.0000           -0.3792870             -10.3209
       779        2.0000           -0.3753979             -10.2151
       780        2.0000           -0.3729358             -10.1481
       781        2.0000           -0.3706857             -10.0869
       782        2.0000           -0.3675587             -10.0018
       783        2.0000           -0.3667235              -9.9791
       784        2.0000           -0.3609521              -9.8220
       785        2.0000           -0.3605520              -9.8111 (HOMO)
       786                         -0.2904824              -7.9044 (LUMO)
       787                         -0.2892422              -7.8707
       788                         -0.2869758              -7.8090
       789                         -0.2828588              -7.6970
       790                         -0.2761022              -7.5131
       791                         -0.2484229              -6.7599
       792                         -0.2456619              -6.6848
       793                         -0.2429622              -6.6113
       794                         -0.2416356              -6.5752
       795                         -0.2381026              -6.4791
       796                         -0.2375603              -6.4643
       ...                                ...                  ...
      1426                          0.6720190              18.2866
      -------------------------------------------------------------
                  HL-Gap            0.0700696 Eh            1.9067 eV
             Fermi-level           -0.3254063 Eh           -8.8548 eV

   #   Z        covCN         q      C6AA      α(0)
   1   7 N      2.652    -0.350    29.005     7.999
   2   6 C      3.786     0.018    20.287     6.415
   3   6 C      2.752     0.273    22.383     7.747
   4   8 O      0.858    -0.463    22.975     6.426
   5   6 C      3.827    -0.068    21.775     6.640
   6   6 C      3.795    -0.014    20.829     6.499
   7  16 S      1.962    -0.245   151.569    20.721
   8   6 C      3.745    -0.056    21.657     6.639
   9   1 H      0.860     0.190     1.156     1.684
  10   1 H      0.860     0.189     1.162     1.689
  11   1 H      0.809     0.352     0.582     1.198
  12   1 H      0.923     0.042     2.420     2.433
  13   1 H      0.925     0.063     2.168     2.303
  14   1 H      0.924     0.062     2.175     2.306
  15   1 H      0.925     0.062     2.175     2.306
  16   1 H      0.925     0.056     2.244     2.343
  17   1 H      0.925     0.056     2.243     2.342
  18   1 H      0.925     0.059     2.212     2.326
  19   1 H      0.925     0.059     2.208     2.324
  20   7 N      2.687    -0.168    24.635     7.372
  21   6 C      3.739    -0.042    21.415     6.603
  22   6 C      2.762     0.204    23.668     7.967
  23   8 O      0.856    -0.349    20.685     6.098
  24   1 H      0.860     0.219     1.015     1.578
  25   1 H      0.924     0.126     1.564     1.956
  26   1 H      0.924     0.138     1.475     1.899
  27   7 N      2.635    -0.402    30.426     8.192
  28   6 C      3.784     0.040    19.918     6.357
  29   6 C      2.758     0.266    22.508     7.769
  30   8 O      0.859    -0.541    24.715     6.665
  31   6 C      3.758    -0.113    22.704     6.793
  32   1 H      0.860     0.185     1.189     1.708
  33   1 H      0.923     0.013     2.843     2.637
  34   1 H      0.925     0.034     2.535     2.490
  35   1 H      0.925     0.053     2.284     2.364
  36   1 H      0.925     0.056     2.241     2.341
  37   7 N      2.687    -0.182    24.947     7.418
  38   6 C      3.792     0.024    20.180     6.397
  39   6 C      2.763     0.213    23.485     7.936
  40   8 O      0.856    -0.376    21.216     6.175
  41   6 C      3.802    -0.090    22.221     6.711
  42   6 C      3.800    -0.087    22.152     6.701
  43   6 C      3.737    -0.034    21.260     6.580
  44   7 N      2.699    -0.132    23.853     7.254
  45   6 C      2.735     0.229    23.180     7.883
  46   7 N      2.651    -0.247    26.448     7.638
  47   7 N      2.655    -0.252    26.548     7.652
  48   1 H      0.859     0.256     0.860     1.453
  49   1 H      0.923     0.087     1.907     2.159
  50   1 H      0.925     0.083     1.946     2.182
  51   1 H      0.924     0.097     1.815     2.107
  52   1 H      0.925     0.066     2.132     2.283
  53   1 H      0.925     0.075     2.029     2.228
  54   1 H      0.924     0.100     1.785     2.089
  55   1 H      0.925     0.090     1.875     2.142
  56   1 H      0.860     0.224     0.991     1.560
  57   1 H      0.860     0.244     0.907     1.492
  58   1 H      0.860     0.252     0.875     1.465
  59   1 H      0.860     0.234     0.946     1.524
  60   1 H      0.860     0.252     0.874     1.465
  61   7 N      2.635    -0.397    30.291     8.174
  62   6 C      3.788     0.023    20.202     6.402
  63   6 C      2.756     0.263    22.558     7.778
  64   8 O      0.859    -0.502    23.837     6.546
  65   6 C      3.806    -0.076    21.949     6.669
  66   6 C      3.803    -0.081    22.035     6.683
  67   6 C      3.802    -0.094    22.283     6.721
  68   6 C      3.730    -0.047    21.512     6.621
  69   7 N      3.481    -0.164    24.534     7.357
  70   1 H      0.860     0.162     1.325     1.803
  71   1 H      0.923     0.061     2.183     2.310
  72   1 H      0.924     0.058     2.219     2.330
  73   1 H      0.924     0.045     2.382     2.413
  74   1 H      0.924     0.051     2.309     2.376
  75   1 H      0.924     0.059     2.212     2.326
  76   1 H      0.925     0.081     1.966     2.193
  77   1 H      0.925     0.075     2.031     2.229
  78   1 H      0.925     0.107     1.724     2.054
  79   1 H      0.925     0.108     1.717     2.049
  80   1 H      0.859     0.286     0.755     1.361
  81   1 H      0.857     0.301     0.711     1.321
  82   1 H      0.859     0.290     0.743     1.351
  83   7 N      2.692    -0.158    24.427     7.340
  84   6 C      3.794     0.011    20.393     6.431
  85   6 C      2.752     0.288    22.125     7.702
  86   8 O      0.858    -0.485    23.464     6.494
  87   6 C      3.807    -0.086    22.136     6.698
  88   6 C      3.848    -0.015    20.808     6.488
  89   6 C      3.755    -0.123    22.918     6.826
  90   6 C      3.755    -0.120    22.848     6.816
  91   1 H      0.860     0.226     0.984     1.554
  92   1 H      0.924     0.082     1.956     2.187
  93   1 H      0.924     0.062     2.177     2.307
  94   1 H      0.924     0.062     2.173     2.305
  95   1 H      0.924     0.047     2.355     2.400
  96   1 H      0.925     0.050     2.323     2.384
  97   1 H      0.925     0.045     2.383     2.414
  98   1 H      0.925     0.041     2.430     2.438
  99   1 H      0.925     0.045     2.379     2.412
 100   1 H      0.925     0.044     2.395     2.420
 101   1 H      0.925     0.036     2.509     2.477
 102   7 N      2.691    -0.177    24.838     7.402
 103   6 C      3.793     0.013    20.360     6.426
 104   6 C      2.754     0.281    22.235     7.722
 105   8 O      0.858    -0.482    23.396     6.485
 106   6 C      3.810    -0.087    22.155     6.700
 107   6 C      3.849    -0.018    20.861     6.497
 108   6 C      3.757    -0.124    22.937     6.828
 109   6 C      3.756    -0.117    22.801     6.808
 110   1 H      0.860     0.211     1.052     1.606
 111   1 H      0.923     0.079     1.986     2.204
 112   1 H      0.924     0.071     2.073     2.251
 113   1 H      0.924     0.059     2.208     2.324
 114   1 H      0.924     0.052     2.291     2.367
 115   1 H      0.925     0.047     2.358     2.401
 116   1 H      0.925     0.047     2.352     2.398
 117   1 H      0.925     0.043     2.415     2.430
 118   1 H      0.925     0.044     2.397     2.421
 119   1 H      0.925     0.041     2.436     2.441
 120   1 H      0.925     0.032     2.563     2.504
 121   7 N      2.689    -0.196    25.260     7.465
 122   6 C      3.792     0.011    20.404     6.433
 123   6 C      2.764     0.275    22.351     7.742
 124   8 O      0.859    -0.513    24.063     6.577
 125   6 C      3.679     0.058    19.818     6.376
 126   8 O      1.653    -0.464    22.143     6.352
 127   1 H      0.860     0.225     0.989     1.558
 128   1 H      0.923     0.077     2.006     2.215
 129   1 H      0.924     0.075     2.027     2.227
 130   1 H      0.924     0.056     2.247     2.344
 131   1 H      0.803     0.345     0.601     1.218
 132   7 N      2.688    -0.173    24.740     7.387
 133   6 C      3.807     0.023    20.188     6.396
 134   6 C      2.763     0.275    22.357     7.743
 135   8 O      0.859    -0.498    23.743     6.533
 136   6 C      3.851    -0.014    20.795     6.486
 137   6 C      3.756    -0.116    22.779     6.805
 138   6 C      3.757    -0.125    22.949     6.830
 139   1 H      0.860     0.227     0.976     1.548
 140   1 H      0.924     0.060     2.203     2.321
 141   1 H      0.924     0.050     2.315     2.379
 142   1 H      0.925     0.045     2.385     2.415
 143   1 H      0.925     0.061     2.182     2.310
 144   1 H      0.925     0.045     2.389     2.417
 145   1 H      0.925     0.051     2.305     2.374
 146   1 H      0.925     0.050     2.325     2.385
 147   1 H      0.925     0.037     2.489     2.467
 148   7 N      2.759    -0.084    22.876     7.104
 149   6 C      3.833     0.021    20.200     6.394
 150   6 C      2.754     0.280    22.261     7.726
 151   8 O      0.858    -0.470    23.122     6.447
 152   6 C      3.833    -0.068    21.783     6.640
 153   6 C      3.832    -0.071    21.835     6.648
 154   6 C      3.768    -0.012    20.828     6.504
 155   1 H      0.924     0.052     2.289     2.366
 156   1 H      0.924     0.053     2.278     2.360
 157   1 H      0.925     0.056     2.252     2.347
 158   1 H      0.925     0.067     2.122     2.278
 159   1 H      0.925     0.063     2.166     2.302
 160   1 H      0.924     0.063     2.160     2.299
 161   1 H      0.924     0.075     2.033     2.230
 162   7 N      2.692    -0.171    24.698     7.381
 163   6 C      3.796     0.012    20.375     6.428
 164   6 C      2.758     0.270    22.434     7.756
 165   8 O      0.858    -0.504    23.871     6.551
 166   6 C      3.812    -0.070    21.824     6.650
 167   6 C      3.850    -0.012    20.750     6.479
 168   6 C      3.758    -0.122    22.895     6.822
 169   6 C      3.756    -0.119    22.833     6.813
 170   1 H      0.860     0.199     1.110     1.650
 171   1 H      0.924     0.088     1.901     2.156
 172   1 H      0.924     0.045     2.384     2.415
 173   1 H      0.924     0.044     2.401     2.423
 174   1 H      0.924     0.044     2.390     2.418
 175   1 H      0.925     0.060     2.196     2.317
 176   1 H      0.925     0.038     2.477     2.461
 177   1 H      0.925     0.045     2.386     2.416
 178   1 H      0.925     0.051     2.302     2.373
 179   1 H      0.925     0.038     2.470     2.458
 180   1 H      0.925     0.044     2.391     2.418
 181   7 N      2.690    -0.179    24.874     7.407
 182   6 C      3.797     0.026    20.139     6.390
 183   6 C      2.762     0.280    22.266     7.728
 184   8 O      0.858    -0.504    23.876     6.551
 185   6 C      3.812    -0.064    21.726     6.635
 186   6 C      3.804    -0.084    22.091     6.691
 187   6 C      3.739    -0.021    21.029     6.543
 188   7 N      2.700    -0.146    24.168     7.301
 189   6 C      2.736     0.234    23.096     7.868
 190   7 N      2.653    -0.247    26.425     7.635
 191   7 N      2.654    -0.273    27.067     7.727
 192   1 H      0.860     0.225     0.985     1.555
 193   1 H      0.924     0.057     2.230     2.335
 194   1 H      0.924     0.066     2.131     2.283
 195   1 H      0.924     0.045     2.389     2.417
 196   1 H      0.924     0.061     2.193     2.316
 197   1 H      0.924     0.082     1.956     2.187
 198   1 H      0.924     0.085     1.926     2.170
 199   1 H      0.924     0.073     2.053     2.241
 200   1 H      0.860     0.228     0.975     1.547
 201   1 H      0.860     0.244     0.905     1.490
 202   1 H      0.860     0.240     0.922     1.504
 203   1 H      0.860     0.230     0.964     1.538
 204   1 H      0.859     0.254     0.867     1.459
 205   7 N      2.693    -0.216    25.717     7.532
 206   6 C      3.797     0.032    20.041     6.374
 207   6 C      2.756     0.281    22.237     7.722
 208   8 O      0.858    -0.481    23.358     6.480
 209   6 C      3.804    -0.063    21.712     6.634
 210   6 C      3.797    -0.097    22.355     6.732
 211   6 C      2.683     0.372    20.703     7.446
 212   8 O      0.857    -0.612    26.427     6.892
 213   8 O      0.857    -0.634    26.974     6.963
 214   1 H      0.859     0.238     0.931     1.511
 215   1 H      0.923     0.050     2.315     2.380
 216   1 H      0.924     0.051     2.309     2.376
 217   1 H      0.924     0.056     2.250     2.346
 218   1 H      0.924     0.037     2.487     2.466
 219   1 H      0.924     0.028     2.612     2.528
 220   7 N      2.686    -0.183    24.962     7.420
 221   6 C      3.745    -0.035    21.261     6.577
 222   6 C      2.751     0.275    22.350     7.741
 223   8 O      0.858    -0.500    23.775     6.537
 224   1 H      0.860     0.210     1.055     1.609
 225   1 H      0.924     0.090     1.874     2.141
 226   1 H      0.924     0.099     1.799     2.097
 227   7 N      2.692    -0.157    24.405     7.337
 228   6 C      3.799     0.018    20.272     6.411
 229   6 C      2.753     0.271    22.413     7.752
 230   8 O      0.858    -0.479    23.334     6.476
 231   6 C      3.811    -0.076    21.941     6.667
 232   6 C      2.971    -0.001    28.037     8.685
 233   6 C      2.924    -0.041    29.016     8.834
 234   6 C      2.925    -0.038    28.955     8.824
 235   6 C      2.918    -0.062    29.532     8.911
 236   6 C      2.917    -0.074    29.853     8.960
 237   6 C      2.846     0.141    24.930     8.183
 238   8 O      1.659    -0.422    21.277     6.227
 239   1 H      0.860     0.211     1.051     1.606
 240   1 H      0.924     0.077     2.008     2.216
 241   1 H      0.924     0.066     2.128     2.281
 242   1 H      0.925     0.069     2.098     2.265
 243   1 H      0.926     0.050     2.317     2.380
 244   1 H      0.926     0.037     2.494     2.470
 245   1 H      0.926     0.044     2.395     2.420
 246   1 H      0.926     0.039     2.460     2.453
 247   1 H      0.805     0.344     0.602     1.218
 248   7 N      2.688    -0.159    24.442     7.343
 249   6 C      3.744    -0.038    21.334     6.589
 250   6 C      2.751     0.273    22.380     7.746
 251   8 O      0.858    -0.461    22.944     6.422
 252   1 H      0.860     0.203     1.089     1.635
 253   1 H      0.924     0.110     1.693     2.035
 254   1 H      0.924     0.083     1.947     2.182
 255   7 N      2.691    -0.160    24.462     7.346
 256   6 C      3.795     0.002    20.551     6.455
 257   6 C      2.754     0.268    22.478     7.764
 258   8 O      0.858    -0.488    23.523     6.503
 259   6 C      3.806    -0.089    22.194     6.707
 260   6 C      3.802    -0.089    22.193     6.707
 261   6 C      3.739    -0.034    21.255     6.578
 262   7 N      2.700    -0.138    23.982     7.273
 263   6 C      2.737     0.233    23.115     7.872
 264   7 N      2.651    -0.242    26.325     7.620
 265   7 N      2.654    -0.262    26.784     7.686
 266   1 H      0.860     0.213     1.043     1.600
 267   1 H      0.924     0.098     1.807     2.102
 268   1 H      0.924     0.074     2.047     2.237
 269   1 H      0.924     0.075     2.035     2.231
 270   1 H      0.925     0.073     2.050     2.239
 271   1 H      0.925     0.072     2.062     2.245
 272   1 H      0.925     0.092     1.858     2.132
 273   1 H      0.924     0.100     1.783     2.088
 274   1 H      0.860     0.234     0.949     1.526
 275   1 H      0.860     0.245     0.904     1.489
 276   1 H      0.860     0.243     0.909     1.494
 277   1 H      0.860     0.249     0.887     1.475
 278   1 H      0.860     0.247     0.893     1.481
 279   7 N      2.694    -0.166    24.587     7.364
 280   6 C      3.793     0.018    20.280     6.413
 281   6 C      2.766     0.202    23.707     7.974
 282   8 O      0.856    -0.354    20.788     6.113
 283   6 C      3.853    -0.022    20.935     6.508
 284   6 C      3.803    -0.064    21.734     6.637
 285   6 C      3.754    -0.121    22.879     6.820
 286   6 C      3.751    -0.112    22.705     6.795
 287   1 H      0.860     0.221     1.006     1.571
 288   1 H      0.924     0.084     1.934     2.175
 289   1 H      0.924     0.066     2.135     2.285
 290   1 H      0.924     0.037     2.490     2.468
 291   1 H      0.924     0.041     2.439     2.442
 292   1 H      0.925     0.065     2.145     2.290
 293   1 H      0.925     0.039     2.468     2.457
 294   1 H      0.925     0.049     2.326     2.385
 295   1 H      0.925     0.038     2.473     2.459
 296   1 H      0.925     0.049     2.329     2.387
 297   1 H      0.925     0.045     2.387     2.416
 298   7 N      2.637    -0.402    30.427     8.192
 299   6 C      3.785     0.026    20.145     6.393
 300   6 C      2.754     0.267    22.495     7.767
 301   8 O      0.858    -0.497    23.718     6.530
 302   6 C      3.808    -0.078    21.974     6.673
 303   6 C      3.848    -0.016    20.819     6.490
 304   6 C      3.754    -0.110    22.668     6.789
 305   6 C      3.755    -0.119    22.839     6.814
 306   1 H      0.860     0.170     1.274     1.768
 307   1 H      0.924     0.042     2.420     2.433
 308   1 H      0.924     0.055     2.255     2.348
 309   1 H      0.924     0.045     2.389     2.417
 310   1 H      0.924     0.038     2.478     2.462
 311   1 H      0.925     0.033     2.540     2.492
 312   1 H      0.925     0.029     2.601     2.522
 313   1 H      0.925     0.036     2.505     2.475
 314   1 H      0.925     0.041     2.442     2.444
 315   1 H      0.925     0.046     2.372     2.409
 316   1 H      0.925     0.047     2.355     2.400
 317   7 N      2.689    -0.180    24.905     7.412
 318   6 C      3.799     0.012    20.380     6.428
 319   6 C      2.752     0.283    22.209     7.717
 320   8 O      0.858    -0.472    23.166     6.453
 321   6 C      3.853    -0.026    21.002     6.518
 322   6 C      3.755    -0.138    23.214     6.870
 323   6 C      3.755    -0.129    23.042     6.844
 324   1 H      0.860     0.220     1.009     1.573
 325   1 H      0.923     0.078     2.002     2.213
 326   1 H      0.924     0.057     2.233     2.337
 327   1 H      0.925     0.075     2.034     2.230
 328   1 H      0.925     0.056     2.243     2.342
 329   1 H      0.925     0.051     2.303     2.373
 330   1 H      0.925     0.067     2.123     2.278
 331   1 H      0.925     0.066     2.126     2.280
 332   1 H      0.925     0.032     2.565     2.504
 333   7 N      2.692    -0.184    24.995     7.425
 334   6 C      3.795     0.010    20.409     6.433
 335   6 C      2.752     0.283    22.212     7.717
 336   8 O      0.858    -0.493    23.623     6.516
 337   6 C      3.679     0.070    19.615     6.344
 338   8 O      1.656    -0.492    22.720     6.435
 339   1 H      0.860     0.200     1.106     1.648
 340   1 H      0.924     0.098     1.800     2.098
 341   1 H      0.923     0.067     2.124     2.279
 342   1 H      0.923     0.040     2.454     2.450
 343   1 H      0.805     0.359     0.567     1.182
 344   7 N      2.693    -0.180    24.897     7.411
 345   6 C      3.795     0.026    20.148     6.392
 346   6 C      2.755     0.280    22.252     7.725
 347   8 O      0.858    -0.501    23.798     6.541
 348   6 C      3.814    -0.080    22.014     6.678
 349   6 C      2.970     0.012    27.745     8.640
 350   6 C      2.925    -0.041    29.027     8.835
 351   6 C      2.925    -0.037    28.913     8.818
 352   6 C      2.919    -0.033    28.816     8.803
 353   6 C      2.920    -0.033    28.834     8.806
 354   6 C      2.920    -0.033    28.819     8.803
 355   1 H      0.860     0.205     1.081     1.629
 356   1 H      0.923     0.066     2.132     2.283
 357   1 H      0.924     0.072     2.065     2.247
 358   1 H      0.924     0.063     2.164     2.300
 359   1 H      0.926     0.041     2.433     2.439
 360   1 H      0.926     0.033     2.542     2.493
 361   1 H      0.926     0.037     2.494     2.470
 362   1 H      0.926     0.041     2.434     2.440
 363   1 H      0.926     0.035     2.512     2.478
 364   7 N      2.690    -0.173    24.739     7.387
 365   6 C      3.797     0.024    20.167     6.394
 366   6 C      2.755     0.269    22.462     7.761
 367   8 O      0.859    -0.478    23.293     6.471
 368   6 C      3.811    -0.072    21.865     6.656
 369   6 C      2.969    -0.005    28.137     8.701
 370   6 C      2.926    -0.042    29.050     8.839
 371   6 C      2.924    -0.045    29.128     8.851
 372   6 C      2.919    -0.062    29.548     8.914
 373   6 C      2.918    -0.074    29.843     8.958
 374   6 C      2.845     0.150    24.749     8.153
 375   8 O      1.659    -0.415    21.150     6.208
 376   1 H      0.860     0.228     0.972     1.545
 377   1 H      0.924     0.068     2.112     2.273
 378   1 H      0.924     0.058     2.222     2.331
 379   1 H      0.924     0.054     2.274     2.358
 380   1 H      0.926     0.043     2.408     2.427
 381   1 H      0.926     0.035     2.516     2.480
 382   1 H      0.926     0.057     2.237     2.339
 383   1 H      0.926     0.039     2.466     2.456
 384   1 H      0.804     0.341     0.609     1.226
 385   7 N      2.692    -0.179    24.871     7.407
 386   6 C      3.793     0.025    20.169     6.395
 387   6 C      2.758     0.278    22.296     7.732
 388   8 O      0.859    -0.481    23.376     6.482
 389   6 C      3.813    -0.086    22.125     6.695
 390   6 C      3.849    -0.015    20.815     6.489
 391   6 C      3.756    -0.121    22.868     6.818
 392   6 C      3.757    -0.122    22.898     6.823
 393   1 H      0.860     0.202     1.094     1.638
 394   1 H      0.924     0.062     2.178     2.308
 395   1 H      0.924     0.081     1.973     2.197
 396   1 H      0.924     0.060     2.200     2.319
 397   1 H      0.924     0.036     2.504     2.475
 398   1 H      0.925     0.047     2.360     2.402
 399   1 H      0.925     0.036     2.501     2.473
 400   1 H      0.925     0.047     2.359     2.402
 401   1 H      0.925     0.050     2.321     2.382
 402   1 H      0.925     0.051     2.310     2.377
 403   1 H      0.925     0.039     2.463     2.454
 404   7 N      2.689    -0.167    24.620     7.369
 405   6 C      3.791     0.014    20.353     6.425
 406   6 C      2.752     0.287    22.138     7.705
 407   8 O      0.858    -0.482    23.384     6.483
 408   6 C      3.807    -0.078    21.983     6.674
[...]
   253  H   0.987        C  249 0.944
   254  H   0.993        C  249 0.946
   255  N   3.459        C  250 1.295    C  256 0.983    H  266 0.922    O  251 0.190
   256  C   3.959        N  255 0.983    C  259 0.975    H  267 0.944    C  257 0.927
   257  C   3.948        O  258 1.645    N  279 1.296    C  256 0.927
   258  O   1.964        C  257 1.645    N  279 0.198
   259  C   3.984        C  260 1.006    C  256 0.975    H  268 0.970    H  269 0.967
   260  C   3.989        C  259 1.006    C  261 0.995    H  271 0.970    H  270 0.969
   261  C   3.948        C  260 0.995    N  262 0.983    H  272 0.965    H  273 0.951
   262  N   3.471        C  263 1.316    C  261 0.983    H  274 0.917    N  264 0.101
   263  C   3.977        N  264 1.324    N  262 1.316    N  265 1.307
   264  N   3.405        C  263 1.324    H  276 0.921    H  275 0.914    N  262 0.101    N  265 0.101
   265  N   3.384        C  263 1.307    H  278 0.920    H  277 0.919    N  264 0.101
   266  H   0.955        N  255 0.922
   267  H   0.990        C  256 0.944
   268  H   0.995        C  259 0.970
   269  H   0.994        C  259 0.967
   270  H   0.994        C  260 0.969
   271  H   0.995        C  260 0.970
   272  H   0.991        C  261 0.965
   273  H   0.989        C  261 0.951
   274  H   0.945        N  262 0.917
   275  H   0.940        N  264 0.914
   276  H   0.941        N  264 0.921
   277  H   0.938        N  265 0.919
   278  H   0.939        N  265 0.920
   279  N   3.476        C  257 1.296    C  280 0.982    H  287 0.918    O  258 0.198
   280  C   3.963        N  279 0.982    C  281 0.971    H  288 0.951    C  283 0.943
   281  C   3.902        O  282 1.904    C  280 0.971    H  577 0.954
   282  O   2.045        C  281 1.904
   283  C   3.984        C  285 1.009    C  284 0.994    H  289 0.961    C  280 0.943
   284  C   3.994        C  286 1.017    C  283 0.994    H  290 0.974    H  291 0.973
   285  C   3.993        C  283 1.009    H  294 0.985    H  293 0.980    H  292 0.980
   286  C   3.993        C  284 1.017    H  296 0.986    H  297 0.985    H  295 0.984
   287  H   0.951        N  279 0.918
   288  H   0.993        C  280 0.951
   289  H   0.996        C  283 0.961
   290  H   0.999        C  284 0.974
   291  H   0.998        C  284 0.973
   292  H   0.995        C  285 0.980
   293  H   0.998        C  285 0.980
   294  H   0.998        C  285 0.985
   295  H   0.998        C  286 0.984
   296  H   0.998        C  286 0.986
   297  H   0.998        C  286 0.985
   298  N   2.983        C  299 1.007    H  578 0.957    H  306 0.950
   299  C   3.984        N  298 1.007    C  302 0.978    H  307 0.962    C  300 0.941
   300  C   3.939        O  301 1.617    N  317 1.293    C  299 0.941
   301  O   1.960        C  300 1.617    N  317 0.190
   302  C   3.991        C  303 0.995    C  299 0.978    H  309 0.972    H  308 0.968
   303  C   3.995        C  305 1.010    C  304 1.009    C  302 0.995    H  310 0.966
   304  C   3.996        C  303 1.009    H  311 0.986    H  312 0.986    H  313 0.981
   305  C   3.995        C  303 1.010    H  314 0.986    H  316 0.985    H  315 0.979
   306  H   0.971        N  298 0.950
   307  H   0.998        C  299 0.962
   308  H   0.997        C  302 0.968
   309  H   0.998        C  302 0.972
   310  H   0.998        C  303 0.966
   311  H   0.999        C  304 0.986
   312  H   0.999        C  304 0.986
   313  H   0.999        C  304 0.981
   314  H   0.998        C  305 0.986
   315  H   0.998        C  305 0.979
   316  H   0.998        C  305 0.985
   317  N   3.470        C  300 1.293    C  318 0.986    H  324 0.914    O  301 0.190
   318  C   3.961        N  317 0.986    C  321 0.962    H  325 0.939    C  319 0.935
   319  C   3.944        O  320 1.656    N  333 1.269    C  318 0.935
   320  O   1.975        C  319 1.656    N  333 0.189
   321  C   3.985        C  323 1.009    C  322 1.009    H  326 0.963    C  318 0.962
   322  C   3.991        C  321 1.009    H  328 0.982    H  327 0.977    H  329 0.976
   323  C   3.989        C  321 1.009    H  332 0.986    H  331 0.980    H  330 0.978
   324  H   0.951        N  317 0.914
   325  H   0.994        C  318 0.939
   326  H   0.996        C  321 0.963
   327  H   0.994        C  322 0.977
   328  H   0.997        C  322 0.982
   329  H   0.997        C  322 0.976
   330  H   0.995        C  323 0.978
   331  H   0.996        C  323 0.980
   332  H   0.999        C  323 0.986
   333  N   3.448        C  319 1.269    C  334 0.988    H  339 0.916    O  320 0.189
   334  C   3.964        N  333 0.988    C  337 0.974    H  340 0.953    C  335 0.922
   335  C   3.942        O  336 1.656    N  344 1.290    C  334 0.922
   336  O   1.968        C  335 1.656    N  344 0.197
   337  C   3.955        O  338 1.007    C  334 0.974    H  341 0.965    H  342 0.963
   338  O   1.920        C  337 1.007    H  343 0.857
   339  H   0.960        N  333 0.916
   340  H   0.990        C  334 0.953
   341  H   0.995        C  337 0.965
   342  H   0.998        C  337 0.963
   343  H   0.870        O  338 0.857
   344  N   3.459        C  335 1.290    C  345 0.976    H  355 0.917    O  336 0.197
   345  C   3.962        N  344 0.976    C  348 0.965    H  356 0.955    C  346 0.934
   346  C   3.947        O  347 1.635    N  364 1.305    C  345 0.934
   347  O   1.950        C  346 1.635    N  364 0.199
   348  C   3.986        C  349 1.008    H  358 0.967    C  345 0.965    H  357 0.965
   349  C   3.987        C  351 1.414    C  350 1.413    C  348 1.008    C  354 0.110
   350  C   3.990        C  352 1.444    C  349 1.413    H  359 0.968    C  353 0.111
   351  C   3.991        C  353 1.444    C  349 1.414    H  360 0.964    C  352 0.112
   352  C   3.992        C  350 1.444    C  354 1.437    H  361 0.971    C  351 0.112
   353  C   3.992        C  351 1.444    C  354 1.439    H  362 0.963    C  350 0.111
   354  C   3.992        C  353 1.439    C  352 1.437    H  363 0.970    C  349 0.110
   355  H   0.958        N  344 0.917
   356  H   0.995        C  345 0.955
   357  H   0.994        C  348 0.965
   358  H   0.996        C  348 0.967
   359  H   0.998        C  350 0.968
   360  H   0.999        C  351 0.964
   361  H   0.998        C  352 0.971
   362  H   0.998        C  353 0.963
   363  H   0.998        C  354 0.970
   364  N   3.475        C  346 1.305    C  365 0.990    H  376 0.893    O  347 0.199
   365  C   3.967        N  364 0.990    C  368 0.954    H  377 0.952    C  366 0.933
   366  C   3.945        O  367 1.656    N  385 1.280    C  365 0.933
   367  O   1.969        C  366 1.656    N  385 0.196
   368  C   3.987        C  369 1.006    H  378 0.971    H  379 0.967    C  365 0.954
   369  C   3.986        C  371 1.406    C  370 1.402    C  368 1.006
   370  C   3.990        C  372 1.461    C  369 1.402    H  380 0.960    C  373 0.103
   371  C   3.991        C  373 1.456    C  369 1.406    H  381 0.965    C  372 0.106
   372  C   3.987        C  370 1.461    C  374 1.355    H  382 0.966    C  371 0.106
   373  C   3.987        C  371 1.456    C  374 1.360    H  383 0.962    C  370 0.103
   374  C   3.946        C  373 1.360    C  372 1.355    O  375 1.099
   375  O   2.113        C  374 1.099    H  384 0.829
   376  H   0.948        N  364 0.893
   377  H   0.995        C  365 0.952
   378  H   0.996        C  368 0.971
   379  H   0.996        C  368 0.967
   380  H   0.998        C  370 0.960
   381  H   0.999        C  371 0.965
   382  H   0.996        C  372 0.966
   383  H   0.998        C  373 0.962
   384  H   0.883        O  375 0.829
   385  N   3.452        C  366 1.280    C  386 0.974    H  393 0.920    O  367 0.196
   386  C   3.963        C  389 0.977    N  385 0.974    H  394 0.952    C  387 0.939
   387  C   3.944        O  388 1.591    N  404 1.322    C  386 0.939
   388  O   1.989        C  387 1.591    N  404 0.189
   389  C   3.980        C  390 0.993    C  386 0.977    H  396 0.967    H  395 0.960
   390  C   3.994        C  391 1.011    C  392 1.008    C  389 0.993    H  397 0.968
   391  C   3.994        C  390 1.011    H  398 0.985    H  400 0.985    H  399 0.984
   392  C   3.993        C  390 1.008    H  402 0.986    H  403 0.986    H  401 0.985
   393  H   0.959        N  385 0.920
   394  H   0.996        C  386 0.952
   395  H   0.993        C  389 0.960
   396  H   0.996        C  389 0.967
   397  H   0.999        C  390 0.968
   398  H   0.998        C  391 0.985
   399  H   0.999        C  391 0.984
   400  H   0.998        C  391 0.985
   401  H   0.997        C  392 0.985
   402  H   0.997        C  392 0.986
   403  H   0.998        C  392 0.986
   404  N   3.473        C  387 1.322    C  405 0.971    H  413 0.916    O  388 0.189
   405  C   3.960        C  408 0.980    N  404 0.971    H  414 0.949    C  406 0.936
   406  C   3.947        O  407 1.636    N  419 1.285    C  405 0.936
   407  O   1.972        C  406 1.636    N  419 0.189
   408  C   3.985        C  409 0.989    C  405 0.980    H  416 0.970    H  415 0.967
   409  C   3.991        C  408 0.989    H  417 0.972    H  418 0.967    C  410 0.963
   410  C   3.919        O  412 1.693    O  411 1.231    C  409 0.963
   411  O   2.213        C  410 1.231    H   11 0.708    O  412 0.188
   412  O   1.975        C  410 1.693    O  411 0.188
   413  H   0.949        N  404 0.916
   414  H   0.992        C  405 0.949
   415  H   0.992        C  408 0.967
   416  H   0.995        C  408 0.970
   417  H   0.996        C  409 0.972
   418  H   0.994        C  409 0.967
   419  N   3.449        C  406 1.285    C  420 0.984    H  426 0.903    O  407 0.189
   420  C   3.971        N  419 0.984    C  423 0.961    H  427 0.953    C  421 0.936
   421  C   3.948        O  422 1.632    N  433 1.303    C  420 0.936
   422  O   1.962        C  421 1.632    N  433 0.196
   423  C   3.962        C  425 1.006    O  424 0.997    C  420 0.961    H  428 0.955
   424  O   1.940        C  423 0.997    H  429 0.855
   425  C   3.990        C  423 1.006    H  431 0.983    H  432 0.983    H  430 0.981
   426  H   0.947        N  419 0.903
   427  H   0.995        C  420 0.953
   428  H   0.999        C  423 0.955
   429  H   0.874        O  424 0.855
   430  H   0.995        C  425 0.981
   431  H   0.999        C  425 0.983
   432  H   0.996        C  425 0.983
   433  N   3.463        C  421 1.303    C  434 0.971    H  445 0.912    O  422 0.196
   434  C   3.955        C  437 0.976    N  433 0.971    H  446 0.943    C  435 0.936
   435  C   3.947        O  436 1.595    N  454 1.328    C  434 0.936
   436  O   1.982        C  435 1.595    N  454 0.197
   437  C   3.984        C  438 1.008    C  434 0.976    H  448 0.958    H  447 0.952
   438  C   3.986        C  439 1.408    C  440 1.408    C  437 1.008
   439  C   3.990        C  441 1.452    C  438 1.408    H  449 0.966    C  442 0.106
   440  C   3.990        C  442 1.453    C  438 1.408    H  450 0.966    C  441 0.108
   441  C   3.988        C  439 1.452    C  443 1.372    H  451 0.966    C  440 0.108
   442  C   3.988        C  440 1.453    C  443 1.375    H  452 0.960    C  439 0.106
   443  C   3.940        C  442 1.375    C  441 1.372    O  444 1.056
   444  O   2.107        C  443 1.056    H  453 0.870
   445  H   0.954        N  433 0.912
   446  H   0.990        C  434 0.943
   447  H   0.991        C  437 0.952
   448  H   0.994        C  437 0.958
   449  H   0.998        C  439 0.966
   450  H   0.998        C  440 0.966
   451  H   0.996        C  441 0.966
   452  H   0.997        C  442 0.960
   453  H   0.894        O  444 0.870
   454  N   3.478        C  435 1.328    C  455 0.995    H  458 0.871    O  436 0.197
   455  C   3.967        N  454 0.995    C  456 0.957    H  459 0.955    H  460 0.953
   456  C   3.946        O  457 1.564    N  461 1.339    C  455 0.957
   457  O   1.951        C  456 1.564    N  461 0.189
   458  H   0.940        N  454 0.871
   459  H   0.991        C  455 0.955
   460  H   0.990        C  455 0.953
   461  N   3.494        C  456 1.339    C  462 0.978    H  466 0.899    O  457 0.189
   462  C   3.966        C  465 0.997    N  461 0.978    H  467 0.952    C  463 0.933
   463  C   3.946        O  464 1.609    N  471 1.320    C  462 0.933
   464  O   1.951        C  463 1.609    N  471 0.196
   465  C   3.984        C  462 0.997    H  468 0.979    H  469 0.979    H  470 0.976
   466  H   0.947        N  461 0.899
   467  H   0.994        C  462 0.952
   468  H   0.996        C  465 0.979
   469  H   0.993        C  465 0.979
   470  H   0.995        C  465 0.976
   471  N   3.484        C  463 1.320    C  472 0.978    H  480 0.906    O  464 0.196
   472  C   3.965        C  475 0.979    N  471 0.978    H  481 0.956    C  473 0.930
   473  C   3.950        O  474 1.600    N  486 1.336    C  472 0.930
   474  O   1.951        C  473 1.600    N  486 0.201
   475  C   3.988        C  476 1.003    C  472 0.979    H  483 0.976    H  482 0.963
   476  C   3.988        C  475 1.003    H  484 0.982    H  485 0.959    C  477 0.919
   477  C   3.934        O  479 1.542    O  478 1.440    C  476 0.919
   478  O   1.831        C  477 1.440    O  479 0.208
   479  O   1.828        C  477 1.542    O  478 0.208
   480  H   0.953        N  471 0.906
   481  H   0.997        C  472 0.956
   482  H   0.994        C  475 0.963
   483  H   0.998        C  475 0.976
   484  H   1.000        C  476 0.982
   485  H   0.999        C  476 0.959
   486  N   3.474        C  473 1.336    C  487 0.970    H  494 0.864    O  474 0.201
   487  C   3.958        C  490 0.977    N  486 0.970    H  495 0.950    C  488 0.939
   488  C   3.946        O  489 1.600    N  505 1.320    C  487 0.939
   489  O   1.952        C  488 1.600    N  505 0.193
   490  C   3.980        C  491 0.992    C  487 0.977    H  496 0.967    H  497 0.965
   491  C   3.992        C  492 1.010    C  493 1.007    C  490 0.992    H  498 0.968
   492  C   3.993        C  491 1.010    H  501 0.984    H  500 0.984    H  499 0.980
   493  C   3.993        C  491 1.007    H  504 0.986    H  503 0.986    H  502 0.984
   494  H   0.940        N  486 0.864
   495  H   0.995        C  487 0.950
   496  H   0.995        C  490 0.967
   497  H   0.997        C  490 0.965
   498  H   0.999        C  491 0.968
   499  H   0.996        C  492 0.980
   500  H   0.999        C  492 0.984
   501  H   0.997        C  492 0.984
   502  H   0.996        C  493 0.984
   503  H   0.998        C  493 0.986
   504  H   0.998        C  493 0.986
   505  N   3.474        C  488 1.320    C  506 0.978    H  512 0.884    O  489 0.193
   506  C   3.964        N  505 0.978    C  509 0.951    H  513 0.951    C  507 0.938
   507  C   3.947        O  508 1.623    N  519 1.308    C  506 0.938
   508  O   1.952        C  507 1.623    N  519 0.198
   509  C   3.962        O  510 1.005    C  511 1.005    H  514 0.955    C  506 0.951
   510  O   1.955        C  509 1.005    H  515 0.851
   511  C   3.989        C  509 1.005    H  517 0.984    H  518 0.983    H  516 0.982
   512  H   0.949        N  505 0.884
   513  H   0.993        C  506 0.951
   514  H   0.999        C  509 0.955
   515  H   0.894        O  510 0.851
   516  H   0.994        C  511 0.982
   517  H   0.999        C  511 0.984
   518  H   0.995        C  511 0.983
   519  N   3.472        C  507 1.308    C  520 0.978    H  524 0.902    O  508 0.198
   520  C   3.969        C  523 0.997    N  519 0.978    H  525 0.954    C  521 0.935
   521  C   3.948        O  522 1.620    N  529 1.315    C  520 0.935
   522  O   1.934        C  521 1.620    N  529 0.197
   523  C   3.986        C  520 0.997    H  526 0.983    H  527 0.980    H  528 0.979
   524  H   0.953        N  519 0.902
   525  H   0.996        C  520 0.954
   526  H   0.995        C  523 0.983
   527  H   0.995        C  523 0.980
   528  H   0.996        C  523 0.979
   529  N   3.474        C  521 1.315    C  530 0.977    H  537 0.899    O  522 0.197
   530  C   3.965        C  533 0.992    N  529 0.977    H  538 0.954    C  531 0.927
   531  C   3.950        O  532 1.629    N  543 1.319    C  530 0.927
   532  O   1.957        C  531 1.629    N  543 0.201
   533  C   3.989        C  530 0.992    C  534 0.966    H  540 0.954    H  539 0.940
   534  C   3.947        O  535 1.651    N  536 1.302    C  533 0.966
   535  O   1.953        C  534 1.651    N  536 0.198
   536  N   3.383        C  534 1.302    H  542 0.927    H  541 0.923    O  535 0.198
   537  H   0.952        N  529 0.899
   538  H   0.996        C  530 0.954
   539  H   0.990        C  533 0.940
   540  H   0.991        C  533 0.954
   541  H   0.944        N  536 0.923
   542  H   0.945        N  536 0.927
   543  N   3.478        C  531 1.319    C  544 0.972    H  550 0.897    O  532 0.201
   544  C   3.954        C  545 0.977    N  543 0.972    C  547 0.948    H  551 0.945
   545  C   3.899        O  546 1.882    C  544 0.977    H  579 0.958
   546  O   2.027        C  545 1.882
   547  C   3.980        C  548 1.007    C  549 1.005    H  552 0.967    C  544 0.948
   548  C   3.990        C  547 1.007    H  554 0.985    H  555 0.983    H  553 0.983
   549  C   3.990        C  547 1.005    H  557 0.982    H  556 0.979    H  558 0.976
   550  H   0.949        N  543 0.897
   551  H   0.992        C  544 0.945
   552  H   0.998        C  547 0.967
   553  H   0.995        C  548 0.983
   554  H   0.999        C  548 0.985
   555  H   0.996        C  548 0.983
   556  H   0.994        C  549 0.979
   557  H   0.996        C  549 0.982
   558  H   0.998        C  549 0.976
   559  N   2.994        C  560 1.024    H  580 0.953    H  566 0.945
   560  C   3.987        N  559 1.024    C  561 0.979    H  567 0.950    C  563 0.932
   561  C   3.894        O  562 1.888    C  560 0.979    H  581 0.952
   562  O   2.032        C  561 1.888
   563  C   3.955        O  564 1.000    C  565 0.993    H  568 0.960    C  560 0.932
   564  O   1.942        C  563 1.000    H  569 0.865
   565  C   3.992        C  563 0.993    H  571 0.984    H  570 0.981    H  572 0.979
   566  H   0.971        N  559 0.945
   567  H   0.997        C  560 0.950
   568  H   0.999        C  563 0.960
   569  H   0.885        O  564 0.865
   570  H   0.997        C  565 0.981
   571  H   0.997        C  565 0.984
   572  H   0.997        C  565 0.979
   573  H   0.994        C   22 0.952
   574  H   0.971        N   27 0.961
   575  H   0.996        C   39 0.954
   576  H   0.965        N   61 0.953
   577  H   0.994        C  281 0.954
   578  H   0.967        N  298 0.957
   579  H   0.997        C  545 0.958
   580  H   0.964        N  559 0.953
   581  H   0.994        C  561 0.952
 
molecular dipole:
                 x           y           z       tot (Debye)
 q only:      117.951      65.811     101.904
   full:      115.741      66.114     103.875     429.534
molecular quadrupole (traceless):
                xx          xy          yy          xz          yz          zz
 q only:     2869.805    7286.540   -3833.251    7834.081    4113.589     963.446
  q+dip:     2630.350    7164.863   -3806.664    7783.744    4299.800    1176.313
   full:     2631.852    7163.957   -3807.758    7786.489    4300.110    1175.906


           -------------------------------------------------
          | TOTAL ENERGY             -889.494712200280 Eh   |
          | GRADIENT NORM               0.462841559000 Eh/α |
          | HOMO-LUMO GAP               1.906689922230 eV   |
           -------------------------------------------------

------------------------------------------------------------------------
 * finished run on 2019/05/31 at 04:13:08.936     
------------------------------------------------------------------------
 total:
 * wall-time:     0 d,  0 h,  0 min, 17.089 sec
 *  cpu-time:     0 d,  0 h,  0 min, 17.055 sec
 * ratio c/w:     0.998 speedup
 SCF:
 * wall-time:     0 d,  0 h,  0 min, 16.368 sec
 *  cpu-time:     0 d,  0 h,  0 min, 16.378 sec
 * ratio c/w:     1.001 speedup

