      -----------------------------------------------------------      
     |                   =====================                   |     
     |                           x T B                           |     
     |                   =====================                   |     
     |                         S. Grimme                         |     
     |          Mulliken Center for Theoretical Chemistry        |     
     |                    University of Bonn                     |     
     |                Version 6.1 RC1 (SAW190329)                |     
      -----------------------------------------------------------      

   This program is distributed in the hope that it will be useful,
   but WITHOUT ANY WARRANTY; without even the implied warranty of
   MERCHANTABILITY or FITNESS FOR A PARTICULAR PURPOSE.
   
   FOR NON-COMMERCIAL, ACADEMIA USE ONLY.
   
   Cite this work as:
   S. Grimme, C. Bannwarth, P. Shushkov, J. Comput. Theory Chem., 2017,
   13, 1989-2009. DOI: 10.1021/acs.jctc.7b00118
   C. Bannwarth, S. Ehlert and S. Grimme., J. Comput. Theory Chem., 2019,
   just accepted. DOI: 10.1021/acs.jctc.8b01176
   
   for sTDA-xTB:
   S. Grimme and C. Bannwarth, J. Chem. Phys., 2016, 145, 054103.
   DOI: 10.1063/1.4959605
   
   in the mass-spec context:
   V. Asgeirsson, C. Bauer and S. Grimme, Chem. Sci., 2017, 8, 4879.
   DOI: 10.1039/c7sc00601b
   
   for metadynamics refer to:
   S. Grimme, ChemRxiv, Preprint. DOI: 10.26434/chemrxiv.7660532.v1
   
   with help from (in alphabetical order)
   C. Bannwarth, F. Bohle, G. Brandenburg, E. Caldeweyher, M. Checinski,
   S. Dohm, S. Ehlert, S. Ehrlich, F. März, H. Neugebauer, J. Pisarek,
   P. Pracht, P. Shushkov, and S. Spicher.
   
 * started run on 2019/05/31 at 06:33:50.109     

           -------------------------------------------------
          |                Calculation Setup                |
           -------------------------------------------------

          program call               : /home/lum/qr/xtb-190329/bin/xtb xtb_tmp.xyz --chrg 0 --grad --gfn 2 --etemp 500 --acc 0.1 --gbsa h2o --parallel 2
          hostname                   : cu39
          coordinate file            : xtb_tmp.xyz
          omp threads                :                     2
          number of atoms            :                   294
          number of electrons        :                   776
          charge                     :                     0
          spin                       :                   0.0
          first test random number   :      0.50832977807523


molecular fragmentation (1/2 indicates fragments):
111111111111111112222222222222222222222222222222222222222222222222222222
222222222222222222222222222222222222222222222222222222222222222222222222
222222222222222222222222222222222222222222222222222222222222222222222222
222222222222222222222222222222222222222222222222222222222222222211222222
222222
# atoms in fragment 1/2:    19   275
 fragment masses (1/2) :      133.21     1828.22
CMA distance (Bohr)    :  15.420
constraining FC (au)   :  0.0500

########################################################################
# WARNING! Please study the warnings concerning your input carefully
#  - XTBPATH is not set, using XTBHOME instead
#  - Process number higher than OMP_NUM_THREADS, I hope you know what you are doing.
########################################################################

           ------------------------------------------------- 
          |                 G F N 2 - x T B                 |
          | Geometry, Frequencies, Noncovalent interactions |
          |            JCTC 2018 parametrisation            |
           ------------------------------------------------- 
 
             k(s)              :                1.8500
             k(p)              :                2.2300
             k(d)              :                2.2300
             k(f)              :                2.0000
             kEN (H0ij)        :               -2.0000
             D4 a1             :                0.5200
             D4 a2             :                5.0000
             D4 s6             :                1.0000
             D4 s8             :                2.7000
             D4 s9             :                5.0000
             alphaj            :                2.0000

  Z AO/shell   Hii/eV     exponent
  1     Wed Apr 25 08:07:45 CEST 2018   EN: 2.200 GM2: 0.406  GM3: 0.0800  RAES: 1.40
     1s    -10.707211    1.230000
  6     Wed Apr 25 08:07:45 CEST 2018   EN: 2.550 GM2: 0.538  GM3: 0.1500  RAES: 3.00
     2s    -13.970922    2.096432
     2p    -10.063292    1.800000
  7     Wed Apr 25 08:07:45 CEST 2018   EN: 3.040 GM2: 0.461  GM3:-0.0640  RAES: 1.90
     2s    -16.686243    2.339881
     2p    -12.523956    2.014332
  8     Wed Apr 25 08:07:45 CEST 2018   EN: 3.440 GM2: 0.452  GM3:-0.0517  RAES: 1.80
     2s    -20.229985    2.439742
     2p    -15.503117    2.137023
 16     Tue Apr 24 11:44:34 CEST 2018   EN: 2.580 GM2: 0.340  GM3:-0.0502  RAES: 3.10
     3s    -20.029654    1.981333
     3p    -11.377694    2.025643
     3d     -0.420282    1.702555

 Solvent             : h2o
 Using internal parameter file: .param_gbsa2_h2o
 Gsolv ref. state (COSMO-RS): gsolv [1 M gas/solution]
 temperature (mdtemp)       :    298.150000000000     
 dielectric constant        :    80.2000000000000     
 rho                        :    1.00000000000000     
 mass                       :    18.0000000000000     
 surface tension            :    15.5689454083859     
 probe radius               :   0.975313790000000     
 vdW radii scaling          :    1.00000000000000     
 Gshift (Eh)                :   1.857443126794793E-003
 c1                         :    1.55243817000000     
 soset                      :   0.130326360000000     
 HB correction              :  T
 Number of grid points      :          230

            Z     q(EN)     CN     RAES       Cart. coordinates
     1  N   5.0   -0.67    3.00    1.93   111.76938    44.74925    45.68229
     2  C   4.0    0.07    3.98    3.59   111.26521    45.40516    48.29061
     3  C   4.0    0.07    3.00    3.02   112.02011    43.19841    50.02259
     4  O   6.0   -0.39    1.00    1.80   111.08475    41.09506    49.83689
     5  C   4.0   -0.14    4.01    3.64   108.47342    46.02114    48.67101
     6  C   4.0   -0.14    3.98    3.58   107.63298    48.27090    47.09892
     7  S   6.0   -0.15    2.02    3.10   109.16323    51.19641    48.07031
     8  C   4.0   -0.20    3.98    3.58   107.87770    53.18908    45.58877
     9  H   1.0    0.26    1.00    1.43   110.28580    44.27902    44.56681
    10  H   1.0    0.11    0.99    1.43   112.44627    47.05130    48.74640
    11  H   1.0    0.11    0.99    1.43   107.38095    44.35622    48.11535
    12  H   1.0    0.10    0.99    1.43   108.17391    46.39805    50.67833
    13  H   1.0    0.10    0.99    1.43   108.08648    47.97202    45.11143
    14  H   1.0    0.09    0.99    1.43   105.60025    48.54681    47.29919
    15  H   1.0    0.12    0.99    1.43   108.77045    55.02363    45.74015
    16  H   1.0    0.10    0.99    1.43   108.30166    52.33837    43.76699
    17  H   1.0    0.11    0.99    1.43   105.85008    53.36643    45.85206
    18  N   5.0   -0.68    3.00    1.93   112.59363    42.03245    58.11053
    19  C   4.0    0.07    3.98    3.58   111.32739    43.14574    60.25856
    20  C   4.0    0.07    3.00    3.02   111.01996    41.20612    62.33677
    21  O   6.0   -0.38    1.00    1.80   110.49948    38.98728    61.92921
    22  C   4.0   -0.13    3.99    3.60   108.67961    44.15108    59.50624
    23  C   4.0   -0.02    3.02    3.02   107.06928    42.15436    58.29739
    24  C   4.0   -0.09    3.03    3.02   107.38207    41.51488    55.76318
    25  C   4.0   -0.09    3.03    3.02   105.22674    40.89064    59.67969
    26  C   4.0   -0.08    3.02    3.02   105.86642    39.72633    54.61149
    27  C   4.0   -0.07    3.03    3.02   103.67263    39.13054    58.54299
    28  C   4.0    0.12    3.03    3.02   103.94584    38.55855    55.98337
    29  O   6.0   -0.45    1.99    1.83   102.24383    36.97979    54.93628
    30  H   1.0    0.30    1.00    1.43   112.94081    40.14672    58.10428
    31  H   1.0    0.11    0.99    1.43   112.43124    44.76697    60.93042
    32  H   1.0    0.10    0.99    1.43   107.77951    44.90941    61.20124
    33  H   1.0    0.10    0.99    1.43   109.00559    45.71507    58.20328
    34  H   1.0    0.11    0.99    1.43   108.80989    42.45496    54.64758
    35  H   1.0    0.12    1.00    1.43   104.99263    41.34332    61.65239
    36  H   1.0    0.13    0.99    1.43   106.15527    39.23680    52.64836
    37  H   1.0    0.13    1.00    1.43   102.22078    38.15929    59.58561
    38  H   1.0    0.25    0.99    1.43   102.60743    36.77230    53.11508
    39  N   5.0   -0.71    3.00    1.93   104.03641    46.64166    71.49549
    40  C   4.0    0.07    3.98    3.58   102.41686    48.27840    69.99170
    41  C   4.0    0.08    3.00    3.02    99.76606    48.28988    71.16586
    42  O   6.0   -0.40    1.00    1.80    98.61732    50.23239    71.66305
    43  C   4.0   -0.14    3.98    3.59   102.48247    47.28798    67.26788
    44  C   4.0   -0.11    3.97    3.58   100.81132    48.65638    65.32529
    45  C   4.0   -0.23    3.98    3.59    98.02317    47.94570    65.56961
    46  C   4.0   -0.20    3.98    3.59   101.13716    51.52122    65.45605
    47  H   1.0    0.26    1.00    1.43   105.30072    45.56798    70.53776
    48  H   1.0    0.13    0.99    1.43   103.11373    50.23408    70.07291
    49  H   1.0    0.10    0.99    1.43   104.45133    47.45410    66.65522
    50  H   1.0    0.11    0.99    1.43   101.96984    45.28832    67.30594
    51  H   1.0    0.10    0.99    1.43   101.47550    48.04551    63.46199
    52  H   1.0    0.09    0.99    1.43    96.98359    48.71467    63.97642
    53  H   1.0    0.10    0.99    1.43    97.79482    45.90630    65.63454
    54  H   1.0    0.13    0.99    1.43    97.23442    48.76993    67.27498
    55  H   1.0    0.12    0.99    1.43   100.16323    52.44835    63.90105
    56  H   1.0    0.14    0.99    1.43   100.35801    52.26739    67.20773
    57  H   1.0    0.12    0.99    1.43   103.12080    52.07349    65.35479
    58  N   5.0   -0.70    3.00    1.93    86.20721    58.01826    54.75674
    59  C   4.0    0.08    3.99    3.60    88.71928    58.43322    55.75292
    60  C   4.0    0.28    3.01    3.02    88.71640    57.59650    58.51748
    61  O   6.0   -0.41    1.00    1.80    86.91646    58.02401    59.92583
    62  C   4.0   -0.09    3.98    3.58    89.52023    61.22343    55.44583
    63  C   4.0   -0.21    3.98    3.59    87.73660    63.05328    56.80666
    64  C   4.0   -0.23    3.98    3.59    92.24466    61.53640    56.34782
    65  H   1.0    0.28    1.00    1.43    84.80003    58.95637    55.63696
    66  H   1.0    0.12    0.99    1.43    90.01090    57.22887    54.67086
    67  H   1.0    0.10    0.99    1.43    89.44773    61.61635    53.41557
    68  H   1.0    0.10    0.99    1.43    88.61316    64.90849    56.91213
    69  H   1.0    0.11    0.99    1.43    85.94908    63.24540    55.80463
    70  H   1.0    0.14    0.99    1.43    87.35281    62.41191    58.72378
    71  H   1.0    0.10    0.99    1.43    92.94643    63.38352    55.78438
    72  H   1.0    0.12    0.99    1.43    92.35364    61.37965    58.39764
    73  H   1.0    0.12    0.99    1.43    93.43516    60.08213    55.50633
    74  N   5.0   -0.50    3.01    1.93    90.76066    56.30520    59.25030
    75  C   4.0    0.08    4.00    3.61    91.13865    55.52657    61.84916
    76  C   4.0    0.27    3.00    3.02    93.30454    57.13610    62.92413
    77  O   6.0   -0.43    1.00    1.80    95.42122    57.17562    62.02986
    78  C   4.0   -0.09    3.98    3.58    91.53907    52.64941    62.08419
    79  C   4.0   -0.21    3.98    3.59    93.79613    51.72799    60.54510
    80  C   4.0   -0.22    3.98    3.59    91.78535    51.91640    64.86521
    81  H   1.0    0.26    1.00    1.43    92.21977    56.04283    58.04575
    82  H   1.0    0.13    0.99    1.43    89.39843    56.02586    62.85120
    83  H   1.0    0.11    0.99    1.43    89.81679    51.76860    61.33600
    84  H   1.0    0.09    0.99    1.43    93.99628    49.69989    60.79668
    85  H   1.0    0.13    0.99    1.43    93.49706    52.11770    58.54856
    86  H   1.0    0.13    0.99    1.43    95.52042    52.67027    61.15917
    87  H   1.0    0.10    0.99    1.43    91.86450    49.87422    65.02642
    88  H   1.0    0.13    0.99    1.43    93.48257    52.71774    65.70721
    89  H   1.0    0.11    0.99    1.43    90.16651    52.57602    65.94437
    90  N   5.0   -0.48    3.02    1.93    92.56682    58.59671    64.87807
    91  C   4.0    0.07    3.98    3.59    94.16834    60.46224    66.13214
    92  C   4.0    0.08    3.00    3.02    93.22566    60.47622    68.87951
    93  O   6.0   -0.36    1.00    1.80    93.70165    58.68351    70.26479
    94  C   4.0   -0.10    3.98    3.58    94.04444    62.95797    64.66484
    95  C   4.0    0.31    2.99    3.02    95.40366    65.16648    66.04529
    96  O   6.0   -0.44    1.00    1.80    97.59207    65.67706    65.37579
    97  O   6.0   -0.38    1.00    1.80    94.15849    66.30554    67.70587
    98  H   1.0    0.24    1.00    1.43    90.75861    58.51187    65.47889
    99  H   1.0    0.17    0.99    1.43    96.10845    59.73276    66.12188
   100  H   1.0    0.12    0.99    1.43    94.93313    62.65817    62.82155
   101  H   1.0    0.12    0.99    1.43    92.06772    63.48770    64.39764
   102  N   5.0   -0.72    3.00    1.92    99.37162    70.35544    47.12945
   103  C   4.0    0.02    3.98    3.59    99.79843    69.48372    49.67152
   104  C   4.0    0.26    3.00    3.02   100.22743    66.64886    49.99357
   105  O   6.0   -0.45    1.00    1.80   100.58980    65.76508    52.09737
   106  H   1.0    0.27    1.00    1.43   100.86139    70.35140    45.92244
   107  H   1.0    0.13    0.99    1.43   101.44123    70.45304    50.46681
   108  H   1.0    0.12    0.99    1.43    98.11546    69.97865    50.76884
   109  N   5.0   -0.48    3.01    1.93   100.07089    65.27679    47.87845
   110  C   4.0    0.08    4.00    3.61   100.47353    62.56319    47.82164
   111  C   4.0    0.29    3.01    3.02   103.35498    62.15033    47.92349
   112  O   6.0   -0.41    1.00    1.80   104.71624    62.26098    46.06650
   113  C   4.0   -0.08    3.98    3.58    99.31429    61.37258    45.44640
   114  C   4.0   -0.16    3.98    3.58    96.48321    61.93858    45.15570
   115  C   4.0   -0.22    3.98    3.59    99.84345    58.53249    45.42761
   116  C   4.0   -0.22    3.98    3.58    94.82220    60.92053    47.27767
   117  H   1.0    0.23    1.00    1.43   100.07339    66.18474    46.19896
   118  H   1.0    0.13    0.99    1.43    99.60265    61.75332    49.51764
   119  H   1.0    0.12    0.99    1.43   100.27101    62.20869    43.80787
   120  H   1.0    0.11    0.99    1.43    96.21768    63.97897    44.99638
   121  H   1.0    0.10    0.99    1.43    95.86919    61.10954    43.36669
   122  H   1.0    0.09    0.99    1.43    98.85485    57.64685    43.86020
   123  H   1.0    0.12    0.99    1.43   101.85369    58.18619    45.18519
   124  H   1.0    0.12    0.99    1.43    99.24210    57.65060    47.18265
   125  H   1.0    0.10    0.99    1.43    92.84639    61.25004    46.82268
   126  H   1.0    0.11    0.99    1.43    95.09337    58.90266    47.52793
   127  H   1.0    0.12    0.99    1.43    95.24068    61.84983    49.05752
   128  N   5.0   -0.44    3.01    1.93   104.22096    61.82845    50.28875
   129  C   4.0    0.09    3.99    3.60   106.79715    61.20425    50.90929
   130  C   4.0    0.25    3.01    3.02   106.77197    58.59052    52.14403
   131  O   6.0   -0.43    1.00    1.80   104.76735    57.64612    52.82845
   132  C   4.0   -0.01    3.98    3.58   107.92813    63.19728    52.71428
   133  O   6.0   -0.44    1.99    1.82   108.27617    65.44320    51.34891
   134  H   1.0    0.26    1.00    1.43   102.96048    61.40232    51.65974
   135  H   1.0    0.15    0.99    1.43   107.88807    61.20205    49.15464
   136  H   1.0    0.12    0.99    1.43   106.60956    63.49238    54.29676
   137  H   1.0    0.09    0.99    1.43   109.74002    62.49917    53.45205
   138  H   1.0    0.25    0.99    1.43   109.22339    66.62678    52.36746
   139  N   5.0   -0.51    3.00    1.93   109.00359    57.51263    52.61014
   140  C   4.0    0.07    3.99    3.61   109.17932    55.14465    54.00350
   141  C   4.0    0.29    3.01    3.02   107.52365    55.19443    56.38801
   142  O   6.0   -0.43    1.00    1.80   106.40984    53.31820    57.11587
   143  C   4.0   -0.21    3.98    3.59   111.91045    54.60214    54.73628
   144  H   1.0    0.22    1.00    1.43   110.61868    58.26092    51.92492
   145  H   1.0    0.13    0.99    1.43   108.46986    53.59817    52.82251
   146  H   1.0    0.12    0.99    1.43   111.99455    52.82241    55.75912
   147  H   1.0    0.11    0.99    1.43   113.08372    54.47749    53.05355
   148  H   1.0    0.12    0.99    1.43   112.63561    56.07093    55.97643
   149  N   5.0   -0.48    3.00    1.93   107.43540    57.42895    57.59313
   150  C   4.0    0.08    3.99    3.60   106.16783    57.76096    59.98574
   151  C   4.0    0.26    3.01    3.02   103.27782    58.02578    59.77466
   152  O   6.0   -0.42    1.00    1.80   102.01045    58.22165    61.69512
   153  C   4.0   -0.14    3.98    3.59   107.18078    60.08214    61.38250
   154  C   4.0   -0.11    3.97    3.58   109.94384    59.86225    62.18895
   155  C   4.0    0.31    2.99    3.02   110.29099    57.68214    64.14758
   156  O   6.0   -0.37    1.00    1.80   109.99260    58.24393    66.41754
   157  O   6.0   -0.38    1.00    1.80   110.83396    55.56113    63.26965
   158  H   1.0    0.24    1.00    1.43   108.47233    58.89661    56.96198
   159  H   1.0    0.16    0.99    1.43   106.51319    56.08360    61.15488
   160  H   1.0    0.11    0.99    1.43   106.93471    61.75323    60.18722
   161  H   1.0    0.14    0.99    1.43   106.02648    60.33563    63.07592
   162  H   1.0    0.12    0.99    1.43   111.17892    59.50441    60.57424
   163  H   1.0    0.12    0.99    1.43   110.51033    61.61406    63.11502
   164  N   5.0   -0.49    3.01    1.93   102.33266    58.05410    57.43305
   165  C   4.0    0.07    3.99    3.60    99.68957    58.48667    56.84669
   166  C   4.0    0.27    3.01    3.02    98.88504    56.82171    54.59888
   167  O   6.0   -0.43    1.00    1.80    98.19271    57.73031    52.57332
   168  C   4.0   -0.13    3.98    3.59    99.29239    61.29357    56.27849
   169  C   4.0   -0.14    3.98    3.59    99.63792    62.89053    58.65200
   170  C   4.0   -0.04    3.99    3.60    98.97015    65.65397    58.19817
   171  N   5.0   -0.47    3.02    1.93    99.12751    67.01244    60.56844
   172  C   4.0    0.38    3.01    3.02    98.80220    69.47758    60.87105
   173  N   5.0   -0.65    3.01    1.93    98.46366    71.02397    58.90765
   174  N   5.0   -0.63    3.02    1.93    98.97768    70.40505    63.20758
   175  H   1.0    0.32    1.00    1.43   103.48161    57.81591    55.91511
   176  H   1.0    0.15    0.99    1.43    98.56924    57.99978    58.53174
   177  H   1.0    0.14    0.99    1.43   100.58668    61.93895    54.80747
   178  H   1.0    0.11    0.99    1.43    97.38783    61.52698    55.54955
   179  H   1.0    0.13    0.99    1.43    98.44963    62.12486    60.16046
   180  H   1.0    0.14    0.99    1.43   101.59423    62.77645    59.29691
   181  H   1.0    0.14    0.99    1.43   100.28879    66.45004    56.82284
   182  H   1.0    0.11    0.99    1.43    97.05996    65.77724    57.41102
   183  H   1.0    0.28    1.00    1.43    99.00589    65.94463    62.17644
   184  H   1.0    0.26    1.00    1.43    98.42129    70.31026    57.14479
   185  H   1.0    0.27    1.00    1.43    98.29932    72.90243    59.18040
   186  H   1.0    0.32    1.00    1.43    98.85753    69.14847    64.65477
   187  H   1.0    0.27    1.00    1.43    98.56158    72.22138    63.57518
   188  N   5.0   -0.32    3.03    1.93    98.95769    54.33646    55.01587
   189  C   4.0    0.06    4.02    3.66    98.16883    52.54417    53.08926
   190  C   4.0    0.27    3.00    3.02    95.28365    52.64874    52.67672
   191  O   6.0   -0.43    1.00    1.80    93.88929    53.95150    53.97175
   192  C   4.0   -0.13    4.01    3.64    99.16602    50.00351    54.05354
   193  C   4.0   -0.14    4.00    3.62    99.20489    50.31297    56.92562
   194  C   4.0   -0.03    4.02    3.65    99.95222    53.07517    57.24760
   195  H   1.0    0.12    0.99    1.43    99.01100    53.11174    51.28460
   196  H   1.0    0.12    0.99    1.43    97.93417    48.47440    53.48405
   197  H   1.0    0.11    0.99    1.43   101.06734    49.72033    53.31965
   198  H   1.0    0.10    0.99    1.43    97.32677    49.99575    57.71153
   199  H   1.0    0.11    0.99    1.43   100.58957    49.10194    57.84327
   200  H   1.0    0.12    0.99    1.43    99.21026    53.91028    58.97314
   201  H   1.0    0.16    0.99    1.43   102.00925    53.26454    57.33837
   202  N   5.0   -0.50    3.01    1.93    94.48378    51.25722    50.69414
   203  C   4.0    0.07    3.99    3.60    91.91344    51.32636    49.78083
   204  C   4.0    0.26    3.00    3.02    90.49435    48.89995    50.49083
   205  O   6.0   -0.43    1.00    1.80    91.52496    46.84446    50.66962
   206  C   4.0   -0.14    3.98    3.59    91.78310    51.88613    46.91601
   207  C   4.0   -0.09    3.97    3.58    93.58637    50.33258    45.24565
   208  C   4.0   -0.22    3.98    3.59    92.47579    49.95399    42.60475
   209  C   4.0   -0.23    3.98    3.59    96.14839    51.64640    44.95135
   210  H   1.0    0.23    1.00    1.43    95.63757    49.96995    49.89275
   211  H   1.0    0.13    0.99    1.43    91.01093    52.89410    50.78619
   212  H   1.0    0.11    0.99    1.43    89.83619    51.58734    46.30842
   213  H   1.0    0.10    0.99    1.43    92.21660    53.88246    46.64081
   214  H   1.0    0.13    0.99    1.43    93.83847    48.46287    46.08516
   215  H   1.0    0.10    0.99    1.43    93.83419    48.97244    41.41572
   216  H   1.0    0.11    0.99    1.43    90.75307    48.83601    42.65494
   217  H   1.0    0.10    0.99    1.43    92.04816    51.76560    41.73623
   218  H   1.0    0.09    0.99    1.43    97.42381    50.43870    43.88149
   219  H   1.0    0.10    0.99    1.43    95.89944    53.41382    43.92405
   220  H   1.0    0.10    0.99    1.43    97.00456    52.07130    46.76794
   221  N   5.0   -0.47    3.01    1.93    88.00667    49.26711    50.83226
   222  C   4.0    0.07    3.98    3.59    86.28377    47.45489    51.95537
   223  C   4.0    0.06    3.00    3.02    83.79369    47.56341    50.48356
   224  O   6.0   -0.39    1.00    1.80    83.14137    49.53669    49.45399
   225  C   4.0   -0.08    3.98    3.58    85.83716    48.12308    54.78415
   226  C   4.0   -0.23    3.98    3.59    84.28238    46.10112    56.11752
   227  C   4.0   -0.20    3.98    3.59    88.33347    48.48903    56.18871
   228  H   1.0    0.25    1.00    1.43    87.33905    51.06396    50.76547
   229  H   1.0    0.12    0.99    1.43    87.11286    45.57290    51.80268
   230  H   1.0    0.13    0.99    1.43    84.81166    49.91688    54.85008
   231  H   1.0    0.11    0.99    1.43    83.72784    46.73262    57.98852
   232  H   1.0    0.11    0.99    1.43    82.56704    45.66111    55.08775
   233  H   1.0    0.10    0.99    1.43    85.37181    44.37539    56.33569
   234  H   1.0    0.10    0.99    1.43    87.94304    48.68816    58.19461
   235  H   1.0    0.12    0.99    1.43    89.57771    46.87271    55.94150
   236  H   1.0    0.13    0.99    1.43    89.32526    50.17080    55.55096
   237  N   5.0   -0.67    3.00    1.93    87.21971    38.71151    54.48931
   238  C   4.0    0.06    3.98    3.58    89.08345    40.48900    53.56304
   239  C   4.0    0.07    3.00    3.02    89.76195    39.80252    50.82427
   240  O   6.0   -0.37    1.00    1.80    89.89310    37.60158    50.10822
   241  C   4.0   -0.13    3.99    3.60    91.44049    40.53125    55.23773
   242  C   4.0   -0.04    3.02    3.02    91.09926    41.78804    57.78137
   243  C   4.0   -0.10    3.03    3.02    88.90408    41.53320    59.19930
   244  C   4.0   -0.10    3.04    3.02    93.07641    43.19044    58.79922
   245  C   4.0   -0.10    3.03    3.02    88.69988    42.63136    61.56506
   246  C   4.0   -0.11    3.03    3.02    92.89192    44.25185    61.18213
   247  C   4.0   -0.11    3.03    3.02    90.69994    43.97352    62.57966
   248  H   1.0    0.27    1.00    1.43    87.85337    37.04668    55.21919
   249  H   1.0    0.10    0.99    1.43    88.19877    42.35735    53.55949
   250  H   1.0    0.12    0.99    1.43    92.02143    38.56940    55.51638
   251  H   1.0    0.10    0.99    1.43    92.91620    41.51953    54.19105
   252  H   1.0    0.10    1.00    1.43    87.31618    40.49981    58.45714
   253  H   1.0    0.12    1.00    1.43    94.76731    43.49408    57.70892
   254  H   1.0    0.11    1.00    1.43    86.96198    42.43444    62.61013
   255  H   1.0    0.10    1.00    1.43    94.46782    45.29259    61.94579
   256  H   1.0    0.11    1.00    1.43    90.53996    44.80954    64.42975
   257  N   5.0   -0.70    3.00    1.93    95.02522    40.01781    46.73937
   258  C   4.0    0.06    3.98    3.58    97.51500    39.70413    45.59689
   259  C   4.0    0.07    3.00    3.02    97.89183    36.89127    45.03089
   260  O   6.0   -0.38    1.00    1.80    98.12099    36.06464    42.90847
   261  C   4.0   -0.15    3.98    3.59    99.71941    40.67018    47.21847
   262  C   4.0   -0.16    3.98    3.59    99.85442    43.55568    47.45369
   263  C   4.0   -0.05    3.98    3.59   101.22742    44.34005    49.86588
   264  N   5.0   -0.48    3.02    1.93    99.79398    43.46125    52.04270
   265  C   4.0    0.36    3.00    3.02   100.58008    43.43790    54.42321
   266  N   5.0   -0.65    3.02    1.93   102.59740    44.75989    55.12782
   267  N   5.0   -0.65    3.02    1.93    99.17614    42.28917    56.17749
   268  H   1.0    0.29    1.00    1.43    94.21837    38.46520    47.50326
   269  H   1.0    0.14    0.99    1.43    97.49909    40.74206    43.80559
   270  H   1.0    0.12    0.99    1.43    99.60486    39.81664    49.09009
   271  H   1.0    0.11    0.99    1.43   101.46649    39.95969    46.37948
   272  H   1.0    0.09    0.99    1.43   100.88497    44.31975    45.84423
   273  H   1.0    0.11    0.99    1.43    97.95763    44.35698    47.42003
   274  H   1.0    0.11    0.99    1.43   103.11415    43.48714    49.87362
   275  H   1.0    0.09    0.99    1.43   101.39487    46.39966    49.91307
   276  H   1.0    0.23    1.00    1.43    98.14409    42.59386    51.62681
   277  H   1.0    0.25    1.00    1.43   103.73188    45.54107    53.81358
   278  H   1.0    0.26    1.00    1.43   103.35372    44.47056    56.85745
   279  H   1.0    0.26    1.00    1.43    97.86670    41.00255    55.66539
   280  H   1.0    0.26    1.00    1.43    99.85702    42.15234    57.95451
   281  H   1.0    0.29    1.00    1.43   112.50849    46.06534    44.89860
   282  H   1.0    0.12    1.00    1.43   113.32425    43.45498    51.36590
   283  H   1.0    0.30    1.00    1.43   111.67013    42.29735    56.70712
   284  H   1.0    0.12    1.00    1.43   111.24286    41.71361    64.14338
   285  H   1.0    0.31    1.00    1.43   104.95441    47.58534    72.57219
   286  H   1.0    0.14    1.00    1.43    98.89988    46.65710    71.55937
   287  H   1.0    0.29    1.00    1.43    86.15509    58.50408    53.12768
   288  H   1.0    0.15    1.00    1.43    92.22860    61.94430    69.52888
   289  H   1.0    0.30    1.00    1.43    98.19322    69.38065    46.38533
   290  H   1.0    0.12    1.00    1.43    82.70032    46.02693    50.36187
   291  H   1.0    0.27    1.00    1.43    86.32047    39.43206    55.74021
   292  H   1.0    0.13    1.00    1.43    90.11198    41.16890    49.56667
   293  H   1.0    0.29    1.00    1.43    95.11954    41.15123    48.00390
   294  H   1.0    0.13    1.00    1.43    97.95806    35.64290    46.44802

           ------------------------------------------------- 
          |        Self-Consistent Charge Iterations        |
           ------------------------------------------------- 

          ...................................................
          :                      SETUP                      :
          :.................................................:
          :  # basis functions                 711          :
          :  # atomic orbitals                 710          :
          :  # shells                          432          :
          :  # electrons                       776          :
          :  max. iterations                   250          :
          :  Hamiltonian                  GFN2-xTB          :
          :  restarted?                      false          :
          :  GBSA solvation                   true          :
          :  PC potential                    false          :
          :  electronic temp.          500.0000000     K    :
          :  accuracy                    0.1000000          :
          :  -> integral cutoff          0.3500000E+02      :
          :  -> integral neglect         0.1000000E-08      :
          :  -> SCF convergence          0.1000000E-06 Eh   :
          :  -> wf. convergence          0.1000000E-04 e    :
          :  Broyden damping             0.4000000          :
          ...................................................

 iter      E             dE          RMSdq      gap      omega  full diag
   1   -441.2826742 -0.441283E+03  0.425E+00    1.65       0.0  T
   2   -442.3058293 -0.102316E+01  0.219E+00    1.44       1.0  T
   3   -442.3503829 -0.445536E-01  0.118E+00    1.84       1.0  T
   4   -442.3803106 -0.299276E-01  0.275E-01    1.20       1.0  T
   5   -442.3896045 -0.929395E-02  0.122E-01    1.34       1.0  T
   6   -442.3900895 -0.484959E-03  0.539E-02    1.37       1.0  T
   7   -442.3901865 -0.970415E-04  0.276E-02    1.39       1.0  T
   8   -442.3902388 -0.523192E-04  0.120E-02    1.40       1.0  T
   9   -442.3902458 -0.699967E-05  0.631E-03    1.40       1.0  T
  10   -442.3902477 -0.182516E-05  0.277E-03    1.40       2.1  T
  11   -442.3902480 -0.329564E-06  0.117E-03    1.40       5.0  T
  12   -442.3902480 -0.648937E-07  0.587E-04    1.40       9.9  T
  13   -442.3902481 -0.245482E-07  0.238E-04    1.40      24.5  T
  14   -442.3902481 -0.264038E-08  0.103E-04    1.40      56.6  T
  15   -442.3902481 -0.490559E-09  0.418E-05    1.40     139.4  T
  16   -442.3902481 -0.929390E-10  0.175E-05    1.40     334.1  T

   *** convergence criteria satisfied after 16 iterations ***

         #    Occupation            Energy/Eh            Energy/eV
      -------------------------------------------------------------
         1        2.0000           -0.7430160             -20.2185
       ...           ...                  ...                  ...
       382        2.0000           -0.3702153             -10.0741
       383        2.0000           -0.3692734             -10.0484
       384        2.0000           -0.3666846              -9.9780
       385        2.0000           -0.3659627              -9.9584
       386        2.0000           -0.3608901              -9.8203
       387        2.0000           -0.3587228              -9.7613
       388        2.0000           -0.3552203              -9.6660 (HOMO)
       389        0.0000           -0.3038458              -8.2681 (LUMO)
       390                         -0.2916334              -7.9357
       391                         -0.2839587              -7.7269
       392                         -0.2832938              -7.7088
       393                         -0.2805352              -7.6338
       ...                                ...                  ...
       710                          0.6861536              18.6712
      -------------------------------------------------------------
                  HL-Gap            0.0513745 Eh            1.3980 eV
             Fermi-level           -0.3294301 Eh           -8.9642 eV

 SCC (total)                   0 d,  0 h,  0 min,  4.537 sec
 SCC setup                      ...        0 min,  0.075 sec (  1.645%)
 Dispersion                     ...        0 min,  0.030 sec (  0.660%)
 integral evaluation            ...        0 min,  0.151 sec (  3.323%)
 zeroth order Hamiltonian       ...        0 min,  0.011 sec (  0.237%)
 iterations                     ...        0 min,  3.795 sec ( 83.652%)
 molecular gradient             ...        0 min,  0.465 sec ( 10.248%)
 printout                       ...        0 min,  0.011 sec (  0.233%)

         :::::::::::::::::::::::::::::::::::::::::::::::::::::
         ::                     SUMMARY                     ::
         :::::::::::::::::::::::::::::::::::::::::::::::::::::
         :: total energy             -436.806273517414 Eh   ::
         :: total w/o Gsasa/hb       -436.751960841826 Eh   ::
         :: gradient norm               0.587975658280 Eh/α ::
         :: HOMO-LUMO gap               1.397971151399 eV   ::
         ::.................................................::
         :: SCC energy               -442.403735510774 Eh   ::
         :: -> isotropic ES             1.275952967463 Eh   ::
         :: -> anisotropic ES          -0.014303986623 Eh   ::
         :: -> anisotropic XC           0.170619497947 Eh   ::
         :: -> dispersion              -0.346277855692 Eh   ::
         :: -> Gsolv                   -0.344981080364 Eh   ::
         ::    -> Gborn                -0.290668404776 Eh   ::
         ::    -> Gsasa                -0.015344879180 Eh   ::
         ::    -> Ghb                  -0.040825239535 Eh   ::
         ::    -> Gshift                0.001857443127 Eh   ::
         :: repulsion energy            5.567534360077 Eh   ::
         :: add. restraining            0.000000000000 Eh   ::
         :::::::::::::::::::::::::::::::::::::::::::::::::::::

           -------------------------------------------------
          |                Property Printout                |
           -------------------------------------------------

    * Orbital Energies and Occupations

         #    Occupation            Energy/Eh            Energy/eV
      -------------------------------------------------------------
         1        2.0000           -0.7430160             -20.2185
       ...           ...                  ...                  ...
       376        2.0000           -0.3879354             -10.5563
       377        2.0000           -0.3877752             -10.5519
       378        2.0000           -0.3753154             -10.2129
       379        2.0000           -0.3751656             -10.2088
       380        2.0000           -0.3731775             -10.1547
       381        2.0000           -0.3715718             -10.1110
       382        2.0000           -0.3702153             -10.0741
       383        2.0000           -0.3692734             -10.0484
       384        2.0000           -0.3666846              -9.9780
       385        2.0000           -0.3659627              -9.9584
       386        2.0000           -0.3608901              -9.8203
       387        2.0000           -0.3587228              -9.7613
       388        2.0000           -0.3552203              -9.6660 (HOMO)
       389        0.0000           -0.3038458              -8.2681 (LUMO)
       390                         -0.2916334              -7.9357
       391                         -0.2839587              -7.7269
       392                         -0.2832938              -7.7088
       393                         -0.2805352              -7.6338
       394                         -0.2802326              -7.6255
       395                         -0.2786283              -7.5819
       396                         -0.2519252              -6.8552
       397                         -0.2383752              -6.4865
       398                         -0.2346723              -6.3858
       399                         -0.2327998              -6.3348
       ...                                ...                  ...
       710                          0.6861536              18.6712
      -------------------------------------------------------------
                  HL-Gap            0.0513745 Eh            1.3980 eV
             Fermi-level           -0.3294301 Eh           -8.9642 eV

   #   Z        covCN         q      C6AA      α(0)
   1   7 N      2.636    -0.383    29.899     8.121
   2   6 C      3.783     0.039    19.936     6.360
   3   6 C      2.766     0.198    23.785     7.987
   4   8 O      0.856    -0.354    20.780     6.112
   5   6 C      3.834    -0.073    21.871     6.654
   6   6 C      3.796    -0.013    20.812     6.496
   7  16 S      1.968    -0.237   151.209    20.696
   8   6 C      3.745    -0.057    21.667     6.640
   9   1 H      0.860     0.169     1.276     1.770
  10   1 H      0.923     0.050     2.321     2.382
  11   1 H      0.924     0.077     2.011     2.218
  12   1 H      0.924     0.058     2.223     2.332
  13   1 H      0.925     0.056     2.246     2.344
  14   1 H      0.925     0.067     2.121     2.277
  15   1 H      0.926     0.048     2.346     2.395
  16   1 H      0.925     0.059     2.208     2.324
  17   1 H      0.925     0.055     2.257     2.350
  18   7 N      2.636    -0.382    29.876     8.118
  19   6 C      3.782     0.042    19.895     6.354
  20   6 C      2.770     0.200    23.733     7.979
  21   8 O      0.856    -0.384    21.358     6.196
  22   6 C      3.811    -0.075    21.917     6.664
  23   6 C      2.967    -0.006    28.159     8.704
  24   6 C      2.925    -0.043    29.057     8.840
  25   6 C      2.923    -0.042    29.034     8.836
  26   6 C      2.915    -0.081    30.018     8.984
  27   6 C      2.919    -0.069    29.721     8.940
  28   6 C      2.845     0.141    24.914     8.180
  29   8 O      1.657    -0.413    21.097     6.200
  30   1 H      0.860     0.159     1.340     1.813
  31   1 H      0.924     0.050     2.320     2.382
  32   1 H      0.924     0.048     2.343     2.394
  33   1 H      0.924     0.072     2.059     2.244
  34   1 H      0.926     0.041     2.433     2.439
  35   1 H      0.926     0.039     2.459     2.452
  36   1 H      0.925     0.060     2.196     2.317
  37   1 H      0.926     0.064     2.148     2.292
  38   1 H      0.802     0.349     0.592     1.209
  39   7 N      2.639    -0.390    30.107     8.149
  40   6 C      3.780     0.045    19.835     6.345
  41   6 C      2.764     0.209    23.561     7.949
  42   8 O      0.856    -0.399    21.660     6.240
  43   6 C      3.807    -0.074    21.918     6.665
  44   6 C      3.848    -0.017    20.842     6.494
  45   6 C      3.755    -0.121    22.866     6.818
  46   6 C      3.754    -0.097    22.403     6.749
  47   1 H      0.860     0.175     1.243     1.746
  48   1 H      0.923     0.022     2.701     2.570
  49   1 H      0.924     0.048     2.348     2.396
  50   1 H      0.924     0.073     2.056     2.243
  51   1 H      0.924     0.057     2.236     2.338
  52   1 H      0.925     0.059     2.208     2.324
  53   1 H      0.925     0.060     2.204     2.321
  54   1 H      0.925     0.026     2.645     2.543
  55   1 H      0.925     0.033     2.547     2.496
  56   1 H      0.925     0.021     2.716     2.577
  57   1 H      0.924     0.016     2.802     2.618
  58   7 N      2.638    -0.388    30.050     8.141
  59   6 C      3.789     0.028    20.118     6.388
  60   6 C      2.758     0.276    22.323     7.737
  61   8 O      0.858    -0.499    23.765     6.536
  62   6 C      3.850    -0.021    20.921     6.506
  63   6 C      3.752    -0.109    22.637     6.785
  64   6 C      3.755    -0.107    22.601     6.779
  65   1 H      0.860     0.160     1.336     1.810
  66   1 H      0.924     0.048     2.349     2.397
  67   1 H      0.924     0.043     2.413     2.429
  68   1 H      0.925     0.043     2.410     2.428
  69   1 H      0.925     0.043     2.414     2.430
  70   1 H      0.925     0.034     2.531     2.488
  71   1 H      0.925     0.046     2.370     2.407
  72   1 H      0.925     0.019     2.752     2.594
  73   1 H      0.925     0.037     2.483     2.464
  74   7 N      2.692    -0.171    24.700     7.381
  75   6 C      3.799     0.017    20.293     6.414
  76   6 C      2.751     0.280    22.255     7.725
  77   8 O      0.858    -0.459    22.893     6.415
  78   6 C      3.849    -0.016    20.828     6.491
  79   6 C      3.754    -0.118    22.822     6.812
  80   6 C      3.755    -0.115    22.764     6.803
  81   1 H      0.860     0.208     1.068     1.619
  82   1 H      0.924     0.062     2.173     2.305
  83   1 H      0.924     0.057     2.231     2.336
  84   1 H      0.925     0.068     2.112     2.273
  85   1 H      0.925     0.055     2.256     2.349
  86   1 H      0.925     0.043     2.409     2.427
  87   1 H      0.925     0.068     2.110     2.272
  88   1 H      0.925     0.030     2.580     2.512
  89   1 H      0.925     0.034     2.525     2.485
  90   7 N      2.699    -0.184    24.977     7.423
  91   6 C      3.785     0.041    19.898     6.354
  92   6 C      2.770     0.203    23.681     7.970
  93   8 O      0.856    -0.357    20.847     6.121
  94   6 C      3.799    -0.102    22.441     6.745
  95   6 C      2.684     0.366    20.789     7.462
  96   8 O      0.856    -0.599    26.103     6.850
  97   8 O      0.856    -0.631    26.891     6.953
  98   1 H      0.860     0.194     1.135     1.669
  99   1 H      0.924     0.076     2.016     2.220
 100   1 H      0.924     0.042     2.426     2.436
 101   1 H      0.924     0.041     2.442     2.444
 102   7 N      2.631    -0.383    29.910     8.122
 103   6 C      3.736    -0.025    21.106     6.556
 104   6 C      2.749     0.259    22.640     7.791
 105   8 O      0.858    -0.502    23.827     6.545
 106   1 H      0.860     0.161     1.329     1.806
 107   1 H      0.924     0.074     2.040     2.233
 108   1 H      0.924     0.081     1.965     2.192
 109   7 N      2.692    -0.179    24.869     7.406
 110   6 C      3.798     0.017    20.289     6.414
 111   6 C      2.754     0.279    22.278     7.729
 112   8 O      0.858    -0.478    23.308     6.473
 113   6 C      3.852    -0.019    20.882     6.499
 114   6 C      3.801    -0.064    21.720     6.635
 115   6 C      3.755    -0.114    22.739     6.799
 116   6 C      3.751    -0.109    22.643     6.786
 117   1 H      0.860     0.199     1.112     1.652
 118   1 H      0.924     0.073     2.050     2.239
 119   1 H      0.924     0.045     2.387     2.416
 120   1 H      0.924     0.033     2.548     2.496
 121   1 H      0.924     0.050     2.315     2.379
 122   1 H      0.925     0.060     2.198     2.319
 123   1 H      0.925     0.034     2.535     2.490
 124   1 H      0.925     0.050     2.322     2.383
 125   1 H      0.925     0.042     2.427     2.436
 126   1 H      0.925     0.047     2.351     2.398
 127   1 H      0.925     0.032     2.564     2.504
 128   7 N      2.695    -0.163    24.534     7.357
 129   6 C      3.791     0.014    20.354     6.425
 130   6 C      2.760     0.258    22.649     7.793
 131   8 O      0.859    -0.475    23.241     6.464
 132   6 C      3.675     0.079    19.484     6.325
 133   8 O      1.656    -0.476    22.375     6.386
 134   1 H      0.860     0.203     1.089     1.635
 135   1 H      0.924     0.098     1.799     2.098
 136   1 H      0.923     0.035     2.522     2.484
 137   1 H      0.923     0.037     2.496     2.471
 138   1 H      0.805     0.356     0.575     1.191
 139   7 N      2.688    -0.176    24.808     7.397
 140   6 C      3.795     0.016    20.315     6.418
 141   6 C      2.754     0.283    22.202     7.716
 142   8 O      0.858    -0.461    22.947     6.423
 143   6 C      3.756    -0.133    23.103     6.853
 144   1 H      0.860     0.223     0.996     1.564
 145   1 H      0.924     0.106     1.732     2.058
 146   1 H      0.925     0.079     1.992     2.207
 147   1 H      0.925     0.089     1.888     2.149
 148   1 H      0.925     0.050     2.314     2.379
 149   7 N      2.688    -0.184    24.985     7.424
 150   6 C      3.793     0.034    20.016     6.371
 151   6 C      2.752     0.276    22.330     7.738
 152   8 O      0.858    -0.502    23.834     6.545
 153   6 C      3.807    -0.047    21.410     6.587
 154   6 C      3.797    -0.096    22.330     6.729
 155   6 C      2.684     0.372    20.703     7.446
 156   8 O      0.856    -0.658    27.598     7.043
 157   8 O      0.856    -0.641    27.159     6.987
 158   1 H      0.860     0.188     1.170     1.694
 159   1 H      0.924     0.061     2.183     2.311
 160   1 H      0.924     0.036     2.497     2.471
 161   1 H      0.924     0.039     2.462     2.454
 162   1 H      0.924     0.025     2.659     2.550
 163   1 H      0.924     0.025     2.659     2.550
 164   7 N      2.689    -0.189    25.107     7.442
 165   6 C      3.793     0.026    20.148     6.392
 166   6 C      2.760     0.259    22.645     7.793
 167   8 O      0.859    -0.497    23.728     6.531
 168   6 C      3.808    -0.065    21.746     6.638
 169   6 C      3.806    -0.060    21.643     6.623
 170   6 C      3.740    -0.015    20.922     6.526
 171   7 N      2.705    -0.156    24.370     7.332
 172   6 C      2.737     0.236    23.063     7.863
 173   7 N      2.647    -0.254    26.597     7.659
 174   7 N      2.655    -0.270    26.982     7.715
 175   1 H      0.860     0.219     1.013     1.577
 176   1 H      0.923     0.070     2.086     2.259
 177   1 H      0.924     0.060     2.200     2.320
 178   1 H      0.925     0.062     2.175     2.307
 179   1 H      0.924     0.040     2.446     2.446
 180   1 H      0.924     0.038     2.475     2.460
 181   1 H      0.924     0.094     1.844     2.123
 182   1 H      0.924     0.065     2.146     2.291
 183   1 H      0.859     0.228     0.976     1.547
 184   1 H      0.860     0.242     0.915     1.499
 185   1 H      0.860     0.261     0.841     1.437
 186   1 H      0.860     0.234     0.946     1.524
 187   1 H      0.860     0.250     0.883     1.472
 188   7 N      2.756    -0.068    22.552     7.053
 189   6 C      3.823     0.011    20.367     6.422
 190   6 C      2.749     0.277    22.321     7.736
 191   8 O      0.858    -0.486    23.475     6.496
 192   6 C      3.834    -0.093    22.241     6.710
 193   6 C      3.824    -0.083    22.070     6.685
 194   6 C      3.771    -0.009    20.778     6.496
 195   1 H      0.924     0.074     2.040     2.234
 196   1 H      0.925     0.090     1.876     2.142
 197   1 H      0.925     0.087     1.910     2.161
 198   1 H      0.924     0.075     2.036     2.232
 199   1 H      0.925     0.085     1.927     2.171
 200   1 H      0.925     0.042     2.426     2.435
 201   1 H      0.924     0.062     2.175     2.307
 202   7 N      2.688    -0.166    24.597     7.366
 203   6 C      3.794     0.012    20.374     6.428
 204   6 C      2.749     0.267    22.492     7.766
 205   8 O      0.858    -0.452    22.749     6.395
 206   6 C      3.804    -0.080    22.017     6.680
 207   6 C      3.848    -0.016    20.832     6.492
 208   6 C      3.758    -0.118    22.808     6.809
 209   6 C      3.757    -0.123    22.913     6.825
 210   1 H      0.860     0.219     1.014     1.577
 211   1 H      0.924     0.064     2.156     2.296
 212   1 H      0.924     0.055     2.260     2.351
 213   1 H      0.924     0.057     2.236     2.339
 214   1 H      0.924     0.051     2.311     2.378
 215   1 H      0.925     0.050     2.316     2.380
 216   1 H      0.925     0.036     2.509     2.477
 217   1 H      0.925     0.038     2.482     2.464
 218   1 H      0.925     0.055     2.263     2.353
 219   1 H      0.925     0.039     2.456     2.451
 220   1 H      0.925     0.040     2.449     2.447
 221   7 N      2.693    -0.165    24.578     7.363
 222   6 C      3.788     0.019    20.268     6.412
 223   6 C      2.767     0.199    23.764     7.984
 224   8 O      0.856    -0.364    20.969     6.140
 225   6 C      3.850    -0.015    20.801     6.487
 226   6 C      3.757    -0.122    22.891     6.821
 227   6 C      3.756    -0.114    22.739     6.799
 228   1 H      0.860     0.198     1.115     1.654
 229   1 H      0.924     0.095     1.834     2.118
 230   1 H      0.924     0.045     2.382     2.413
 231   1 H      0.925     0.054     2.271     2.357
 232   1 H      0.925     0.042     2.416     2.431
 233   1 H      0.925     0.057     2.236     2.339
 234   1 H      0.925     0.051     2.303     2.373
 235   1 H      0.925     0.061     2.187     2.313
 236   1 H      0.925     0.038     2.482     2.463
 237   7 N      2.635    -0.386    29.996     8.134
 238   6 C      3.782     0.042    19.894     6.354
 239   6 C      2.765     0.195    23.833     7.995
 240   8 O      0.856    -0.369    21.075     6.155
 241   6 C      3.809    -0.078    21.988     6.675
 242   6 C      2.965     0.010    27.794     8.648
 243   6 C      2.925    -0.045    29.121     8.850
 244   6 C      2.927    -0.052    29.292     8.876
 245   6 C      2.920    -0.033    28.811     8.802
 246   6 C      2.920    -0.036    28.896     8.815
 247   6 C      2.920    -0.034    28.840     8.807
 248   1 H      0.860     0.160     1.336     1.811
 249   1 H      0.924     0.055     2.263     2.352
 250   1 H      0.924     0.067     2.119     2.276
 251   1 H      0.924     0.061     2.185     2.312
 252   1 H      0.926     0.039     2.463     2.454
 253   1 H      0.926     0.064     2.149     2.293
 254   1 H      0.926     0.024     2.677     2.559
 255   1 H      0.926     0.043     2.404     2.425
 256   1 H      0.926     0.021     2.718     2.578
 257   7 N      2.635    -0.379    29.794     8.107
 258   6 C      3.781     0.027    20.132     6.392
 259   6 C      2.768     0.201    23.718     7.976
 260   8 O      0.856    -0.384    21.368     6.198
 261   6 C      3.804    -0.088    22.169     6.703
 262   6 C      3.803    -0.086    22.146     6.700
 263   6 C      3.738    -0.033    21.248     6.578
 264   7 N      2.702    -0.134    23.898     7.261
 265   6 C      2.736     0.216    23.425     7.924
 266   7 N      2.651    -0.227    25.972     7.569
 267   7 N      2.653    -0.240    26.260     7.611
 268   1 H      0.860     0.151     1.394     1.849
 269   1 H      0.924     0.071     2.072     2.251
 270   1 H      0.924     0.064     2.154     2.295
 271   1 H      0.924     0.059     2.216     2.328
 272   1 H      0.925     0.081     1.972     2.196
 273   1 H      0.925     0.078     2.003     2.213
 274   1 H      0.924     0.087     1.908     2.160
 275   1 H      0.924     0.089     1.885     2.147
 276   1 H      0.860     0.229     0.967     1.541
 277   1 H      0.860     0.236     0.938     1.517
 278   1 H      0.860     0.223     0.995     1.563
 279   1 H      0.860     0.243     0.910     1.495
 280   1 H      0.860     0.238     0.931     1.512
 281   1 H      0.862     0.180     1.212     1.724
 282   1 H      0.930     0.064     2.152     2.294
 283   1 H      0.862     0.191     1.150     1.680
 284   1 H      0.930     0.049     2.326     2.385
 285   1 H      0.862     0.172     1.258     1.757
 286   1 H      0.930     0.081     1.965     2.192
 287   1 H      0.862     0.187     1.175     1.698
 288   1 H      0.930     0.079     1.988     2.205
 289   1 H      0.862     0.180     1.212     1.724
 290   1 H      0.930     0.083     1.949     2.183
 291   1 H      0.862     0.178     1.223     1.732
 292   1 H      0.930     0.078     2.004     2.213
 293   1 H      0.862     0.191     1.154     1.683
 294   1 H      0.930     0.069     2.098     2.265

 Mol. C6AA /au·bohr⁶  :     786344.036208
 Mol. C8AA /au·bohr⁸  :   17592067.587013
 Mol. α(0) /au        :       1333.327641


Wiberg/Mayer (AO) data.
largest (>0.10) Wiberg bond orders for each atom
          total WBO             WBO to atom ...
     1  N   3.006        C    2 1.011    H  281 0.956    H    9 0.951
     2  C   3.985        N    1 1.011    C    5 0.970    H   10 0.965    C    3 0.962
     3  C   3.895        O    4 1.915    C    2 0.962    H  282 0.956
     4  O   2.046        C    3 1.915
     5  C   3.993        C    6 1.014    H   12 0.972    C    2 0.970    H   11 0.962
     6  C   3.976        C    5 1.014    S    7 0.985    H   14 0.970    H   13 0.969
     7  S   2.080        C    8 1.010    C    6 0.985
     8  C   3.978        S    7 1.010    H   17 0.985    H   15 0.984    H   16 0.982
     9  H   0.971        N    1 0.951
    10  H   0.997        C    2 0.965
    11  H   0.994        C    5 0.962
    12  H   0.997        C    5 0.972
    13  H   0.997        C    6 0.969
    14  H   0.995        C    6 0.970
    15  H   0.997        C    8 0.984
    16  H   0.996        C    8 0.982
    17  H   0.997        C    8 0.985
    18  N   3.007        C   19 1.021    H   30 0.954    H  283 0.935
    19  C   3.986        N   18 1.021    C   20 0.997    H   31 0.952    C   22 0.924
    20  C   3.906        O   21 1.868    C   19 0.997    H  284 0.957
    21  O   2.028        C   20 1.868
    22  C   3.988        C   23 1.018    H   32 0.972    H   33 0.962    C   19 0.924
    23  C   3.988        C   24 1.398    C   25 1.392    C   22 1.018
    24  C   3.991        C   26 1.451    C   23 1.398    H   34 0.959    C   27 0.105
    25  C   3.991        C   27 1.462    C   23 1.392    H   35 0.968    C   26 0.103
    26  C   3.985        C   24 1.451    C   28 1.366    H   36 0.963    C   25 0.103
    27  C   3.986        C   25 1.462    C   28 1.352    H   37 0.965    C   24 0.105
    28  C   3.945        C   26 1.366    C   27 1.352    O   29 1.093
    29  O   2.115        C   28 1.093    H   38 0.856
    30  H   0.975        N   18 0.954
    31  H   0.997        C   19 0.952
    32  H   0.997        C   22 0.972
    33  H   0.994        C   22 0.962
    34  H   0.998        C   24 0.959
    35  H   0.998        C   25 0.968
    36  H   0.996        C   26 0.963
    37  H   0.996        C   27 0.965
    38  H   0.878        O   29 0.856
    39  N   2.993        C   40 1.005    H  285 0.960    H   47 0.949
    40  C   3.983        N   39 1.005    C   41 0.974    C   43 0.967    H   48 0.962
    41  C   3.884        O   42 1.880    C   40 0.974    H  286 0.952
    42  O   2.024        C   41 1.880
    43  C   3.989        C   44 0.995    H   49 0.971    H   50 0.971    C   40 0.967
    44  C   3.994        C   45 1.010    C   46 1.009    C   43 0.995    H   51 0.965
    45  C   3.993        C   44 1.010    H   53 0.983    H   54 0.980    H   52 0.978
    46  C   3.994        C   44 1.009    H   57 0.986    H   56 0.985    H   55 0.985
    47  H   0.969        N   39 0.949
    48  H   1.000        C   40 0.962
    49  H   0.998        C   43 0.971
    50  H   0.995        C   43 0.971
    51  H   0.997        C   44 0.965
    52  H   0.996        C   45 0.978
    53  H   0.996        C   45 0.983
    54  H   0.999        C   45 0.980
    55  H   0.999        C   46 0.985
    56  H   1.000        C   46 0.985
    57  H   1.000        C   46 0.986
    58  N   2.994        C   59 1.020    H   65 0.955    H  287 0.952
    59  C   3.986        N   58 1.020    H   66 0.958    C   62 0.952    C   60 0.949
    60  C   3.940        O   61 1.630    N   74 1.291    C   59 0.949
    61  O   1.945        C   60 1.630    N   74 0.191
    62  C   3.994        C   63 1.010    C   64 1.008    H   67 0.966    C   59 0.952
    63  C   3.996        C   62 1.010    H   69 0.985    H   70 0.984    H   68 0.984
    64  C   3.996        C   62 1.008    H   72 0.987    H   71 0.984    H   73 0.981
    65  H   0.974        N   58 0.955
    66  H   0.998        C   59 0.958
    67  H   0.998        C   62 0.966
    68  H   0.998        C   63 0.984
    69  H   0.998        C   63 0.985
    70  H   0.999        C   63 0.984
    71  H   0.998        C   64 0.984
    72  H   1.000        C   64 0.987
    73  H   0.999        C   64 0.981
    74  N   3.471        C   60 1.291    C   75 0.980    H   81 0.919    O   61 0.191
    75  C   3.962        N   74 0.980    C   78 0.957    H   82 0.953    C   76 0.926
    76  C   3.938        O   77 1.668    N   90 1.262    C   75 0.926
    77  O   1.996        C   76 1.668    N   90 0.195
    78  C   3.984        C   79 1.009    C   80 1.008    H   83 0.962    C   75 0.957
    79  C   3.992        C   78 1.009    H   86 0.980    H   85 0.978    H   84 0.975
    80  C   3.993        C   78 1.008    H   88 0.986    H   89 0.986    H   87 0.982
    81  H   0.957        N   74 0.919
    82  H   0.996        C   75 0.953
    83  H   0.996        C   78 0.962
    84  H   0.995        C   79 0.975
    85  H   0.997        C   79 0.978
    86  H   0.998        C   79 0.980
    87  H   0.995        C   80 0.982
    88  H   0.999        C   80 0.986
    89  H   0.999        C   80 0.986
    90  N   3.450        C   76 1.262    C   91 0.960    H   98 0.928    O   77 0.195
    91  C   3.966        C   94 0.980    C   92 0.970    N   90 0.960    H   99 0.945
    92  C   3.895        O   93 1.907    C   91 0.970    H  288 0.952
    93  O   2.046        C   92 1.907
    94  C   3.983        C   91 0.980    H  101 0.975    H  100 0.972    C   95 0.912
    95  C   3.939        O   97 1.516    O   96 1.481    C   94 0.912
    96  O   1.859        C   95 1.481    O   97 0.216
    97  O   1.810        C   95 1.516    O   96 0.216
    98  H   0.962        N   90 0.928
    99  H   0.994        C   91 0.945
   100  H   0.998        C   94 0.972
   101  H   0.998        C   94 0.975
   102  N   3.010        C  103 1.038    H  106 0.957    H  289 0.950
   103  C   3.983        N  102 1.038    H  107 0.958    C  104 0.950    H  108 0.949
   104  C   3.942        O  105 1.629    N  109 1.286    C  103 0.950
   105  O   1.942        C  104 1.629    N  109 0.186
   106  H   0.974        N  102 0.957
   107  H   0.994        C  103 0.958
   108  H   0.993        C  103 0.949
   109  N   3.459        C  104 1.286    C  110 0.971    H  117 0.913    O  105 0.186
   110  C   3.961        C  113 0.978    N  109 0.971    H  118 0.951    C  111 0.923
   111  C   3.941        O  112 1.655    N  128 1.284    C  110 0.923
   112  O   1.968        C  111 1.655    N  128 0.195
   113  C   3.989        C  115 1.007    C  114 0.994    C  110 0.978    H  119 0.965
   114  C   3.995        C  116 1.021    C  113 0.994    H  120 0.976    H  121 0.975
   115  C   3.993        C  113 1.007    H  123 0.986    H  124 0.984    H  122 0.983
   116  C   3.995        C  114 1.021    H  127 0.986    H  125 0.986    H  126 0.984
   117  H   0.960        N  109 0.913
   118  H   0.995        C  110 0.951
   119  H   0.998        C  113 0.965
   120  H   0.999        C  114 0.976
   121  H   0.997        C  114 0.975
   122  H   0.996        C  115 0.983
   123  H   0.999        C  115 0.986
   124  H   0.998        C  115 0.984
   125  H   0.998        C  116 0.986
   126  H   0.998        C  116 0.984
   127  H   0.999        C  116 0.986
   128  N   3.468        C  111 1.284    C  129 0.998    H  134 0.911    O  112 0.195
   129  C   3.971        N  128 0.998    C  132 0.962    H  135 0.943    C  130 0.940
   130  C   3.951        O  131 1.602    N  139 1.317    C  129 0.940
   131  O   1.983        C  130 1.602    N  139 0.193
   132  C   3.964        O  133 1.011    H  136 0.968    H  137 0.966    C  129 0.962
   133  O   1.927        C  132 1.011    H  138 0.859
   134  H   0.959        N  128 0.911
   135  H   0.990        C  129 0.943
   136  H   0.999        C  132 0.968
   137  H   0.998        C  132 0.966
   138  H   0.873        O  133 0.859
   139  N   3.478        C  130 1.317    C  140 0.969    H  144 0.918    O  131 0.193
   140  C   3.954        C  143 0.995    N  139 0.969    H  145 0.941    C  141 0.935
   141  C   3.944        O  142 1.660    N  149 1.264    C  140 0.935
   142  O   1.978        C  141 1.660    N  149 0.190
   143  C   3.981        C  140 0.995    H  148 0.985    H  146 0.978    H  147 0.976
   144  H   0.950        N  139 0.918
   145  H   0.988        C  140 0.941
   146  H   0.993        C  143 0.978
   147  H   0.992        C  143 0.976
   148  H   0.997        C  143 0.985
   149  N   3.453        C  141 1.264    C  150 0.990    H  158 0.928    O  142 0.190
   150  C   3.968        N  149 0.990    C  153 0.982    H  159 0.942    C  151 0.926
   151  C   3.951        O  152 1.632    N  164 1.309    C  150 0.926
   152  O   1.954        C  151 1.632    N  164 0.200
   153  C   3.994        C  154 0.999    C  150 0.982    H  161 0.973    H  160 0.972
   154  C   3.989        C  153 0.999    H  162 0.978    H  163 0.977    C  155 0.913
   155  C   3.932        O  156 1.502    O  157 1.499    C  154 0.913
   156  O   1.791        C  155 1.502    O  157 0.218
   157  O   1.793        C  155 1.499    O  156 0.218
   158  H   0.965        N  149 0.928
   159  H   0.995        C  150 0.942
   160  H   0.999        C  153 0.972
   161  H   0.998        C  153 0.973
   162  H   0.999        C  154 0.978
   163  H   0.999        C  154 0.977
   164  N   3.466        C  151 1.309    C  165 0.970    H  175 0.874    O  152 0.200
   165  C   3.958        C  168 0.986    N  164 0.970    H  176 0.942    C  166 0.935
   166  C   3.959        O  167 1.606    N  188 1.321    C  165 0.935
   167  O   1.932        C  166 1.606    N  188 0.200
   168  C   3.990        C  169 1.006    C  165 0.986    H  178 0.965    H  177 0.964
   169  C   3.993        C  170 1.007    C  168 1.006    H  180 0.975    H  179 0.969
   170  C   3.957        C  169 1.007    N  171 0.985    H  182 0.961    H  181 0.959
   171  N   3.471        C  172 1.330    C  170 0.985    H  183 0.875    N  173 0.102    N  174 0.101
   172  C   3.975        N  171 1.330    N  173 1.307    N  174 1.305
   173  N   3.380        C  172 1.307    H  184 0.919    H  185 0.913    N  171 0.102
   174  N   3.374        C  172 1.305    H  187 0.917    H  186 0.900    N  171 0.101
   175  H   0.952        N  164 0.874
   176  H   0.994        C  165 0.942
   177  H   0.996        C  168 0.964
   178  H   0.996        C  168 0.965
   179  H   0.998        C  169 0.969
   180  H   0.999        C  169 0.975
   181  H   0.991        C  170 0.959
   182  H   0.996        C  170 0.961
   183  H   0.948        N  171 0.875
   184  H   0.941        N  173 0.919
   185  H   0.932        N  173 0.913
   186  H   0.945        N  174 0.900
   187  H   0.937        N  174 0.917
   188  N   3.544        C  166 1.321    C  194 0.976    C  189 0.971    O  167 0.200
   189  C   3.962        C  192 0.980    N  188 0.971    H  195 0.945    C  190 0.931
   190  C   3.946        O  191 1.653    N  202 1.283    C  189 0.931
   191  O   1.976        C  190 1.653    N  202 0.195
   192  C   3.982        C  193 1.004    C  189 0.980    H  197 0.971    H  196 0.970
   193  C   3.984        C  192 1.004    C  194 1.003    H  199 0.971    H  198 0.971
   194  C   3.960        C  193 1.003    N  188 0.976    H  200 0.963    H  201 0.958
   195  H   0.994        C  189 0.945
   196  H   0.991        C  192 0.970
   197  H   0.992        C  192 0.971
   198  H   0.994        C  193 0.971
   199  H   0.992        C  193 0.971
   200  H   0.998        C  194 0.963
   201  H   0.996        C  194 0.958
   202  N   3.463        C  190 1.283    C  203 0.990    H  210 0.914    O  191 0.195
   203  C   3.966        N  202 0.990    C  206 0.965    H  211 0.952    C  204 0.933
   204  C   3.952        O  205 1.659    N  221 1.282    C  203 0.933
   205  O   1.975        C  204 1.659    N  221 0.198
   206  C   3.985        C  207 0.994    H  213 0.973    H  212 0.971    C  203 0.965
   207  C   3.994        C  209 1.009    C  208 1.008    C  206 0.994    H  214 0.966
   208  C   3.994        C  207 1.008    H  217 0.987    H  216 0.987    H  215 0.984
   209  C   3.994        C  207 1.009    H  218 0.985    H  219 0.985    H  220 0.980
   210  H   0.952        N  202 0.914
   211  H   0.996        C  203 0.952
   212  H   0.996        C  206 0.971
   213  H   0.996        C  206 0.973
   214  H   0.997        C  207 0.966
   215  H   0.997        C  208 0.984
   216  H   0.999        C  208 0.987
   217  H   0.999        C  208 0.987
   218  H   0.997        C  209 0.985
   219  H   0.998        C  209 0.985
   220  H   0.998        C  209 0.980
   221  N   3.465        C  204 1.282    C  222 0.987    H  228 0.926    O  205 0.198
   222  C   3.965        N  221 0.987    C  223 0.984    H  229 0.938    C  225 0.929
   223  C   3.900        O  224 1.900    C  222 0.984    H  290 0.952
   224  O   2.044        C  223 1.900
   225  C   3.986        C  226 1.009    C  227 1.006    H  230 0.968    C  222 0.929
   226  C   3.991        C  225 1.009    H  232 0.984    H  231 0.983    H  233 0.978
   227  C   3.992        C  225 1.006    H  236 0.986    H  235 0.982    H  234 0.979
   228  H   0.960        N  221 0.926
   229  H   0.991        C  222 0.938
   230  H   0.997        C  225 0.968
   231  H   0.996        C  226 0.983
   232  H   0.998        C  226 0.984
   233  H   0.997        C  226 0.978
   234  H   0.996        C  227 0.979
   235  H   0.996        C  227 0.982
   236  H   0.999        C  227 0.986
   237  N   3.002        C  238 1.019    H  248 0.956    H  291 0.933
   238  C   3.984        N  237 1.019    C  239 0.975    C  241 0.953    H  249 0.944
   239  C   3.893        O  240 1.902    C  238 0.975    H  292 0.953
   240  O   2.038        C  239 1.902
   241  C   3.992        C  242 1.007    H  251 0.968    H  250 0.956    C  238 0.953
   242  C   3.988        C  243 1.415    C  244 1.407    C  241 1.007    C  247 0.109
   243  C   3.991        C  245 1.441    C  242 1.415    H  252 0.946    C  246 0.111
   244  C   3.987        C  246 1.447    C  242 1.407    H  253 0.962    C  245 0.112
   245  C   3.992        C  247 1.441    C  243 1.441    H  254 0.972    C  244 0.112
   246  C   3.990        C  244 1.447    C  247 1.436    H  255 0.965    C  243 0.111
   247  C   3.991        C  245 1.441    C  246 1.436    H  256 0.971    C  242 0.109
   248  H   0.974        N  237 0.956
   249  H   0.997        C  238 0.944
   250  H   0.995        C  241 0.956
   251  H   0.996        C  241 0.968
   252  H   0.998        C  243 0.946
   253  H   0.996        C  244 0.962
   254  H   0.999        C  245 0.972
   255  H   0.998        C  246 0.965
   256  H   0.999        C  247 0.971
   257  N   3.001        C  258 1.002    H  268 0.956    H  293 0.946
   258  C   3.978        N  257 1.002    C  259 0.972    C  261 0.969    H  269 0.957
   259  C   3.889        O  260 1.897    C  258 0.972    H  294 0.952
   260  O   2.036        C  259 1.897
   261  C   3.990        C  262 1.003    H  271 0.973    C  258 0.969    H  270 0.967
   262  C   3.987        C  263 1.008    C  261 1.003    H  272 0.970    H  273 0.968
   263  C   3.950        C  262 1.008    N  264 0.976    H  274 0.959    H  275 0.958
   264  N   3.472        C  265 1.323    C  263 0.976    H  276 0.909    N  266 0.102    N  267 0.101
   265  C   3.978        N  264 1.323    N  266 1.317    N  267 1.305
   266  N   3.408        C  265 1.317    H  277 0.919    H  278 0.917    N  264 0.102
   267  N   3.388        C  265 1.305    H  280 0.917    H  279 0.917    N  264 0.101
   268  H   0.977        N  257 0.956
   269  H   0.995        C  258 0.957
   270  H   0.996        C  261 0.967
   271  H   0.997        C  261 0.973
   272  H   0.993        C  262 0.970
   273  H   0.994        C  262 0.968
   274  H   0.992        C  263 0.959
   275  H   0.991        C  263 0.958
   276  H   0.947        N  264 0.909
   277  H   0.944        N  266 0.919
   278  H   0.950        N  266 0.917
   279  H   0.941        N  267 0.917
   280  H   0.943        N  267 0.917
   281  H   0.967        N    1 0.956
   282  H   0.996        C    3 0.956
   283  H   0.963        N   18 0.935
   284  H   0.998        C   20 0.957
   285  H   0.970        N   39 0.960
   286  H   0.993        C   41 0.952
   287  H   0.965        N   58 0.952
   288  H   0.994        C   92 0.952
   289  H   0.967        N  102 0.950
   290  H   0.993        C  223 0.952
   291  H   0.968        N  237 0.933
   292  H   0.994        C  239 0.953
   293  H   0.964        N  257 0.946
   294  H   0.995        C  259 0.952
 
molecular dipole:
                 x           y           z       tot (Debye)
 q only:       -3.241      -9.457     -19.542
   full:       -2.476      -7.815     -18.579      51.618
molecular quadrupole (traceless):
                xx          xy          yy          xz          yz          zz
 q only:      900.569   -1641.991     680.485   -3288.182   -2525.502   -1581.054
  q+dip:      924.058   -1333.552     705.042   -3093.322   -2317.936   -1629.100
   full:      925.568   -1335.867     705.329   -3088.966   -2319.237   -1630.897


           -------------------------------------------------
          | TOTAL ENERGY             -436.806273517414 Eh   |
          | GRADIENT NORM               0.587975658280 Eh/α |
          | HOMO-LUMO GAP               1.397971151399 eV   |
           -------------------------------------------------

------------------------------------------------------------------------
 * finished run on 2019/05/31 at 06:33:54.941     
------------------------------------------------------------------------
 total:
 * wall-time:     0 d,  0 h,  0 min,  4.831 sec
 *  cpu-time:     0 d,  0 h,  0 min,  9.445 sec
 * ratio c/w:     1.955 speedup
 SCF:
 * wall-time:     0 d,  0 h,  0 min,  4.539 sec
 *  cpu-time:     0 d,  0 h,  0 min,  9.017 sec
 * ratio c/w:     1.987 speedup

