      -----------------------------------------------------------      
     |                   =====================                   |     
     |                           x T B                           |     
     |                   =====================                   |     
     |                         S. Grimme                         |     
     |          Mulliken Center for Theoretical Chemistry        |     
     |                    University of Bonn                     |     
     |                Version 6.1 RC1 (SAW190329)                |     
      -----------------------------------------------------------      

   This program is distributed in the hope that it will be useful,
   but WITHOUT ANY WARRANTY; without even the implied warranty of
   MERCHANTABILITY or FITNESS FOR A PARTICULAR PURPOSE.
   
   FOR NON-COMMERCIAL, ACADEMIA USE ONLY.
   
   Cite this work as:
   S. Grimme, C. Bannwarth, P. Shushkov, J. Comput. Theory Chem., 2017,
   13, 1989-2009. DOI: 10.1021/acs.jctc.7b00118
   C. Bannwarth, S. Ehlert and S. Grimme., J. Comput. Theory Chem., 2019,
   just accepted. DOI: 10.1021/acs.jctc.8b01176
   
   for sTDA-xTB:
   S. Grimme and C. Bannwarth, J. Chem. Phys., 2016, 145, 054103.
   DOI: 10.1063/1.4959605
   
   in the mass-spec context:
   V. Asgeirsson, C. Bauer and S. Grimme, Chem. Sci., 2017, 8, 4879.
   DOI: 10.1039/c7sc00601b
   
   for metadynamics refer to:
   S. Grimme, ChemRxiv, Preprint. DOI: 10.26434/chemrxiv.7660532.v1
   
   with help from (in alphabetical order)
   C. Bannwarth, F. Bohle, G. Brandenburg, E. Caldeweyher, M. Checinski,
   S. Dohm, S. Ehlert, S. Ehrlich, F. März, H. Neugebauer, J. Pisarek,
   P. Pracht, P. Shushkov, and S. Spicher.
   
 * started run on 2019/05/31 at 06:33:38.852     

           -------------------------------------------------
          |                Calculation Setup                |
           -------------------------------------------------

          program call               : /home/lum/qr/xtb-190329/bin/xtb xtb_tmp.xyz --chrg 1 --grad --gfn 2 --etemp 500 --acc 0.1 --gbsa h2o --parallel 2
          hostname                   : cu39
          coordinate file            : xtb_tmp.xyz
          omp threads                :                     2
          number of atoms            :                   431
          number of electrons        :                  1092
          charge                     :                     1
          spin                       :                   0.0
          first test random number   :      0.72583216135191


molecular fragmentation (1/2 indicates fragments):
111111111111111111111112222222222222222222222222222222222222222222222222
222222222222222222222222222222222222222222222222222222222222222222222222
222222222222222222222222222222222222222222222222222222222222222222222222
222222222222222222222222222222222222222222222222222222222222222222222222
222222222222222222222222222222222222222222222222222222222222222222222222
22222222222222222222222222222222222222222222222112222222222222222222222
# atoms in fragment 1/2:    25   406
 fragment masses (1/2) :      203.17     2500.31
CMA distance (Bohr)    :  20.731
constraining FC (au)   :  0.0500

########################################################################
# WARNING! Please study the warnings concerning your input carefully
#  - XTBPATH is not set, using XTBHOME instead
#  - Process number higher than OMP_NUM_THREADS, I hope you know what you are doing.
########################################################################

           ------------------------------------------------- 
          |                 G F N 2 - x T B                 |
          | Geometry, Frequencies, Noncovalent interactions |
          |            JCTC 2018 parametrisation            |
           ------------------------------------------------- 
 
             k(s)              :                1.8500
             k(p)              :                2.2300
             k(d)              :                2.2300
             k(f)              :                2.0000
             kEN (H0ij)        :               -2.0000
             D4 a1             :                0.5200
             D4 a2             :                5.0000
             D4 s6             :                1.0000
             D4 s8             :                2.7000
             D4 s9             :                5.0000
             alphaj            :                2.0000

  Z AO/shell   Hii/eV     exponent
  1     Wed Apr 25 08:07:45 CEST 2018   EN: 2.200 GM2: 0.406  GM3: 0.0800  RAES: 1.40
     1s    -10.707211    1.230000
  6     Wed Apr 25 08:07:45 CEST 2018   EN: 2.550 GM2: 0.538  GM3: 0.1500  RAES: 3.00
     2s    -13.970922    2.096432
     2p    -10.063292    1.800000
  7     Wed Apr 25 08:07:45 CEST 2018   EN: 3.040 GM2: 0.461  GM3:-0.0640  RAES: 1.90
     2s    -16.686243    2.339881
     2p    -12.523956    2.014332
  8     Wed Apr 25 08:07:45 CEST 2018   EN: 3.440 GM2: 0.452  GM3:-0.0517  RAES: 1.80
     2s    -20.229985    2.439742
     2p    -15.503117    2.137023

 Solvent             : h2o
 Using internal parameter file: .param_gbsa2_h2o
 Gsolv ref. state (COSMO-RS): gsolv [1 M gas/solution]
 temperature (mdtemp)       :    298.150000000000     
 dielectric constant        :    80.2000000000000     
 rho                        :    1.00000000000000     
 mass                       :    18.0000000000000     
 surface tension            :    15.5689454083859     
 probe radius               :   0.975313790000000     
 vdW radii scaling          :    1.00000000000000     
 Gshift (Eh)                :   1.857443126794793E-003
 c1                         :    1.55243817000000     
 soset                      :   0.130326360000000     
 HB correction              :  T
 Number of grid points      :          230

            Z     q(EN)     CN     RAES       Cart. coordinates
     1  N   5.0   -0.70    3.00    1.93    60.25805    64.65611    58.93789
     2  C   4.0    0.08    3.99    3.60    62.84686    65.13203    58.17533
     3  C   4.0    0.30    3.01    3.02    63.93749    62.75836    56.94662
     4  O   6.0   -0.43    1.00    1.80    64.89306    62.79406    54.83619
     5  C   4.0   -0.10    3.98    3.59    64.46396    65.91673    60.41753
     6  C   4.0    0.32    2.99    3.02    67.30899    65.82055    59.61302
     7  O   6.0   -0.37    1.00    1.80    68.43806    63.79043    59.99983
     8  O   6.0   -0.37    1.00    1.80    68.19767    67.77107    58.64458
     9  H   1.0    0.27    1.00    1.43    59.80236    65.03002    60.75861
    10  H   1.0    0.13    0.99    1.43    62.89630    66.61665    56.72175
    11  H   1.0    0.12    0.99    1.43    63.98711    67.82976    61.02338
    12  H   1.0    0.13    0.99    1.43    64.18138    64.59428    61.96776
    13  N   5.0   -0.46    3.01    1.93    63.63716    60.65046    58.30411
    14  C   4.0    0.07    3.99    3.60    64.64630    58.26715    57.46343
    15  C   4.0    0.07    3.00    3.02    62.54831    56.48800    56.53754
    16  O   6.0   -0.40    1.00    1.80    62.21282    54.41255    57.51675
    17  C   4.0   -0.00    3.98    3.58    66.20320    57.02034    59.57655
    18  O   6.0   -0.45    1.99    1.82    64.73342    56.40426    61.68989
    19  H   1.0    0.27    1.00    1.43    63.12665    60.74849    60.14608
    20  H   1.0    0.12    0.99    1.43    65.89014    58.68392    55.85186
    21  H   1.0    0.11    0.99    1.43    67.12554    55.31661    58.81764
    22  H   1.0    0.14    0.99    1.43    67.64780    58.36001    60.20404
    23  H   1.0    0.31    0.99    1.43    63.41115    55.28771    61.07437
    24  N   5.0   -0.69    3.00    1.93    63.19038    54.57264    50.55643
    25  C   4.0    0.07    3.98    3.58    64.63578    53.19552    48.65652
    26  C   4.0    0.09    3.01    3.02    64.57611    50.40717    49.48258
    27  O   6.0   -0.44    1.00    1.80    66.30906    49.44087    50.65976
    28  C   4.0   -0.13    3.99    3.60    67.40536    53.97463    48.55278
    29  C   4.0   -0.11    3.98    3.58    68.05280    56.46844    47.24314
    30  C   4.0   -0.22    3.98    3.59    67.48220    56.36680    44.41659
    31  C   4.0   -0.21    3.98    3.59    66.71943    58.71339    48.46600
    32  H   1.0    0.26    1.00    1.43    64.19668    55.37514    51.96242
    33  H   1.0    0.12    0.99    1.43    63.71229    53.42431    46.82409
    34  H   1.0    0.11    0.99    1.43    68.14001    53.99558    50.48591
    35  H   1.0    0.12    0.99    1.43    68.35045    52.44693    47.53405
    36  H   1.0    0.09    0.99    1.43    70.09660    56.72546    47.47440
    37  H   1.0    0.10    0.99    1.43    68.43828    57.92048    43.46692
    38  H   1.0    0.12    0.99    1.43    68.16012    54.61068    43.59185
    39  H   1.0    0.14    0.99    1.43    65.46415    56.54201    44.08049
    40  H   1.0    0.10    0.99    1.43    67.29750    60.45980    47.55004
    41  H   1.0    0.13    0.99    1.43    64.68333    58.54666    48.27748
    42  H   1.0    0.10    0.99    1.43    67.19278    58.86582    50.46382
    43  N   5.0   -0.70    3.00    1.92    71.08506    44.31892    43.88542
    44  C   4.0    0.02    3.98    3.59    72.74769    45.64834    42.15923
    45  C   4.0    0.28    3.00    3.02    72.88500    48.49074    42.67563
    46  O   6.0   -0.40    1.00    1.80    72.80783    50.05540    40.99312
    47  H   1.0    0.29    1.00    1.43    71.37966    42.46006    44.19034
    48  H   1.0    0.11    0.99    1.43    74.66362    44.89541    42.35089
    49  H   1.0    0.14    0.99    1.43    72.12424    45.38843    40.20010
    50  N   5.0   -0.47    3.01    1.93    73.31660    49.08958    45.11158
    51  C   4.0    0.06    3.99    3.60    74.17339    51.57836    45.84512
    52  C   4.0    0.26    3.01    3.02    77.02935    51.72150    45.34929
    53  O   6.0   -0.46    1.00    1.80    78.18680    49.85543    44.59189
    54  C   4.0   -0.23    3.98    3.59    73.61427    52.00110    48.63884
    55  H   1.0    0.22    1.00    1.43    73.74109    47.68064    46.32629
    56  H   1.0    0.13    0.99    1.43    73.19169    52.95079    44.65264
    57  H   1.0    0.08    0.99    1.43    73.55168    54.00389    49.07680
    58  H   1.0    0.11    0.99    1.43    71.78843    51.18996    49.11402
    59  H   1.0    0.10    0.99    1.43    75.06385    51.10690    49.78997
    60  N   5.0   -0.50    3.01    1.93    78.17343    53.91686    45.79026
    61  C   4.0    0.07    4.00    3.61    80.90651    54.08398    46.10502
    62  C   4.0    0.26    3.02    3.02    81.26301    55.75510    48.44112
    63  O   6.0   -0.42    1.00    1.80    80.45589    57.92602    48.46854
    64  C   4.0   -0.12    3.99    3.59    82.29053    55.23486    43.83557
    65  C   4.0   -0.10    3.98    3.58    85.07089    54.40819    43.73994
    66  C   4.0   -0.22    3.98    3.59    85.31503    51.61979    43.02574
    67  C   4.0   -0.22    3.98    3.59    86.48112    56.06032    41.83726
    68  H   1.0    0.25    1.00    1.43    77.18918    55.45233    46.35119
    69  H   1.0    0.15    0.99    1.43    81.59354    52.17085    46.46333
    70  H   1.0    0.12    0.99    1.43    81.36457    54.66617    42.08597
    71  H   1.0    0.17    0.99    1.43    82.19191    57.28845    44.00203
    72  H   1.0    0.13    0.99    1.43    85.90925    54.70584    45.61385
    73  H   1.0    0.09    0.99    1.43    87.30006    51.12925    42.85077
    74  H   1.0    0.12    0.99    1.43    84.49359    50.40505    44.46487
    75  H   1.0    0.12    0.99    1.43    84.38546    51.26783    41.22769
    76  H   1.0    0.10    0.99    1.43    88.49273    55.64057    41.85400
    77  H   1.0    0.11    0.99    1.43    85.76224    55.74717    39.93844
    78  H   1.0    0.13    0.99    1.43    86.21789    58.03565    42.32924
    79  N   5.0   -0.49    3.01    1.93    82.33588    54.60857    50.40515
    80  C   4.0    0.08    3.99    3.61    82.75369    55.76902    52.83895
    81  C   4.0    0.27    3.01    3.02    85.59864    56.07859    53.25563
    82  O   6.0   -0.46    1.00    1.80    87.15632    54.65833    52.30133
    83  C   4.0   -0.14    3.99    3.60    81.69173    54.08355    54.95856
    84  C   4.0   -0.10    3.98    3.58    78.88531    54.49197    55.53216
    85  C   4.0   -0.21    3.98    3.59    77.28174    54.37603    53.14609
    86  C   4.0   -0.24    3.99    3.60    78.00917    52.44655    57.37009
    87  H   1.0    0.29    1.00    1.43    82.98123    52.80835    50.19155
    88  H   1.0    0.15    0.99    1.43    81.82730    57.62021    52.87360
    89  H   1.0    0.11    0.99    1.43    81.95301    52.11231    54.40340
    90  H   1.0    0.10    0.99    1.43    82.77533    54.41353    56.68211
    91  H   1.0    0.12    0.99    1.43    78.64985    56.34856    56.40131
    92  H   1.0    0.09    0.99    1.43    75.29645    54.27390    53.65874
    93  H   1.0    0.13    0.99    1.43    77.54670    56.04846    51.98824
    94  H   1.0    0.12    0.99    1.43    77.79720    52.71746    52.04927
    95  H   1.0    0.09    0.99    1.43    76.05399    52.75769    57.92354
    96  H   1.0    0.10    0.99    1.43    78.14992    50.60401    56.46664
    97  H   1.0    0.09    0.99    1.43    79.18182    52.44327    59.05465
    98  N   5.0   -0.49    3.01    1.93    86.20721    58.01826    54.75674
    99  C   4.0    0.07    3.99    3.61    88.71928    58.43322    55.75292
   100  C   4.0    0.26    3.01    3.02    88.71640    57.59650    58.51748
   101  O   6.0   -0.47    1.00    1.80    86.91646    58.02401    59.92583
   102  C   4.0   -0.09    3.98    3.58    89.52023    61.22343    55.44583
   103  C   4.0   -0.21    3.98    3.59    87.73660    63.05328    56.80666
   104  C   4.0   -0.22    3.98    3.59    92.24466    61.53640    56.34782
   105  H   1.0    0.25    1.00    1.43    84.80003    58.95637    55.63696
   106  H   1.0    0.12    0.99    1.43    90.01090    57.22887    54.67086
   107  H   1.0    0.12    0.99    1.43    89.44773    61.61635    53.41557
   108  H   1.0    0.10    0.99    1.43    88.61316    64.90849    56.91213
   109  H   1.0    0.13    0.99    1.43    85.94908    63.24540    55.80463
   110  H   1.0    0.13    0.99    1.43    87.35281    62.41191    58.72378
   111  H   1.0    0.11    0.99    1.43    92.94643    63.38352    55.78438
   112  H   1.0    0.13    0.99    1.43    92.35364    61.37965    58.39764
   113  H   1.0    0.11    0.99    1.43    93.43516    60.08213    55.50633
   114  N   5.0   -0.49    3.01    1.93    90.76066    56.30520    59.25030
   115  C   4.0    0.06    3.99    3.60    91.13865    55.52657    61.84916
   116  C   4.0    0.06    3.00    3.02    93.30454    57.13610    62.92413
   117  O   6.0   -0.41    1.00    1.80    95.42122    57.17562    62.02986
   118  C   4.0   -0.09    3.98    3.58    91.53907    52.64941    62.08419
   119  C   4.0   -0.20    3.98    3.59    93.79613    51.72799    60.54510
   120  C   4.0   -0.23    3.98    3.59    91.78535    51.91640    64.86521
   121  H   1.0    0.24    1.00    1.43    92.21977    56.04283    58.04575
   122  H   1.0    0.12    0.99    1.43    89.39843    56.02586    62.85120
   123  H   1.0    0.10    0.99    1.43    89.81679    51.76860    61.33600
   124  H   1.0    0.11    0.99    1.43    93.99628    49.69989    60.79668
   125  H   1.0    0.11    0.99    1.43    93.49706    52.11770    58.54856
   126  H   1.0    0.14    0.99    1.43    95.52042    52.67027    61.15917
   127  H   1.0    0.11    0.99    1.43    91.86450    49.87422    65.02642
   128  H   1.0    0.12    0.99    1.43    93.48257    52.71774    65.70721
   129  H   1.0    0.10    0.99    1.43    90.16651    52.57602    65.94437
   130  N   5.0   -0.71    3.00    1.93    83.74544    59.85872    67.58115
   131  C   4.0    0.06    3.98    3.58    82.61445    57.37509    67.22252
   132  C   4.0    0.08    3.00    3.02    82.26175    56.13596    69.80580
   133  O   6.0   -0.42    1.00    1.80    80.23946    55.17495    70.41937
   134  C   4.0   -0.14    3.98    3.59    84.21267    55.71272    65.47361
   135  C   4.0   -0.11    3.98    3.58    82.69051    53.57611    64.21603
   136  C   4.0   -0.23    3.98    3.59    84.32764    52.27357    62.22659
   137  C   4.0   -0.21    3.98    3.59    81.71291    51.61795    66.09537
   138  H   1.0    0.26    1.00    1.43    85.12820    60.44630    66.40424
   139  H   1.0    0.11    0.99    1.43    80.70948    57.61854    66.43378
   140  H   1.0    0.12    0.99    1.43    84.97994    56.91405    63.97784
   141  H   1.0    0.11    0.99    1.43    85.78861    54.91581    66.54178
   142  H   1.0    0.10    0.99    1.43    81.05951    54.44039    63.28147
   143  H   1.0    0.09    0.99    1.43    83.21808    50.85968    61.23335
   144  H   1.0    0.12    0.99    1.43    85.03011    53.64616    60.86845
   145  H   1.0    0.10    0.99    1.43    85.91888    51.34795    63.13852
   146  H   1.0    0.10    0.99    1.43    80.73205    50.12299    65.08601
   147  H   1.0    0.11    0.99    1.43    83.26814    50.80706    67.16694
   148  H   1.0    0.14    0.99    1.43    80.38240    52.44804    67.41300
   149  N   5.0   -0.50    3.02    1.93    77.13510    61.57350    64.00247
   150  C   4.0    0.06    4.02    3.65    78.99020    62.11396    62.03279
   151  C   4.0    0.27    3.01    3.02    77.94397    64.06531    60.14616
   152  O   6.0   -0.35    1.00    1.80    75.86835    65.03436    60.35764
   153  C   4.0   -0.14    4.01    3.64    79.35823    59.56632    60.70453
   154  C   4.0   -0.14    4.01    3.64    76.74820    58.36603    60.94881
   155  C   4.0   -0.02    4.01    3.64    75.92080    59.13907    63.59769
   156  H   1.0    0.09    0.99    1.43    80.72111    62.87017    62.87674
   157  H   1.0    0.12    0.99    1.43    79.91955    59.77048    58.73695
   158  H   1.0    0.10    0.99    1.43    80.78330    58.45888    61.68511
   159  H   1.0    0.13    0.99    1.43    75.47431    59.21192    59.56793
   160  H   1.0    0.08    0.99    1.43    76.74966    56.32742    60.70893
   161  H   1.0    0.13    0.99    1.43    73.87046    59.27912    63.75114
   162  H   1.0    0.10    0.99    1.43    76.60311    57.79634    65.02012
   163  N   5.0   -0.49    3.01    1.93    79.54758    64.54588    58.21809
   164  C   4.0    0.09    3.99    3.60    78.70385    65.54506    55.81788
   165  C   4.0    0.28    3.01    3.02    78.52418    63.33872    53.91744
   166  O   6.0   -0.44    1.00    1.80    79.42189    61.27479    54.41104
   167  C   4.0    0.03    3.98    3.58    80.55698    67.54986    54.79203
   168  O   6.0   -0.48    1.99    1.82    82.77921    66.26312    54.06833
   169  C   4.0   -0.21    3.98    3.59    81.06610    69.60667    56.74323
   170  H   1.0    0.25    1.00    1.43    81.18384    63.56396    58.12305
   171  H   1.0    0.12    0.99    1.43    76.83380    66.36943    56.12766
   172  H   1.0    0.10    0.99    1.43    79.68331    68.41430    53.10934
   173  H   1.0    0.24    0.99    1.43    84.12488    67.49094    53.90643
   174  H   1.0    0.10    0.99    1.43    82.37477    71.00348    55.99727
   175  H   1.0    0.11    0.99    1.43    79.31228    70.54372    57.25724
   176  H   1.0    0.13    0.99    1.43    81.86166    68.77767    58.44290
   177  N   5.0   -0.50    3.00    1.93    77.44557    63.94869    51.70473
   178  C   4.0    0.08    3.99    3.60    76.82391    62.11747    49.76912
   179  C   4.0    0.28    3.01    3.02    77.80150    62.92168    47.15322
   180  O   6.0   -0.42    1.00    1.80    76.68168    62.42334    45.20060
   181  C   4.0   -0.14    3.98    3.58    74.01085    61.39020    49.70366
   182  C   4.0   -0.10    3.97    3.58    72.02348    63.51271    49.84976
   183  C   4.0   -0.20    3.98    3.59    71.62492    64.56189    52.51821
   184  C   4.0   -0.21    3.98    3.59    72.49443    65.62797    47.94455
   185  H   1.0    0.22    1.00    1.43    76.57249    65.63811    51.56766
   186  H   1.0    0.16    0.99    1.43    77.91439    60.41346    50.22543
   187  H   1.0    0.11    0.99    1.43    73.74314    60.39832    47.91256
   188  H   1.0    0.10    0.99    1.43    73.63381    60.07533    51.25008
   189  H   1.0    0.10    0.99    1.43    70.23110    62.61265    49.34204
   190  H   1.0    0.13    0.99    1.43    69.79341    65.49218    52.66055
   191  H   1.0    0.13    0.99    1.43    71.62221    63.06678    53.93241
   192  H   1.0    0.11    0.99    1.43    73.04086    65.94181    53.08022
   193  H   1.0    0.11    0.99    1.43    70.91547    66.94403    47.96141
   194  H   1.0    0.11    0.99    1.43    74.20503    66.68030    48.38395
   195  H   1.0    0.13    0.99    1.43    72.69593    64.84044    46.05922
   196  N   5.0   -0.47    3.01    1.93    79.98761    64.20547    47.18684
   197  C   4.0    0.07    3.99    3.60    81.16645    65.11268    44.87187
   198  C   4.0    0.29    3.01    3.02    81.70595    62.92023    43.03762
   199  O   6.0   -0.43    1.00    1.80    83.13181    61.20157    43.61301
   200  C   4.0   -0.14    3.99    3.60    83.68530    66.37478    45.52582
   201  C   4.0   -0.10    3.98    3.58    84.90164    67.73333    43.26829
   202  C   4.0   -0.22    3.98    3.59    83.58012    70.24937    42.75567
   203  C   4.0   -0.23    3.98    3.59    87.71238    68.16503    43.78656
   204  H   1.0    0.26    1.00    1.43    81.01805    64.21530    48.79168
   205  H   1.0    0.11    0.99    1.43    79.84267    66.43867    43.98501
   206  H   1.0    0.11    0.99    1.43    83.37879    67.72176    47.05780
   207  H   1.0    0.13    0.99    1.43    84.94433    64.88295    46.20418
   208  H   1.0    0.13    0.99    1.43    84.72490    66.52366    41.59658
   209  H   1.0    0.12    0.99    1.43    84.34753    71.13467    41.07054
   210  H   1.0    0.11    0.99    1.43    81.56551    69.98087    42.46005
   211  H   1.0    0.11    0.99    1.43    83.82333    71.50784    44.36102
   212  H   1.0    0.10    0.99    1.43    88.59061    69.07462    42.16765
   213  H   1.0    0.11    0.99    1.43    87.96471    69.31795    45.47024
   214  H   1.0    0.11    0.99    1.43    88.66705    66.37162    44.09338
   215  N   5.0   -0.47    3.01    1.93    80.65795    63.13386    40.74213
   216  C   4.0    0.06    3.98    3.59    81.15284    61.42374    38.66965
   217  C   4.0    0.05    3.00    3.02    81.05064    62.94182    36.20812
   218  O   6.0   -0.39    1.00    1.80    79.90386    64.94312    36.08085
   219  C   4.0   -0.20    3.98    3.59    79.16110    59.32169    38.49372
   220  H   1.0    0.27    1.00    1.43    79.45525    64.55483    40.31859
   221  H   1.0    0.12    0.99    1.43    83.02188    60.58267    38.95811
   222  H   1.0    0.09    0.99    1.43    79.61047    58.05192    36.94045
   223  H   1.0    0.12    0.99    1.43    79.11781    58.27817    40.26036
   224  H   1.0    0.13    0.99    1.43    77.29804    60.12696    38.15106
   225  N   5.0   -0.66    3.00    1.93    78.53784    54.36677    26.81686
   226  C   4.0    0.06    3.98    3.58    79.29713    51.76517    27.05713
   227  C   4.0    0.08    3.00    3.02    78.02082    50.26180    24.93594
   228  O   6.0   -0.35    1.00    1.80    76.47211    51.23524    23.52252
   229  C   4.0   -0.15    3.98    3.59    78.36461    50.72371    29.61070
   230  C   4.0   -0.15    3.98    3.59    78.92955    52.54545    31.77824
   231  C   4.0   -0.03    3.99    3.60    77.57978    51.81916    34.21958
   232  N   5.0   -0.47    3.02    1.93    78.79393    49.71750    35.46141
   233  C   4.0    0.37    3.00    3.02    79.39714    49.51031    37.87261
   234  N   5.0   -0.66    3.02    1.93    80.54443    47.39682    38.65579
   235  N   5.0   -0.64    3.01    1.93    79.12168    51.38256    39.54012
   236  H   1.0    0.28    1.00    1.43    76.67525    54.68214    27.17951
   237  H   1.0    0.12    0.99    1.43    81.35946    51.66950    26.91220
   238  H   1.0    0.12    0.99    1.43    76.31704    50.47781    29.45282
   239  H   1.0    0.11    0.99    1.43    79.18800    48.86060    29.93505
   240  H   1.0    0.16    0.99    1.43    80.96139    52.67810    32.09443
   241  H   1.0    0.10    0.99    1.43    78.26284    54.41989    31.24376
   242  H   1.0    0.11    0.99    1.43    77.55506    53.46381    35.45589
   243  H   1.0    0.12    0.99    1.43    75.61886    51.31795    33.78048
   244  H   1.0    0.23    1.00    1.43    79.16090    48.17722    34.35031
   245  H   1.0    0.25    1.00    1.43    80.60797    45.91865    37.44901
   246  H   1.0    0.26    1.00    1.43    80.71293    47.09282    40.52900
   247  H   1.0    0.26    1.00    1.43    78.02655    52.86630    39.06935
   248  H   1.0    0.31    1.00    1.43    79.18694    50.89232    41.40176
   249  N   5.0   -0.69    3.00    1.93    64.72493    61.49234    38.26867
   250  C   4.0    0.08    3.98    3.58    64.30705    61.60160    40.98267
   251  C   4.0    0.07    3.00    3.02    61.87665    60.25314    41.75172
   252  O   6.0   -0.43    1.00    1.80    61.83433    58.67338    43.42644
   253  C   4.0   -0.01    3.98    3.59    64.23667    64.38983    41.79253
   254  O   6.0   -0.49    1.99    1.82    66.33301    65.60547    40.69079
   255  H   1.0    0.30    1.00    1.43    65.86398    62.89774    37.64427
   256  H   1.0    0.11    0.99    1.43    65.88134    60.66628    41.95434
   257  H   1.0    0.12    0.99    1.43    62.46841    65.26234    41.14762
   258  H   1.0    0.10    0.99    1.43    64.32398    64.47203    43.85978
   259  H   1.0    0.26    0.99    1.43    66.42310    67.32167    41.29749
   260  N   5.0   -0.72    3.00    1.93    84.17198    45.81043    31.43582
   261  C   4.0    0.07    3.98    3.59    85.13650    47.84236    32.99516
   262  C   4.0    0.06    3.00    3.02    85.48745    50.28692    31.48204
   263  O   6.0   -0.45    1.00    1.80    84.84369    52.33332    32.34315
   264  C   4.0   -0.09    3.98    3.58    87.65898    47.10464    34.26669
   265  C   4.0   -0.23    3.98    3.59    88.38081    49.08128    36.24047
   266  C   4.0   -0.23    3.98    3.59    87.45085    44.51265    35.51519
   267  H   1.0    0.26    1.00    1.43    85.34373    44.97184    30.16347
   268  H   1.0    0.13    0.99    1.43    83.72146    48.22474    34.45600
   269  H   1.0    0.11    0.99    1.43    89.10595    47.03336    32.79173
   270  H   1.0    0.09    0.99    1.43    90.23159    48.65617    37.02016
   271  H   1.0    0.13    0.99    1.43    88.42704    50.95544    35.40728
   272  H   1.0    0.10    0.99    1.43    87.00199    49.08389    37.76179
   273  H   1.0    0.09    0.99    1.43    89.21220    44.08202    36.47356
   274  H   1.0    0.10    0.99    1.43    85.93519    44.50442    36.90324
   275  H   1.0    0.10    0.99    1.43    87.06783    43.02715    34.14471
   276  N   5.0   -0.71    3.00    1.93    99.27498    71.96795    42.27562
   277  C   4.0    0.07    3.98    3.59    97.04652    72.46937    43.76365
   278  C   4.0    0.07    3.00    3.02    97.09679    71.14885    46.34990
   279  O   6.0   -0.42    1.00    1.80    95.19566    71.01952    47.65028
   280  C   4.0   -0.14    3.98    3.59    94.61932    71.87070    42.31856
   281  C   4.0   -0.15    3.98    3.58    94.28439    73.69783    40.10347
   282  C   4.0   -0.04    3.98    3.59    91.59606    73.73836    38.97785
   283  N   5.0   -0.48    3.02    1.93    90.37175    76.16697    39.35803
   284  C   4.0    0.37    3.00    3.02    89.22030    76.93750    41.46225
   285  N   5.0   -0.65    3.02    1.93    88.57800    79.35963    41.69907
   286  N   5.0   -0.65    3.02    1.93    88.62791    75.33003    43.29351
   287  H   1.0    0.26    1.00    1.43    99.31723    70.31047    41.31797
   288  H   1.0    0.13    0.99    1.43    97.09968    74.49951    44.21186
   289  H   1.0    0.11    0.99    1.43    94.73105    69.93007    41.63173
   290  H   1.0    0.13    0.99    1.43    93.08046    72.01018    43.67991
   291  H   1.0    0.13    0.99    1.43    94.75495    75.59942    40.74844
   292  H   1.0    0.10    0.99    1.43    95.65954    73.20102    38.65177
   293  H   1.0    0.11    0.99    1.43    91.66483    73.41436    36.94571
   294  H   1.0    0.10    0.99    1.43    90.44764    72.23365    39.78923
   295  H   1.0    0.24    1.00    1.43    90.88848    77.51216    38.10606
   296  H   1.0    0.27    1.00    1.43    89.00420    80.64226    40.35955
   297  H   1.0    0.27    1.00    1.43    87.59798    79.95826    43.21761
   298  H   1.0    0.25    1.00    1.43    89.06559    73.48123    43.17605
   299  H   1.0    0.26    1.00    1.43    87.70391    75.93723    44.84096
   300  N   5.0   -0.70    3.00    1.93    94.48378    51.25722    50.69414
   301  C   4.0    0.07    3.98    3.59    91.91344    51.32636    49.78083
   302  C   4.0    0.27    3.00    3.02    90.49435    48.89995    50.49083
   303  O   6.0   -0.42    1.00    1.80    91.52496    46.84446    50.66962
   304  C   4.0   -0.15    3.98    3.59    91.78310    51.88613    46.91601
   305  C   4.0   -0.09    3.97    3.58    93.58637    50.33258    45.24565
   306  C   4.0   -0.23    3.98    3.59    92.47579    49.95399    42.60475
   307  C   4.0   -0.22    3.98    3.59    96.14839    51.64640    44.95135
   308  H   1.0    0.28    1.00    1.43    95.63757    49.96995    49.89275
   309  H   1.0    0.13    0.99    1.43    91.01093    52.89410    50.78619
   310  H   1.0    0.10    0.99    1.43    89.83619    51.58734    46.30842
   311  H   1.0    0.10    0.99    1.43    92.21660    53.88246    46.64081
   312  H   1.0    0.16    0.99    1.43    93.83847    48.46287    46.08516
   313  H   1.0    0.11    0.99    1.43    93.83419    48.97244    41.41572
   314  H   1.0    0.09    0.99    1.43    90.75307    48.83601    42.65494
   315  H   1.0    0.09    0.99    1.43    92.04816    51.76560    41.73623
   316  H   1.0    0.11    0.99    1.43    97.42381    50.43870    43.88149
   317  H   1.0    0.10    0.99    1.43    95.89944    53.41382    43.92405
   318  H   1.0    0.10    0.99    1.43    97.00456    52.07130    46.76794
   319  N   5.0   -0.49    3.01    1.93    88.00667    49.26711    50.83226
   320  C   4.0    0.07    3.99    3.60    86.28377    47.45489    51.95537
   321  C   4.0    0.25    3.01    3.02    83.79369    47.56341    50.48356
   322  O   6.0   -0.48    1.00    1.80    83.14137    49.53669    49.45399
   323  C   4.0   -0.09    3.98    3.58    85.83716    48.12308    54.78415
   324  C   4.0   -0.22    3.98    3.59    84.28238    46.10112    56.11752
   325  C   4.0   -0.20    3.98    3.59    88.33347    48.48903    56.18871
   326  H   1.0    0.27    1.00    1.43    87.33905    51.06396    50.76547
   327  H   1.0    0.11    0.99    1.43    87.11286    45.57290    51.80268
   328  H   1.0    0.11    0.99    1.43    84.81166    49.91688    54.85008
   329  H   1.0    0.11    0.99    1.43    83.72784    46.73262    57.98852
   330  H   1.0    0.12    0.99    1.43    82.56704    45.66111    55.08775
   331  H   1.0    0.12    0.99    1.43    85.37181    44.37539    56.33569
   332  H   1.0    0.09    0.99    1.43    87.94304    48.68816    58.19461
   333  H   1.0    0.12    0.99    1.43    89.57771    46.87271    55.94150
   334  H   1.0    0.13    0.99    1.43    89.32526    50.17080    55.55096
   335  N   5.0   -0.50    3.00    1.93    82.37321    45.47710    50.44220
   336  C   4.0    0.08    3.99    3.61    79.88254    45.46144    49.28932
   337  C   4.0    0.27    3.01    3.02    78.00958    44.02917    50.94446
   338  O   6.0   -0.43    1.00    1.80    78.64161    42.25280    52.27907
   339  C   4.0   -0.11    3.98    3.59    79.85541    44.39045    46.56828
   340  C   4.0   -0.02    3.02    3.02    80.26531    41.58976    46.28690
   341  C   4.0   -0.09    3.04    3.02    82.37045    40.38202    47.28389
   342  C   4.0   -0.09    3.04    3.02    78.62322    40.15733    44.81404
   343  C   4.0   -0.10    3.03    3.02    82.83861    37.85252    46.81717
   344  C   4.0   -0.06    3.03    3.02    79.10450    37.64887    44.27703
   345  C   4.0    0.11    3.03    3.02    81.24165    36.47410    45.25653
   346  O   6.0   -0.45    1.99    1.83    81.74524    34.03524    44.60428
   347  H   1.0    0.24    1.00    1.43    82.90875    43.87562    51.35730
   348  H   1.0    0.14    0.99    1.43    79.29902    47.44019    49.15694
   349  H   1.0    0.11    0.99    1.43    78.05164    44.88877    45.69968
   350  H   1.0    0.12    0.99    1.43    81.30232    45.42811    45.51782
   351  H   1.0    0.12    1.00    1.43    83.70660    41.41956    48.41199
   352  H   1.0    0.12    1.00    1.43    76.95589    41.02077    44.01617
   353  H   1.0    0.11    0.99    1.43    84.51383    36.97717    47.59476
   354  H   1.0    0.14    1.00    1.43    77.85521    36.59194    43.06623
   355  H   1.0    0.26    0.99    1.43    83.25634    33.48251    45.47204
   356  N   5.0   -0.49    3.01    1.93    75.62433    44.90671    50.91252
   357  C   4.0    0.06    4.00    3.62    73.70268    43.59687    52.37710
   358  C   4.0    0.08    3.00    3.02    73.07479    41.09770    51.05098
   359  O   6.0   -0.40    1.00    1.80    72.95624    40.90456    48.75705
   360  C   4.0   -0.08    3.98    3.58    71.36241    45.22093    52.95536
   361  C   4.0   -0.16    3.98    3.59    72.24203    47.70590    54.19094
   362  C   4.0   -0.22    3.98    3.59    69.56793    43.70697    54.63624
   363  C   4.0   -0.23    3.98    3.58    70.20840    49.05370    55.72216
   364  H   1.0    0.22    1.00    1.43    75.08201    46.21356    49.63396
   365  H   1.0    0.11    0.99    1.43    74.61931    43.11458    54.17215
   366  H   1.0    0.14    0.99    1.43    70.34196    45.65176    51.20466
   367  H   1.0    0.10    0.99    1.43    73.84684    47.32003    55.42143
   368  H   1.0    0.10    0.99    1.43    72.89406    48.97433    52.71006
   369  H   1.0    0.12    0.99    1.43    67.87433    44.79662    55.00951
   370  H   1.0    0.12    0.99    1.43    68.95714    41.99645    53.68136
   371  H   1.0    0.10    0.99    1.43    70.44234    43.17923    56.41959
   372  H   1.0    0.09    0.99    1.43    70.91553    50.87146    56.36708
   373  H   1.0    0.14    0.99    1.43    68.52941    49.35448    54.57772
   374  H   1.0    0.11    0.99    1.43    69.70698    47.95988    57.38483
   375  N   5.0   -0.68    3.00    1.93    76.07140    39.86408    60.67218
   376  C   4.0    0.09    3.98    3.58    77.57848    40.47349    58.49424
   377  C   4.0    0.10    3.00    3.02    79.82400    38.69404    58.20455
   378  O   6.0   -0.36    1.00    1.80    80.76250    37.53258    59.96525
   379  C   4.0    0.03    3.98    3.58    78.58161    43.24042    58.56020
   380  O   6.0   -0.48    1.99    1.82    80.64348    43.50152    60.20736
   381  C   4.0   -0.23    3.98    3.59    76.47415    45.09705    59.19560
   382  H   1.0    0.29    1.00    1.43    77.01312    39.52166    62.30532
   383  H   1.0    0.11    0.99    1.43    76.35975    40.27058    56.83910
   384  H   1.0    0.13    0.99    1.43    79.33563    43.61249    56.66849
   385  H   1.0    0.26    0.99    1.43    79.98660    43.77970    61.88850
   386  H   1.0    0.09    0.99    1.43    76.97608    46.97676    58.54206
   387  H   1.0    0.09    0.99    1.43    74.71351    44.51875    58.31884
   388  H   1.0    0.10    0.99    1.43    76.16188    45.20528    61.22552
   389  N   5.0   -0.70    3.00    1.93    90.19053    41.78341    49.30897
   390  C   4.0    0.07    3.98    3.58    90.68513    41.51749    46.62751
   391  C   4.0    0.08    3.00    3.02    93.49664    41.95282    46.06351
   392  O   6.0   -0.43    1.00    1.80    94.31396    43.87961    45.11869
   393  C   4.0   -0.13    3.98    3.59    89.06973    43.35696    45.08676
   394  C   4.0   -0.11    3.98    3.58    88.44403    42.39516    42.42103
   395  C   4.0   -0.21    3.98    3.59    90.82228    41.70605    40.93950
   396  C   4.0   -0.22    3.98    3.59    86.58388    40.18999    42.47270
   397  H   1.0    0.32    1.00    1.43    90.27861    43.55877    50.03026
   398  H   1.0    0.10    0.99    1.43    90.21800    39.55402    46.16590
   399  H   1.0    0.11    0.99    1.43    87.30839    43.70265    46.09991
   400  H   1.0    0.13    0.99    1.43    90.12090    45.12762    44.93425
   401  H   1.0    0.10    0.99    1.43    87.52834    43.96576    41.43319
   402  H   1.0    0.09    0.99    1.43    90.31165    41.10135    39.04502
   403  H   1.0    0.12    0.99    1.43    92.07467    43.32942    40.81982
   404  H   1.0    0.12    0.99    1.43    91.86304    40.16454    41.81621
   405  H   1.0    0.10    0.99    1.43    86.32956    39.43601    40.58241
   406  H   1.0    0.10    0.99    1.43    87.24774    38.66536    43.67936
   407  H   1.0    0.11    0.99    1.43    84.75525    40.80709    43.17153
   408  H   1.0    0.31    1.00    1.43    59.20594    65.60882    58.00090
   409  H   1.0    0.15    1.00    1.43    61.42500    57.01327    55.11160
   410  H   1.0    0.30    1.00    1.43    62.33497    55.83954    49.81089
   411  H   1.0    0.14    1.00    1.43    63.08499    49.32725    49.05669
   412  H   1.0    0.32    1.00    1.43    71.18249    45.02921    45.42768
   413  H   1.0    0.13    1.00    1.43    93.00944    58.22669    64.43892
   414  H   1.0    0.30    1.00    1.43    82.54463    61.05496    67.44103
   415  H   1.0    0.14    1.00    1.43    83.69410    56.09548    71.03779
   416  H   1.0    0.27    1.00    1.43    77.78655    61.97473    65.52141
   417  H   1.0    0.12    1.00    1.43    81.93256    62.30008    34.66493
   418  H   1.0    0.29    1.00    1.43    79.42639    55.32070    27.90913
   419  H   1.0    0.13    1.00    1.43    78.44794    48.43873    24.68089
   420  H   1.0    0.30    1.00    1.43    65.45507    60.01004    37.86589
   421  H   1.0    0.15    1.00    1.43    60.25327    60.65704    40.87276
   422  H   1.0    0.29    1.00    1.43    83.64143    44.53559    32.42874
   423  H   1.0    0.13    1.00    1.43    86.25541    50.22802    29.75640
   424  H   1.0    0.30    1.00    1.43    99.45801    73.18334    41.10009
   425  H   1.0    0.15    1.00    1.43    98.70143    70.38122    46.98783
   426  H   1.0    0.29    1.00    1.43    95.22054    52.76738    50.43118
   427  H   1.0    0.13    1.00    1.43    72.74322    39.54308    52.07289
   428  H   1.0    0.29    1.00    1.43    75.01639    41.15417    61.01155
   429  H   1.0    0.14    1.00    1.43    80.60639    38.42895    56.50494
   430  H   1.0    0.28    1.00    1.43    88.62276    41.22252    49.65546
   431  H   1.0    0.14    1.00    1.43    94.76193    40.61136    46.47653

           ------------------------------------------------- 
          |        Self-Consistent Charge Iterations        |
           ------------------------------------------------- 

          ...................................................
          :                      SETUP                      :
          :.................................................:
          :  # basis functions                 998          :
          :  # atomic orbitals                 998          :
          :  # shells                          620          :
          :  # electrons                      1092          :
          :  max. iterations                   250          :
          :  Hamiltonian                  GFN2-xTB          :
          :  restarted?                      false          :
          :  GBSA solvation                   true          :
          :  PC potential                    false          :
          :  electronic temp.          500.0000000     K    :
          :  accuracy                    0.1000000          :
          :  -> integral cutoff          0.3500000E+02      :
          :  -> integral neglect         0.1000000E-08      :
          :  -> SCF convergence          0.1000000E-06 Eh   :
          :  -> wf. convergence          0.1000000E-04 e    :
          :  Broyden damping             0.4000000          :
          ...................................................

 iter      E             dE          RMSdq      gap      omega  full diag
   1   -619.9548582 -0.619955E+03  0.397E+00    1.91       0.0  T
   2   -621.2919132 -0.133706E+01  0.204E+00    1.06       1.0  T
   3   -621.3513926 -0.594794E-01  0.112E+00    1.46       1.0  T
   4   -621.3929972 -0.416046E-01  0.246E-01    0.94       1.0  T
   5   -621.4051563 -0.121591E-01  0.104E-01    1.06       1.0  T
   6   -621.4056672 -0.510910E-03  0.443E-02    1.04       1.0  T
   7   -621.4057530 -0.857535E-04  0.207E-02    1.04       1.0  T
   8   -621.4057985 -0.454991E-04  0.859E-03    1.04       1.0  T
   9   -621.4058061 -0.758581E-05  0.433E-03    1.04       1.1  T
  10   -621.4058075 -0.140885E-05  0.188E-03    1.04       2.6  T
  11   -621.4058077 -0.262072E-06  0.704E-04    1.04       6.8  T
  12   -621.4058078 -0.488086E-07  0.360E-04    1.04      13.4  T
  13   -621.4058078 -0.141803E-07  0.155E-04    1.04      31.0  T
  14   -621.4058078 -0.199259E-08  0.684E-05    1.04      70.4  T
  15   -621.4058078 -0.566274E-09  0.255E-05    1.04     188.7  T

   *** convergence criteria satisfied after 15 iterations ***

         #    Occupation            Energy/Eh            Energy/eV
      -------------------------------------------------------------
         1        2.0000           -0.7446842             -20.2639
       ...           ...                  ...                  ...
       540        2.0000           -0.3686210             -10.0307
       541        2.0000           -0.3669923              -9.9864
       542        2.0000           -0.3607088              -9.8154
       543        2.0000           -0.3601348              -9.7998
       544        2.0000           -0.3591210              -9.7722
       545        2.0000           -0.3578484              -9.7375
       546        2.0000           -0.3441722              -9.3654 (HOMO)
       547        0.0000           -0.3059057              -8.3241 (LUMO)
       548                         -0.2957053              -8.0465
       549                         -0.2953269              -8.0363
       550                         -0.2907337              -7.9113
       551                         -0.2877847              -7.8310
       ...                                ...                  ...
       998                          0.6567740              17.8717
      -------------------------------------------------------------
                  HL-Gap            0.0382665 Eh            1.0413 eV
             Fermi-level           -0.3250410 Eh           -8.8448 eV

 SCC (total)                   0 d,  0 h,  0 min, 14.855 sec
 SCC setup                      ...        0 min,  0.277 sec (  1.862%)
 Dispersion                     ...        0 min,  0.170 sec (  1.141%)
 integral evaluation            ...        0 min,  0.592 sec (  3.988%)
 zeroth order Hamiltonian       ...        0 min,  0.018 sec (  0.119%)
 iterations                     ...        0 min, 10.077 sec ( 67.838%)
 molecular gradient             ...        0 min,  3.644 sec ( 24.534%)
 printout                       ...        0 min,  0.077 sec (  0.516%)

         :::::::::::::::::::::::::::::::::::::::::::::::::::::
         ::                     SUMMARY                     ::
         :::::::::::::::::::::::::::::::::::::::::::::::::::::
         :: total energy             -613.498699120773 Eh   ::
         :: total w/o Gsasa/hb       -613.421870162393 Eh   ::
         :: gradient norm               0.766909607046 Eh/α ::
         :: HOMO-LUMO gap               1.041285362933 eV   ::
         ::.................................................::
         :: SCC energy               -621.428382859996 Eh   ::
         :: -> isotropic ES             1.589446820613 Eh   ::
         :: -> anisotropic ES           0.006654937474 Eh   ::
         :: -> anisotropic XC           0.243744941647 Eh   ::
         :: -> dispersion              -0.499919099845 Eh   ::
         :: -> Gsolv                   -0.409616873409 Eh   ::
         ::    -> Gborn                -0.332787915029 Eh   ::
         ::    -> Gsasa                -0.024432510678 Eh   ::
         ::    -> Ghb                  -0.054253890829 Eh   ::
         ::    -> Gshift                0.001857443127 Eh   ::
         :: repulsion energy            7.883191557924 Eh   ::
         :: add. restraining            0.000000000000 Eh   ::
         :::::::::::::::::::::::::::::::::::::::::::::::::::::

           -------------------------------------------------
          |                Property Printout                |
           -------------------------------------------------

    * Orbital Energies and Occupations

         #    Occupation            Energy/Eh            Energy/eV
      -------------------------------------------------------------
         1        2.0000           -0.7446842             -20.2639
       ...           ...                  ...                  ...
       534        2.0000           -0.3768871             -10.2556
       535        2.0000           -0.3752113             -10.2100
       536        2.0000           -0.3694870             -10.0543
       537        2.0000           -0.3690811             -10.0432
       538        2.0000           -0.3689035             -10.0384
       539        2.0000           -0.3688668             -10.0374
       540        2.0000           -0.3686210             -10.0307
       541        2.0000           -0.3669923              -9.9864
       542        2.0000           -0.3607088              -9.8154
       543        2.0000           -0.3601348              -9.7998
       544        2.0000           -0.3591210              -9.7722
       545        2.0000           -0.3578484              -9.7375
       546        2.0000           -0.3441722              -9.3654 (HOMO)
       547        0.0000           -0.3059057              -8.3241 (LUMO)
       548                         -0.2957053              -8.0465
       549                         -0.2953269              -8.0363
       550                         -0.2907337              -7.9113
       551                         -0.2877847              -7.8310
       552                         -0.2876620              -7.8277
       553                         -0.2814452              -7.6585
       554                         -0.2812308              -7.6527
       555                         -0.2795327              -7.6065
       556                         -0.2793038              -7.6002
       557                         -0.2749691              -7.4823
       ...                                ...                  ...
       998                          0.6567740              17.8717
      -------------------------------------------------------------
                  HL-Gap            0.0382665 Eh            1.0413 eV
             Fermi-level           -0.3250410 Eh           -8.8448 eV

   #   Z        covCN         q      C6AA      α(0)
   1   7 N      2.636    -0.403    30.456     8.196
   2   6 C      3.790     0.050    19.748     6.329
   3   6 C      2.761     0.280    22.253     7.725
   4   8 O      0.858    -0.498    23.746     6.533
   5   6 C      3.803    -0.097    22.358     6.732
   6   6 C      2.685     0.371    20.718     7.449
   7   8 O      0.856    -0.640    27.126     6.983
   8   8 O      0.856    -0.644    27.235     6.997
   9   1 H      0.860     0.169     1.277     1.770
  10   1 H      0.923     0.018     2.762     2.599
  11   1 H      0.924     0.021     2.714     2.576
  12   1 H      0.925     0.022     2.705     2.572
  13   7 N      2.691    -0.161    24.472     7.347
  14   6 C      3.792     0.019    20.262     6.410
  15   6 C      2.764     0.197    23.796     7.989
  16   8 O      0.856    -0.338    20.479     6.067
  17   6 C      3.677     0.078    19.495     6.325
  18   8 O      1.655    -0.479    22.444     6.395
  19   1 H      0.860     0.214     1.038     1.596
  20   1 H      0.923     0.089     1.888     2.149
  21   1 H      0.923     0.051     2.307     2.375
  22   1 H      0.924     0.052     2.295     2.369
  23   1 H      0.804     0.348     0.594     1.210
  24   7 N      2.638    -0.371    29.586     8.078
  25   6 C      3.781     0.035    20.007     6.372
  26   6 C      2.773     0.198    23.787     7.988
  27   8 O      0.856    -0.356    20.824     6.118
  28   6 C      3.811    -0.076    21.948     6.668
  29   6 C      3.849    -0.010    20.725     6.475
  30   6 C      3.755    -0.120    22.856     6.817
  31   6 C      3.755    -0.101    22.476     6.760
  32   1 H      0.860     0.143     1.450     1.887
  33   1 H      0.924     0.062     2.174     2.306
  34   1 H      0.924     0.046     2.370     2.408
  35   1 H      0.924     0.053     2.279     2.361
  36   1 H      0.924     0.033     2.544     2.494
  37   1 H      0.925     0.038     2.478     2.462
  38   1 H      0.925     0.044     2.391     2.418
  39   1 H      0.925     0.051     2.301     2.372
  40   1 H      0.925     0.030     2.586     2.515
  41   1 H      0.925     0.038     2.480     2.463
  42   1 H      0.925     0.019     2.755     2.596
  43   7 N      2.631    -0.391    30.137     8.153
  44   6 C      3.735    -0.017    20.963     6.534
  45   6 C      2.751     0.275    22.347     7.741
  46   8 O      0.858    -0.468    23.095     6.443
  47   1 H      0.860     0.170     1.271     1.766
  48   1 H      0.924     0.048     2.350     2.397
  49   1 H      0.924     0.071     2.078     2.255
  50   7 N      2.694    -0.173    24.745     7.388
  51   6 C      3.794     0.014    20.351     6.424
  52   6 C      2.758     0.255    22.708     7.803
  53   8 O      0.859    -0.471    23.151     6.451
  54   6 C      3.757    -0.136    23.175     6.864
  55   1 H      0.860     0.184     1.193     1.711
  56   1 H      0.924     0.089     1.892     2.151
  57   1 H      0.925     0.063     2.164     2.300
  58   1 H      0.925     0.081     1.967     2.193
  59   1 H      0.925     0.055     2.253     2.347
  60   7 N      2.695    -0.157    24.397     7.336
  61   6 C      3.798     0.003    20.531     6.452
  62   6 C      2.761     0.275    22.357     7.743
  63   8 O      0.858    -0.500    23.787     6.539
  64   6 C      3.808    -0.089    22.199     6.707
  65   6 C      3.849    -0.009    20.702     6.472
  66   6 C      3.755    -0.128    23.019     6.841
  67   6 C      3.757    -0.123    22.911     6.824
  68   1 H      0.860     0.193     1.141     1.673
  69   1 H      0.924     0.095     1.835     2.118
  70   1 H      0.925     0.070     2.085     2.258
  71   1 H      0.924     0.075     2.033     2.230
  72   1 H      0.924     0.016     2.798     2.616
  73   1 H      0.925     0.047     2.361     2.403
  74   1 H      0.925     0.036     2.507     2.476
  75   1 H      0.925     0.060     2.198     2.319
  76   1 H      0.925     0.036     2.498     2.472
  77   1 H      0.925     0.055     2.263     2.352
  78   1 H      0.925     0.050     2.323     2.383
  79   7 N      2.692    -0.178    24.858     7.405
  80   6 C      3.794     0.016    20.307     6.417
  81   6 C      2.757     0.267    22.490     7.766
  82   8 O      0.858    -0.477    23.283     6.469
  83   6 C      3.812    -0.071    21.849     6.653
  84   6 C      3.850    -0.014    20.798     6.487
  85   6 C      3.757    -0.114    22.736     6.798
  86   6 C      3.759    -0.115    22.758     6.801
  87   1 H      0.860     0.233     0.951     1.528
  88   1 H      0.924     0.081     1.969     2.194
  89   1 H      0.924     0.056     2.242     2.342
  90   1 H      0.924     0.044     2.390     2.418
  91   1 H      0.924     0.036     2.498     2.472
  92   1 H      0.925     0.044     2.403     2.424
  93   1 H      0.925     0.033     2.548     2.496
  94   1 H      0.925     0.043     2.414     2.430
  95   1 H      0.925     0.040     2.451     2.448
  96   1 H      0.925     0.046     2.370     2.408
  97   1 H      0.925     0.042     2.427     2.436
  98   7 N      2.694    -0.165    24.577     7.363
  99   6 C      3.797     0.014    20.342     6.422
 100   6 C      2.758     0.267    22.489     7.766
 101   8 O      0.858    -0.483    23.409     6.487
 102   6 C      3.850    -0.021    20.918     6.505
 103   6 C      3.752    -0.125    22.963     6.833
 104   6 C      3.755    -0.122    22.887     6.821
 105   1 H      0.860     0.203     1.092     1.637
 106   1 H      0.924     0.072     2.062     2.245
 107   1 H      0.924     0.062     2.178     2.308
 108   1 H      0.925     0.060     2.194     2.316
 109   1 H      0.925     0.052     2.290     2.366
 110   1 H      0.925     0.042     2.419     2.432
 111   1 H      0.925     0.065     2.136     2.285
 112   1 H      0.925     0.036     2.505     2.475
 113   1 H      0.925     0.045     2.379     2.412
 114   7 N      2.692    -0.160    24.469     7.347
 115   6 C      3.794     0.017    20.298     6.416
 116   6 C      2.766     0.203    23.692     7.971
 117   8 O      0.856    -0.349    20.697     6.100
 118   6 C      3.849    -0.015    20.805     6.488
 119   6 C      3.754    -0.122    22.894     6.823
 120   6 C      3.755    -0.120    22.846     6.815
 121   1 H      0.860     0.208     1.064     1.616
 122   1 H      0.924     0.086     1.921     2.167
 123   1 H      0.924     0.058     2.227     2.333
 124   1 H      0.925     0.056     2.247     2.344
 125   1 H      0.925     0.048     2.343     2.394
 126   1 H      0.925     0.056     2.250     2.346
 127   1 H      0.925     0.059     2.216     2.328
 128   1 H      0.925     0.041     2.435     2.440
 129   1 H      0.925     0.043     2.405     2.425
 130   7 N      2.636    -0.390    30.089     8.147
 131   6 C      3.782     0.046    19.830     6.344
 132   6 C      2.767     0.204    23.660     7.966
 133   8 O      0.856    -0.387    21.432     6.207
 134   6 C      3.806    -0.073    21.885     6.660
 135   6 C      3.849    -0.011    20.739     6.477
 136   6 C      3.757    -0.114    22.731     6.798
 137   6 C      3.756    -0.117    22.792     6.807
 138   1 H      0.860     0.174     1.249     1.751
 139   1 H      0.923     0.036     2.509     2.477
 140   1 H      0.924     0.070     2.087     2.259
 141   1 H      0.924     0.046     2.367     2.406
 142   1 H      0.924     0.029     2.607     2.525
 143   1 H      0.925     0.044     2.400     2.423
 144   1 H      0.925     0.041     2.437     2.441
 145   1 H      0.925     0.046     2.366     2.405
 146   1 H      0.925     0.043     2.411     2.428
 147   1 H      0.925     0.035     2.515     2.480
 148   1 H      0.925     0.036     2.504     2.474
 149   7 N      2.702    -0.291    27.495     7.788
 150   6 C      3.820     0.027    20.106     6.381
 151   6 C      2.752     0.278    22.299     7.733
 152   8 O      0.858    -0.488    23.528     6.503
 153   6 C      3.833    -0.064    21.697     6.627
 154   6 C      3.833    -0.054    21.522     6.600
 155   6 C      3.765     0.025    20.186     6.404
 156   1 H      0.924     0.033     2.545     2.495
 157   1 H      0.925     0.051     2.310     2.377
 158   1 H      0.925     0.058     2.226     2.333
 159   1 H      0.924     0.023     2.690     2.565
 160   1 H      0.925     0.056     2.244     2.343
 161   1 H      0.924     0.019     2.744     2.591
 162   1 H      0.924     0.018     2.762     2.599
 163   7 N      2.691    -0.184    24.986     7.424
 164   6 C      3.794     0.021    20.234     6.406
 165   6 C      2.753     0.276    22.333     7.739
 166   8 O      0.858    -0.467    23.066     6.439
 167   6 C      3.726     0.113    18.828     6.195
 168   8 O      1.655    -0.479    22.449     6.396
 169   6 C      3.752    -0.139    23.234     6.874
 170   1 H      0.860     0.208     1.065     1.616
 171   1 H      0.924     0.050     2.321     2.382
 172   1 H      0.923     0.028     2.620     2.531
 173   1 H      0.805     0.351     0.587     1.203
 174   1 H      0.925     0.078     1.996     2.209
 175   1 H      0.925     0.046     2.370     2.407
 176   1 H      0.925     0.062     2.181     2.309
 177   7 N      2.687    -0.177    24.843     7.403
 178   6 C      3.791     0.013    20.367     6.427
 179   6 C      2.752     0.277    22.316     7.736
 180   8 O      0.859    -0.469    23.111     6.445
 181   6 C      3.801    -0.070    21.843     6.654
 182   6 C      3.847    -0.011    20.735     6.477
 183   6 C      3.752    -0.088    22.242     6.725
 184   6 C      3.753    -0.113    22.723     6.797
 185   1 H      0.860     0.187     1.173     1.696
 186   1 H      0.924     0.105     1.742     2.064
 187   1 H      0.924     0.072     2.061     2.245
 188   1 H      0.924     0.035     2.523     2.484
 189   1 H      0.924     0.044     2.402     2.424
 190   1 H      0.925     0.021     2.715     2.577
 191   1 H      0.925     0.013     2.839     2.635
 192   1 H      0.925     0.019     2.754     2.595
 193   1 H      0.925     0.039     2.468     2.457
 194   1 H      0.925     0.030     2.590     2.517
 195   1 H      0.925     0.066     2.128     2.281
 196   7 N      2.690    -0.175    24.782     7.394
 197   6 C      3.793     0.022    20.219     6.403
 198   6 C      2.753     0.278    22.290     7.731
 199   8 O      0.859    -0.469    23.112     6.446
 200   6 C      3.812    -0.079    21.991     6.675
 201   6 C      3.849    -0.014    20.791     6.486
 202   6 C      3.756    -0.130    23.046     6.845
 203   6 C      3.756    -0.124    22.927     6.827
 204   1 H      0.860     0.197     1.123     1.660
 205   1 H      0.924     0.056     2.246     2.344
 206   1 H      0.924     0.059     2.216     2.328
 207   1 H      0.924     0.059     2.208     2.324
 208   1 H      0.924     0.029     2.597     2.520
 209   1 H      0.925     0.060     2.194     2.316
 210   1 H      0.925     0.033     2.541     2.493
 211   1 H      0.925     0.056     2.245     2.343
 212   1 H      0.925     0.053     2.287     2.365
 213   1 H      0.925     0.054     2.268     2.355
 214   1 H      0.925     0.041     2.436     2.441
 215   7 N      2.691    -0.163    24.534     7.356
 216   6 C      3.788     0.026    20.150     6.393
 217   6 C      2.770     0.197    23.808     7.991
 218   8 O      0.856    -0.364    20.970     6.140
 219   6 C      3.756    -0.131    23.075     6.849
 220   1 H      0.860     0.206     1.074     1.623
 221   1 H      0.924     0.102     1.768     2.080
 222   1 H      0.925     0.081     1.972     2.196
 223   1 H      0.925     0.079     1.990     2.206
 224   1 H      0.925     0.065     2.143     2.289
 225   7 N      2.639    -0.384    29.921     8.124
 226   6 C      3.782     0.035    20.011     6.372
 227   6 C      2.770     0.197    23.802     7.990
 228   8 O      0.856    -0.376    21.211     6.175
 229   6 C      3.807    -0.082    22.067     6.687
 230   6 C      3.803    -0.088    22.168     6.703
 231   6 C      3.739    -0.024    21.083     6.552
 232   7 N      2.700    -0.126    23.732     7.235
 233   6 C      2.736     0.225    23.257     7.896
 234   7 N      2.658    -0.251    26.526     7.649
 235   7 N      2.650    -0.247    26.429     7.635
 236   1 H      0.860     0.160     1.333     1.809
 237   1 H      0.924     0.069     2.093     2.262
 238   1 H      0.924     0.047     2.353     2.399
 239   1 H      0.924     0.060     2.198     2.318
 240   1 H      0.924     0.087     1.905     2.158
 241   1 H      0.925     0.069     2.093     2.262
 242   1 H      0.925     0.084     1.934     2.175
 243   1 H      0.924     0.085     1.933     2.174
 244   1 H      0.859     0.231     0.959     1.534
 245   1 H      0.860     0.240     0.922     1.504
 246   1 H      0.860     0.237     0.935     1.515
 247   1 H      0.860     0.223     0.998     1.565
 248   1 H      0.860     0.243     0.911     1.495
 249   7 N      2.635    -0.391    30.131     8.152
 250   6 C      3.781     0.036    19.989     6.369
 251   6 C      2.765     0.197    23.794     7.988
 252   8 O      0.856    -0.364    20.974     6.140
 253   6 C      3.678     0.083    19.414     6.312
 254   8 O      1.656    -0.470    22.267     6.370
 255   1 H      0.860     0.191     1.151     1.681
 256   1 H      0.924     0.050     2.320     2.382
 257   1 H      0.924     0.036     2.498     2.472
 258   1 H      0.924     0.023     2.686     2.563
 259   1 H      0.805     0.347     0.595     1.212
 260   7 N      2.633    -0.382    29.878     8.118
 261   6 C      3.785     0.020    20.253     6.410
 262   6 C      2.764     0.198    23.771     7.985
 263   8 O      0.856    -0.363    20.964     6.139
 264   6 C      3.852    -0.019    20.871     6.498
 265   6 C      3.757    -0.122    22.894     6.822
 266   6 C      3.756    -0.119    22.838     6.814
 267   1 H      0.860     0.150     1.402     1.855
 268   1 H      0.924     0.077     2.013     2.219
 269   1 H      0.924     0.028     2.617     2.530
 270   1 H      0.925     0.042     2.422     2.434
 271   1 H      0.925     0.039     2.462     2.454
 272   1 H      0.925     0.060     2.198     2.318
 273   1 H      0.925     0.050     2.323     2.384
 274   1 H      0.925     0.053     2.278     2.360
 275   1 H      0.925     0.039     2.458     2.452
 276   7 N      2.634    -0.397    30.278     8.172
 277   6 C      3.783     0.032    20.062     6.380
 278   6 C      2.763     0.197    23.806     7.990
 279   8 O      0.856    -0.377    21.232     6.178
 280   6 C      3.804    -0.080    22.023     6.681
 281   6 C      3.802    -0.083    22.081     6.690
 282   6 C      3.736    -0.027    21.148     6.563
 283   7 N      2.699    -0.144    24.122     7.294
 284   6 C      2.735     0.234    23.099     7.869
 285   7 N      2.654    -0.258    26.704     7.675
 286   7 N      2.651    -0.229    26.018     7.576
 287   1 H      0.860     0.160     1.334     1.809
 288   1 H      0.923     0.084     1.936     2.176
 289   1 H      0.924     0.052     2.301     2.372
 290   1 H      0.925     0.068     2.105     2.269
 291   1 H      0.924     0.065     2.145     2.290
 292   1 H      0.924     0.061     2.191     2.315
 293   1 H      0.925     0.092     1.861     2.133
 294   1 H      0.925     0.083     1.952     2.185
 295   1 H      0.860     0.232     0.955     1.531
 296   1 H      0.860     0.248     0.893     1.480
 297   1 H      0.860     0.251     0.880     1.469
 298   1 H      0.860     0.235     0.944     1.522
 299   1 H      0.860     0.245     0.902     1.487
 300   7 N      2.634    -0.390    30.091     8.147
 301   6 C      3.786     0.027    20.137     6.392
 302   6 C      2.749     0.278    22.287     7.730
 303   8 O      0.858    -0.481    23.359     6.480
 304   6 C      3.804    -0.078    21.983     6.675
 305   6 C      3.848    -0.006    20.650     6.464
 306   6 C      3.758    -0.108    22.610     6.779
 307   6 C      3.757    -0.110    22.655     6.786
 308   1 H      0.860     0.154     1.372     1.835
 309   1 H      0.924     0.051     2.310     2.377
 310   1 H      0.924     0.043     2.408     2.427
 311   1 H      0.924     0.042     2.418     2.432
 312   1 H      0.924     0.031     2.571     2.507
 313   1 H      0.925     0.035     2.512     2.479
 314   1 H      0.925     0.038     2.474     2.460
 315   1 H      0.925     0.042     2.417     2.431
 316   1 H      0.925     0.031     2.573     2.508
 317   1 H      0.925     0.040     2.448     2.447
 318   1 H      0.925     0.031     2.567     2.505
 319   7 N      2.693    -0.182    24.939     7.417
 320   6 C      3.790     0.019    20.266     6.411
 321   6 C      2.758     0.266    22.511     7.770
 322   8 O      0.859    -0.467    23.066     6.439
 323   6 C      3.850    -0.018    20.867     6.497
 324   6 C      3.757    -0.120    22.854     6.816
 325   6 C      3.756    -0.113    22.707     6.794
 326   1 H      0.860     0.216     1.030     1.590
 327   1 H      0.924     0.063     2.164     2.301
 328   1 H      0.924     0.043     2.411     2.428
 329   1 H      0.925     0.062     2.175     2.306
 330   1 H      0.925     0.034     2.531     2.488
 331   1 H      0.925     0.048     2.346     2.395
 332   1 H      0.925     0.054     2.266     2.354
 333   1 H      0.925     0.046     2.372     2.408
 334   1 H      0.925     0.039     2.463     2.454
 335   7 N      2.687    -0.158    24.424     7.340
 336   6 C      3.795     0.017    20.295     6.415
 337   6 C      2.760     0.268    22.476     7.764
 338   8 O      0.859    -0.477    23.288     6.470
 339   6 C      3.807    -0.076    21.948     6.669
 340   6 C      2.964    -0.005    28.141     8.701
 341   6 C      2.927    -0.038    28.944     8.823
 342   6 C      2.928    -0.042    29.040     8.838
 343   6 C      2.918    -0.072    29.790     8.950
 344   6 C      2.918    -0.059    29.455     8.900
 345   6 C      2.845     0.146    24.818     8.165
 346   8 O      1.659    -0.438    21.597     6.274
 347   1 H      0.860     0.205     1.080     1.628
 348   1 H      0.924     0.082     1.960     2.189
 349   1 H      0.924     0.068     2.103     2.268
 350   1 H      0.924     0.085     1.930     2.173
 351   1 H      0.926     0.037     2.486     2.466
 352   1 H      0.926     0.048     2.347     2.396
 353   1 H      0.925     0.037     2.488     2.467
 354   1 H      0.926     0.052     2.289     2.366
 355   1 H      0.805     0.345     0.600     1.216
 356   7 N      2.689    -0.165    24.566     7.361
 357   6 C      3.802     0.019    20.256     6.408
 358   6 C      2.765     0.203    23.678     7.969
 359   8 O      0.856    -0.355    20.804     6.115
 360   6 C      3.849    -0.021    20.914     6.505
 361   6 C      3.804    -0.073    21.889     6.661
 362   6 C      3.756    -0.123    22.919     6.826
 363   6 C      3.751    -0.115    22.755     6.803
 364   1 H      0.860     0.195     1.129     1.665
 365   1 H      0.924     0.084     1.938     2.177
 366   1 H      0.924     0.060     2.205     2.322
 367   1 H      0.925     0.050     2.324     2.384
 368   1 H      0.925     0.050     2.325     2.384
 369   1 H      0.925     0.068     2.107     2.270
 370   1 H      0.925     0.040     2.445     2.445
 371   1 H      0.925     0.049     2.336     2.390
 372   1 H      0.925     0.033     2.548     2.496
 373   1 H      0.925     0.053     2.289     2.366
 374   1 H      0.925     0.044     2.393     2.419
 375   7 N      2.634    -0.385    29.965     8.130
 376   6 C      3.781     0.025    20.181     6.400
 377   6 C      2.767     0.207    23.608     7.957
 378   8 O      0.856    -0.377    21.227     6.177
 379   6 C      3.726     0.112    18.844     6.198
 380   8 O      1.656    -0.478    22.432     6.394
 381   6 C      3.752    -0.132    23.096     6.853
 382   1 H      0.860     0.162     1.320     1.800
 383   1 H      0.924     0.063     2.167     2.302
 384   1 H      0.924     0.046     2.369     2.407
 385   1 H      0.805     0.326     0.647     1.263
 386   1 H      0.925     0.064     2.156     2.296
 387   1 H      0.925     0.059     2.213     2.326
 388   1 H      0.925     0.054     2.272     2.357
 389   7 N      2.635    -0.403    30.450     8.195
 390   6 C      3.782     0.044    19.861     6.348
 391   6 C      2.765     0.208    23.579     7.952
 392   8 O      0.856    -0.361    20.920     6.132
 393   6 C      3.807    -0.072    21.870     6.657
 394   6 C      3.849    -0.017    20.850     6.495
 395   6 C      3.755    -0.108    22.619     6.781
 396   6 C      3.755    -0.119    22.835     6.814
 397   1 H      0.860     0.173     1.255     1.755
 398   1 H      0.924     0.051     2.308     2.376
 399   1 H      0.924     0.033     2.544     2.494
 400   1 H      0.924     0.050     2.326     2.385
 401   1 H      0.924     0.050     2.321     2.383
 402   1 H      0.925     0.047     2.356     2.401
 403   1 H      0.925     0.037     2.487     2.466
 404   1 H      0.925     0.017     2.772     2.604
 405   1 H      0.925     0.047     2.359     2.402
 406   1 H      0.925     0.027     2.623     2.533
 407   1 H      0.925     0.044     2.401     2.423
 408   1 H      0.862     0.190     1.157     1.685
 409   1 H      0.930     0.090     1.879     2.143
 410   1 H      0.862     0.180     1.211     1.724
 411   1 H      0.930     0.069     2.096     2.264
 412   1 H      0.862     0.167     1.293     1.781
 413   1 H      0.930     0.074     2.042     2.234
 414   1 H      0.862     0.167     1.290     1.779
 415   1 H      0.930     0.075     2.026     2.226
 416   1 H      0.862     0.161     1.330     1.807
 417   1 H      0.930     0.092     1.862     2.134
 418   1 H      0.862     0.189     1.165     1.691
 419   1 H      0.930     0.065     2.136     2.285
 420   1 H      0.862     0.186     1.178     1.700
 421   1 H      0.930     0.077     2.012     2.218
 422   1 H      0.862     0.187     1.172     1.696
 423   1 H      0.930     0.061     2.182     2.310
 424   1 H      0.862     0.187     1.174     1.697
 425   1 H      0.930     0.067     2.118     2.275
 426   1 H      0.862     0.181     1.209     1.723
 427   1 H      0.930     0.073     2.056     2.242
 428   1 H      0.862     0.190     1.161     1.687
 429   1 H      0.930     0.065     2.136     2.285
 430   1 H      0.862     0.173     1.252     1.753
 431   1 H      0.930     0.053     2.280     2.361

 Mol. C6AA /au·bohr⁶  :    1547579.518701
 Mol. C8AA /au·bohr⁸  :   33618797.065543
 Mol. α(0) /au        :       1856.867697


Wiberg/Mayer (AO) data.
largest (>0.10) Wiberg bond orders for each atom
          total WBO             WBO to atom ...
     1  N   2.989        C    2 1.008    H  408 0.954    H    9 0.953
     2  C   3.985        N    1 1.008    C    5 0.978    H   10 0.966    C    3 0.935
     3  C   3.941        O    4 1.637    N   13 1.290    C    2 0.935
     4  O   1.946        C    3 1.637    N   13 0.186
     5  C   3.988        C    2 0.978    H   11 0.977    H   12 0.975    C    6 0.903
     6  C   3.935        O    8 1.505    O    7 1.504    C    5 0.903
     7  O   1.800        C    6 1.504    O    8 0.218
     8  O   1.797        C    6 1.505    O    7 0.218
     9  H   0.971        N    1 0.953
    10  H   0.999        C    2 0.966
    11  H   0.999        C    5 0.977
    12  H   1.000        C    5 0.975
    13  N   3.463        C    3 1.290    C   14 0.979    H   19 0.919    O    4 0.186
    14  C   3.967        N   13 0.979    C   17 0.974    C   15 0.972    H   20 0.925
    15  C   3.904        O   16 1.900    C   14 0.972    H  409 0.951
    16  O   2.063        C   15 1.900
    17  C   3.962        O   18 1.016    C   14 0.974    H   22 0.972    H   21 0.965
    18  O   1.938        C   17 1.016    H   23 0.850
    19  H   0.954        N   13 0.919
    20  H   0.992        C   14 0.925
    21  H   0.997        C   17 0.965
    22  H   0.997        C   17 0.972
    23  H   0.879        O   18 0.850
    24  N   3.018        C   25 0.995    H   32 0.956    H  410 0.950
    25  C   3.979        N   24 0.995    C   28 0.991    C   26 0.960    H   33 0.956
    26  C   3.892        O   27 1.908    C   25 0.960    H  411 0.955
    27  O   2.046        C   26 1.908
    28  C   3.994        C   29 0.996    C   25 0.991    H   34 0.972    H   35 0.965
    29  C   3.996        C   31 1.009    C   30 1.008    C   28 0.996    H   36 0.965
    30  C   3.994        C   29 1.008    H   38 0.984    H   37 0.981    H   39 0.977
    31  C   3.995        C   29 1.009    H   42 0.985    H   40 0.980    H   41 0.979
    32  H   0.980        N   24 0.956
    33  H   0.996        C   25 0.956
    34  H   0.998        C   28 0.972
    35  H   0.997        C   28 0.965
    36  H   0.999        C   29 0.965
    37  H   0.998        C   30 0.981
    38  H   0.998        C   30 0.984
    39  H   0.997        C   30 0.977
    40  H   0.999        C   31 0.980
    41  H   0.998        C   31 0.979
    42  H   1.000        C   31 0.985
    43  N   2.981        C   44 1.021    H   47 0.953    H  412 0.953
    44  C   3.984        N   43 1.021    H   49 0.970    C   45 0.959    H   48 0.946
    45  C   3.945        O   46 1.670    N   50 1.257    C   44 0.959
    46  O   1.973        C   45 1.670    N   50 0.187
    47  H   0.971        N   43 0.953
    48  H   0.998        C   44 0.946
    49  H   0.995        C   44 0.970
    50  N   3.436        C   45 1.257    C   51 0.988    H   55 0.922    O   46 0.187
    51  C   3.970        C   54 0.992    N   50 0.988    H   56 0.944    C   52 0.934
    52  C   3.951        O   53 1.593    N   60 1.327    C   51 0.934
    53  O   1.958        C   52 1.593    N   60 0.192
    54  C   3.985        C   51 0.992    H   57 0.979    H   59 0.973    H   58 0.969
    55  H   0.966        N   50 0.922
    56  H   0.992        C   51 0.944
    57  H   0.995        C   54 0.979
    58  H   0.993        C   54 0.969
    59  H   0.997        C   54 0.973
    60  N   3.493        C   52 1.327    C   61 0.962    H   68 0.929    O   53 0.192
    61  C   3.948        C   64 0.972    N   60 0.962    H   69 0.943    C   62 0.933
    62  C   3.945        O   63 1.615    N   79 1.321    C   61 0.933
    63  O   1.955        C   62 1.615    N   79 0.200
    64  C   3.980        C   65 0.992    C   61 0.972    H   70 0.963    H   71 0.960
    65  C   3.994        C   66 1.009    C   67 1.008    C   64 0.992    H   72 0.969
    66  C   3.994        C   65 1.009    H   75 0.982    H   74 0.981    H   73 0.976
    67  C   3.993        C   65 1.008    H   76 0.986    H   77 0.985    H   78 0.982
    68  H   0.963        N   60 0.929
    69  H   0.991        C   61 0.943
    70  H   0.994        C   64 0.963
    71  H   0.994        C   64 0.960
    72  H   1.000        C   65 0.969
    73  H   0.998        C   66 0.976
    74  H   0.999        C   66 0.981
    75  H   0.996        C   66 0.982
    76  H   0.998        C   67 0.986
    77  H   0.997        C   67 0.985
    78  H   0.997        C   67 0.982
    79  N   3.484        C   62 1.321    C   80 0.992    H   87 0.868    O   63 0.200
    80  C   3.969        N   79 0.992    C   83 0.965    H   88 0.947    C   81 0.937
    81  C   3.947        O   82 1.625    N   98 1.300    C   80 0.937
    82  O   1.966        C   81 1.625    N   98 0.192
    83  C   3.989        C   84 0.993    H   90 0.971    C   80 0.965    H   89 0.958
    84  C   3.993        C   85 1.009    C   86 1.006    C   83 0.993    H   91 0.964
    85  C   3.996        C   84 1.009    H   92 0.984    H   93 0.983    H   94 0.979
    86  C   3.994        C   84 1.006    H   95 0.984    H   97 0.983    H   96 0.981
    87  H   0.945        N   79 0.868
    88  H   0.993        C   80 0.947
    89  H   0.997        C   83 0.958
    90  H   0.997        C   83 0.971
    91  H   0.998        C   84 0.964
    92  H   0.998        C   85 0.984
    93  H   0.999        C   85 0.983
    94  H   0.998        C   85 0.979
    95  H   0.998        C   86 0.984
    96  H   0.998        C   86 0.981
    97  H   0.998        C   86 0.983
    98  N   3.473        C   81 1.300    C   99 0.980    H  105 0.923    O   82 0.192
    99  C   3.961        N   98 0.980    C  102 0.953    H  106 0.953    C  100 0.939
   100  C   3.949        O  101 1.628    N  114 1.300    C   99 0.939
   101  O   1.959        C  100 1.628    N  114 0.197
   102  C   3.987        C  103 1.010    C  104 1.008    H  107 0.964    C   99 0.953
   103  C   3.992        C  102 1.010    H  110 0.984    H  108 0.982    H  109 0.981
   104  C   3.993        C  102 1.008    H  112 0.986    H  113 0.984    H  111 0.983
   105  H   0.959        N   98 0.923
   106  H   0.995        C   99 0.953
   107  H   0.995        C  102 0.964
   108  H   0.996        C  103 0.982
   109  H   0.997        C  103 0.981
   110  H   0.998        C  103 0.984
   111  H   0.995        C  104 0.983
   112  H   0.999        C  104 0.986
   113  H   0.998        C  104 0.984
   114  N   3.483        C  100 1.300    C  115 0.973    H  121 0.920    O  101 0.197
   115  C   3.958        N  114 0.973    C  116 0.963    H  122 0.953    C  118 0.948
   116  C   3.900        O  117 1.915    C  115 0.963    H  413 0.954
   117  O   2.057        C  116 1.915
   118  C   3.987        C  119 1.012    C  120 1.007    H  123 0.957    C  115 0.948
   119  C   3.993        C  118 1.012    H  126 0.982    H  124 0.981    H  125 0.981
   120  C   3.993        C  118 1.007    H  128 0.985    H  129 0.984    H  127 0.984
   121  H   0.957        N  114 0.920
   122  H   0.993        C  115 0.953
   123  H   0.997        C  118 0.957
   124  H   0.997        C  119 0.981
   125  H   0.998        C  119 0.981
   126  H   0.997        C  119 0.982
   127  H   0.996        C  120 0.984
   128  H   0.998        C  120 0.985
   129  H   0.998        C  120 0.984
   130  N   2.996        C  131 1.005    H  414 0.961    H  138 0.949
   131  C   3.982        N  130 1.005    C  132 0.976    C  134 0.966    H  139 0.955
   132  C   3.886        O  133 1.881    C  131 0.976    H  415 0.953
   133  O   2.028        C  132 1.881
   134  C   3.988        C  135 0.994    H  141 0.973    C  131 0.966    H  140 0.959
   135  C   3.995        C  137 1.010    C  136 1.007    C  134 0.994    H  142 0.964
   136  C   3.995        C  135 1.007    H  143 0.984    H  144 0.982    H  145 0.982
   137  C   3.995        C  135 1.010    H  147 0.986    H  146 0.985    H  148 0.980
   138  H   0.970        N  130 0.949
   139  H   0.999        C  131 0.955
   140  H   0.995        C  134 0.959
   141  H   0.998        C  134 0.973
   142  H   0.999        C  135 0.964
   143  H   0.997        C  136 0.984
   144  H   0.998        C  136 0.982
   145  H   0.998        C  136 0.982
   146  H   0.998        C  137 0.985
   147  H   0.999        C  137 0.986
   148  H   0.999        C  137 0.980
   149  N   3.070        C  150 1.010    C  155 1.007    H  416 0.959
   150  C   3.986        N  149 1.010    C  153 0.976    H  156 0.957    C  151 0.931
   151  C   3.932        O  152 1.680    N  163 1.247    C  150 0.931
   152  O   1.984        C  151 1.680    N  163 0.186
   153  C   3.993        C  154 1.007    C  150 0.976    H  158 0.971    H  157 0.966
   154  C   3.996        C  153 1.007    C  155 1.004    H  159 0.981    H  160 0.973
   155  C   3.985        N  149 1.007    C  154 1.004    H  161 0.974    H  162 0.971
   156  H   0.999        C  150 0.957
   157  H   0.997        C  153 0.966
   158  H   0.997        C  153 0.971
   159  H   0.999        C  154 0.981
   160  H   0.997        C  154 0.973
   161  H   1.000        C  155 0.974
   162  H   0.999        C  155 0.971
   163  N   3.422        C  151 1.247    C  164 0.992    H  170 0.921    O  152 0.186
   164  C   3.970        N  163 0.992    C  167 0.955    H  171 0.951    C  165 0.927
   165  C   3.951        O  166 1.651    N  177 1.288    C  164 0.927
   166  O   1.976        C  165 1.651    N  177 0.192
   167  C   3.961        C  169 1.003    O  168 0.995    H  172 0.956    C  164 0.955
   168  O   1.934        C  167 0.995    H  173 0.860
   169  C   3.989        C  167 1.003    H  175 0.984    H  176 0.983    H  174 0.978
   170  H   0.957        N  163 0.921
   171  H   0.997        C  164 0.951
   172  H   0.999        C  167 0.956
   173  H   0.877        O  168 0.860
   174  H   0.993        C  169 0.978
   175  H   0.998        C  169 0.984
   176  H   0.996        C  169 0.983
   177  N   3.458        C  165 1.288    C  178 0.973    H  185 0.920    O  166 0.192
   178  C   3.951        C  181 0.982    N  177 0.973    C  179 0.936    H  186 0.920
   179  C   3.953        O  180 1.649    N  196 1.290    C  178 0.936
   180  O   1.968        C  179 1.649    N  196 0.193
   181  C   3.992        C  182 0.994    C  178 0.982    H  188 0.976    H  187 0.966
   182  C   3.992        C  184 1.010    C  183 1.006    C  181 0.994    H  189 0.960
   183  C   3.992        C  182 1.006    H  190 0.986    H  191 0.985    H  192 0.978
   184  C   3.995        C  182 1.010    H  193 0.986    H  195 0.982    H  194 0.981
   185  H   0.965        N  177 0.920
   186  H   0.989        C  178 0.920
   187  H   0.994        C  181 0.966
   188  H   0.998        C  181 0.976
   189  H   0.998        C  182 0.960
   190  H   0.999        C  183 0.986
   191  H   1.000        C  183 0.985
   192  H   1.000        C  183 0.978
   193  H   0.998        C  184 0.986
   194  H   0.999        C  184 0.981
   195  H   0.996        C  184 0.982
   196  N   3.454        C  179 1.290    C  197 0.969    H  204 0.926    O  180 0.193
   197  C   3.958        C  200 0.983    N  196 0.969    H  205 0.954    C  198 0.928
   198  C   3.951        O  199 1.646    N  215 1.296    C  197 0.928
   199  O   1.977        C  198 1.646    N  215 0.199
   200  C   3.983        C  201 0.992    C  197 0.983    H  207 0.971    H  206 0.970
   201  C   3.993        C  202 1.010    C  203 1.008    C  200 0.992    H  208 0.967
   202  C   3.993        C  201 1.010    H  211 0.984    H  209 0.984    H  210 0.983
   203  C   3.993        C  201 1.008    H  214 0.986    H  213 0.984    H  212 0.979
   204  H   0.961        N  196 0.926
   205  H   0.997        C  197 0.954
   206  H   0.996        C  200 0.970
   207  H   0.996        C  200 0.971
   208  H   0.999        C  201 0.967
   209  H   0.996        C  202 0.984
   210  H   0.999        C  202 0.983
   211  H   0.997        C  202 0.984
   212  H   0.997        C  203 0.979
   213  H   0.997        C  203 0.984
   214  H   0.998        C  203 0.986
   215  N   3.476        C  198 1.296    C  216 0.987    H  220 0.919    O  199 0.199
   216  C   3.966        N  215 0.987    C  217 0.985    C  219 0.958    H  221 0.941
   217  C   3.898        O  218 1.898    C  216 0.985    H  417 0.951
   218  O   2.053        C  217 1.898
   219  C   3.981        H  224 0.985    H  222 0.979    H  223 0.974    C  216 0.958
   220  H   0.957        N  215 0.919
   221  H   0.990        C  216 0.941
   222  H   0.993        C  219 0.979
   223  H   0.994        C  219 0.974
   224  H   0.996        C  219 0.985
   225  N   3.008        C  226 1.032    H  236 0.956    H  418 0.946
   226  C   3.987        N  225 1.032    C  227 0.983    C  229 0.948    H  237 0.943
   227  C   3.898        O  228 1.894    C  226 0.983    H  419 0.955
   228  O   2.038        C  227 1.894
   229  C   3.992        C  230 1.006    H  238 0.974    H  239 0.973    C  226 0.948
   230  C   3.986        C  229 1.006    C  231 0.998    H  241 0.960    H  240 0.955
   231  C   3.952        C  230 0.998    N  232 0.985    H  242 0.959    H  243 0.957
   232  N   3.494        C  233 1.340    C  231 0.985    H  244 0.908    N  235 0.103    N  234 0.102
   233  C   3.978        N  232 1.340    N  235 1.309    N  234 1.291
   234  N   3.370        C  233 1.291    H  246 0.922    H  245 0.920    N  232 0.102
   235  N   3.379        C  233 1.309    H  247 0.919    H  248 0.879    N  232 0.103
   236  H   0.974        N  225 0.956
   237  H   0.995        C  226 0.943
   238  H   0.998        C  229 0.974
   239  H   0.996        C  229 0.973
   240  H   0.992        C  230 0.955
   241  H   0.995        C  230 0.960
   242  H   0.992        C  231 0.959
   243  H   0.992        C  231 0.957
   244  H   0.946        N  232 0.908
   245  H   0.942        N  234 0.920
   246  H   0.944        N  234 0.922
   247  H   0.950        N  235 0.919
   248  H   0.941        N  235 0.879
   249  N   2.986        C  250 1.014    H  420 0.955    H  255 0.940
   250  C   3.987        N  249 1.014    C  251 0.977    C  253 0.962    H  256 0.951
   251  C   3.892        O  252 1.900    C  250 0.977    H  421 0.952
   252  O   2.046        C  251 1.900
   253  C   3.963        O  254 1.005    H  258 0.973    H  257 0.969    C  250 0.962
   254  O   1.934        C  253 1.005    H  259 0.864
   255  H   0.963        N  249 0.940
   256  H   0.997        C  250 0.951
   257  H   0.999        C  253 0.969
   258  H   0.999        C  253 0.973
   259  H   0.878        O  254 0.864
   260  N   2.998        C  261 1.018    H  267 0.958    H  422 0.947
   261  C   3.982        N  260 1.018    C  262 0.985    H  268 0.951    C  264 0.934
   262  C   3.899        O  263 1.882    C  261 0.985    H  423 0.956
   263  O   2.040        C  262 1.882
   264  C   3.993        C  265 1.009    C  266 1.006    H  269 0.969    C  261 0.934
   265  C   3.993        C  264 1.009    H  271 0.985    H  270 0.985    H  272 0.982
   266  C   3.993        C  264 1.006    H  274 0.983    H  275 0.982    H  273 0.976
   267  H   0.977        N  260 0.958
   268  H   0.994        C  261 0.951
   269  H   0.999        C  264 0.969
   270  H   0.998        C  265 0.985
   271  H   0.998        C  265 0.985
   272  H   0.996        C  265 0.982
   273  H   0.996        C  266 0.976
   274  H   0.997        C  266 0.983
   275  H   0.998        C  266 0.982
   276  N   2.997        C  277 1.026    H  287 0.957    H  424 0.952
   277  C   3.984        N  276 1.026    C  278 0.981    C  280 0.969    H  288 0.921
   278  C   3.893        O  279 1.889    C  277 0.981    H  425 0.954
   279  O   2.035        C  278 1.889
   280  C   3.991        C  281 1.007    H  289 0.975    C  277 0.969    H  290 0.966
   281  C   3.991        C  280 1.007    C  282 0.988    H  292 0.975    H  291 0.971
   282  C   3.952        C  281 0.988    N  283 0.987    H  293 0.969    H  294 0.958
   283  N   3.458        C  284 1.304    C  282 0.987    H  295 0.917
   284  C   3.977        N  286 1.329    N  285 1.314    N  283 1.304
   285  N   3.392        C  284 1.314    H  296 0.919    H  297 0.917    N  286 0.104
   286  N   3.413        C  284 1.329    H  299 0.920    H  298 0.911    N  285 0.104
   287  H   0.974        N  276 0.957
   288  H   0.993        C  277 0.921
   289  H   0.997        C  280 0.975
   290  H   0.995        C  280 0.966
   291  H   0.996        C  281 0.971
   292  H   0.996        C  281 0.975
   293  H   0.991        C  282 0.969
   294  H   0.993        C  282 0.958
   295  H   0.946        N  283 0.917
   296  H   0.939        N  285 0.919
   297  H   0.937        N  285 0.917
   298  H   0.945        N  286 0.911
   299  H   0.940        N  286 0.920
   300  N   3.000        C  301 1.022    H  308 0.954    H  426 0.952
   301  C   3.983        N  300 1.022    C  304 0.962    H  309 0.955    C  302 0.944
   302  C   3.940        O  303 1.639    N  319 1.282    C  301 0.944
   303  O   1.984        C  302 1.639    N  319 0.190
   304  C   3.993        C  305 0.996    H  311 0.975    H  310 0.970    C  301 0.962
   305  C   3.995        C  307 1.009    C  306 1.008    C  304 0.996    H  312 0.965
   306  C   3.996        C  305 1.008    H  313 0.985    H  315 0.985    H  314 0.979
   307  C   3.996        C  305 1.009    H  316 0.987    H  317 0.985    H  318 0.979
   308  H   0.976        N  300 0.954
   309  H   0.997        C  301 0.955
   310  H   0.998        C  304 0.970
   311  H   0.998        C  304 0.975
   312  H   0.999        C  305 0.965
   313  H   0.998        C  306 0.985
   314  H   0.999        C  306 0.979
   315  H   0.998        C  306 0.985
   316  H   0.999        C  307 0.987
   317  H   0.998        C  307 0.985
   318  H   0.999        C  307 0.979
   319  N   3.451        C  302 1.282    C  320 0.990    H  326 0.903    O  303 0.190
   320  C   3.970        N  319 0.990    H  327 0.951    C  321 0.949    C  323 0.942
   321  C   3.948        O  322 1.604    N  335 1.309    C  320 0.949
   322  O   1.986        C  321 1.604    N  335 0.189
   323  C   3.989        C  324 1.010    C  325 1.007    H  328 0.955    C  320 0.942
   324  C   3.992        C  323 1.010    H  331 0.985    H  329 0.980    H  330 0.976
   325  C   3.993        C  323 1.007    H  333 0.986    H  334 0.986    H  332 0.980
   326  H   0.954        N  319 0.903
   327  H   0.996        C  320 0.951
   328  H   0.998        C  323 0.955
   329  H   0.995        C  324 0.980
   330  H   0.999        C  324 0.976
   331  H   0.997        C  324 0.985
   332  H   0.996        C  325 0.980
   333  H   0.998        C  325 0.986
   334  H   0.998        C  325 0.986
   335  N   3.485        C  321 1.309    C  336 0.982    H  347 0.915    O  322 0.189
   336  C   3.962        N  335 0.982    C  339 0.951    H  348 0.948    C  337 0.948
   337  C   3.948        O  338 1.650    N  356 1.279    C  336 0.948
   338  O   1.973        C  337 1.650    N  356 0.196
   339  C   3.985        C  340 1.014    H  349 0.966    H  350 0.954    C  336 0.951
   340  C   3.988        C  341 1.409    C  342 1.400    C  339 1.014
   341  C   3.992        C  343 1.446    C  340 1.409    H  351 0.961    C  344 0.107
   342  C   3.989        C  344 1.462    C  340 1.400    H  352 0.965    C  343 0.104
   343  C   3.988        C  341 1.446    C  345 1.372    H  353 0.965    C  342 0.104
   344  C   3.988        C  342 1.462    C  345 1.362    H  354 0.968    C  341 0.107
   345  C   3.936        C  343 1.372    C  344 1.362    O  346 1.072
   346  O   2.092        C  345 1.072    H  355 0.860
   347  H   0.957        N  335 0.915
   348  H   0.993        C  336 0.948
   349  H   0.995        C  339 0.966
   350  H   0.991        C  339 0.954
   351  H   0.999        C  341 0.961
   352  H   0.998        C  342 0.965
   353  H   0.998        C  343 0.965
   354  H   0.997        C  344 0.968
   355  H   0.881        O  346 0.860
   356  N   3.460        C  337 1.279    C  357 0.978    H  364 0.920    O  338 0.196
   357  C   3.962        N  356 0.978    C  358 0.970    C  360 0.951    H  365 0.937
   358  C   3.901        O  359 1.905    C  357 0.970    H  427 0.954
   359  O   2.047        C  358 1.905
   360  C   3.982        C  362 1.007    C  361 0.988    H  366 0.966    C  357 0.951
   361  C   3.993        C  363 1.018    C  360 0.988    H  368 0.970    H  367 0.969
   362  C   3.991        C  360 1.007    H  371 0.984    H  370 0.982    H  369 0.980
   363  C   3.992        C  361 1.018    H  374 0.986    H  372 0.985    H  373 0.981
   364  H   0.962        N  356 0.920
   365  H   0.993        C  357 0.937
   366  H   0.996        C  360 0.966
   367  H   0.997        C  361 0.969
   368  H   0.998        C  361 0.970
   369  H   0.995        C  362 0.980
   370  H   0.998        C  362 0.982
   371  H   0.998        C  362 0.984
   372  H   0.998        C  363 0.985
   373  H   0.997        C  363 0.981
   374  H   0.998        C  363 0.986
   375  N   3.003        C  376 1.032    H  382 0.954    H  428 0.945
   376  C   3.987        N  375 1.032    C  377 0.993    H  383 0.941    C  379 0.911
   377  C   3.903        O  378 1.886    C  376 0.993    H  429 0.956
   378  O   2.034        C  377 1.886
   379  C   3.954        C  381 1.001    O  380 0.999    H  384 0.955    C  376 0.911
   380  O   1.952        C  379 0.999    H  385 0.874
   381  C   3.991        C  379 1.001    H  388 0.978    H  386 0.975    H  387 0.973
   382  H   0.974        N  375 0.954
   383  H   0.996        C  376 0.941
   384  H   0.998        C  379 0.955
   385  H   0.893        O  380 0.874
   386  H   0.995        C  381 0.975
   387  H   0.997        C  381 0.973
   388  H   0.997        C  381 0.978
   389  N   2.991        C  390 1.003    H  430 0.954    H  397 0.922
   390  C   3.983        N  389 1.003    C  393 0.985    C  391 0.968    H  398 0.946
   391  C   3.892        O  392 1.907    C  390 0.968    H  431 0.957
   392  O   2.050        C  391 1.907
   393  C   3.995        C  394 0.994    C  390 0.985    H  399 0.973    H  400 0.968
   394  C   3.995        C  395 1.010    C  396 1.010    C  393 0.994    H  401 0.965
   395  C   3.996        C  394 1.010    H  403 0.985    H  404 0.981    H  402 0.980
   396  C   3.995        C  394 1.010    H  405 0.985    H  407 0.981    H  406 0.980
   397  H   0.970        N  389 0.922
   398  H   0.997        C  390 0.946
   399  H   0.999        C  393 0.973
   400  H   0.998        C  393 0.968
   401  H   0.997        C  394 0.965
   402  H   0.998        C  395 0.980
   403  H   0.999        C  395 0.985
   404  H   1.000        C  395 0.981
   405  H   0.998        C  396 0.985
   406  H   0.999        C  396 0.980
   407  H   0.998        C  396 0.981
   408  H   0.964        N    1 0.954
   409  H   0.992        C   15 0.951
   410  H   0.967        N   24 0.950
   411  H   0.995        C   26 0.955
   412  H   0.972        N   43 0.953
   413  H   0.994        C  116 0.954
   414  H   0.972        N  130 0.961
   415  H   0.994        C  132 0.953
   416  H   0.974        N  149 0.959
   417  H   0.991        C  217 0.951
   418  H   0.964        N  225 0.946
   419  H   0.996        C  227 0.955
   420  H   0.965        N  249 0.955
   421  H   0.994        C  251 0.952
   422  H   0.965        N  260 0.947
   423  H   0.996        C  262 0.956
   424  H   0.965        N  276 0.952
   425  H   0.995        C  278 0.954
   426  H   0.967        N  300 0.952
   427  H   0.995        C  358 0.954
   428  H   0.964        N  375 0.945
   429  H   0.996        C  377 0.956
   430  H   0.970        N  389 0.954
   431  H   0.997        C  391 0.957
 
molecular dipole:
                 x           y           z       tot (Debye)
 q only:      101.034      65.541      21.448
   full:      100.884      66.895      23.373     313.362
molecular quadrupole (traceless):
                xx          xy          yy          xz          yz          zz
 q only:     7577.805   10142.978    -109.264    4141.581    2220.755   -7468.541
  q+dip:     7384.607   10242.756      -7.250    4329.735    2515.000   -7377.356
   full:     7385.206   10247.626      -9.438    4324.196    2518.125   -7375.768


           -------------------------------------------------
          | TOTAL ENERGY             -613.498699120773 Eh   |
          | GRADIENT NORM               0.766909607046 Eh/α |
          | HOMO-LUMO GAP               1.041285362933 eV   |
           -------------------------------------------------

------------------------------------------------------------------------
 * finished run on 2019/05/31 at 06:33:54.708     
------------------------------------------------------------------------
 total:
 * wall-time:     0 d,  0 h,  0 min, 15.855 sec
 *  cpu-time:     0 d,  0 h,  0 min, 31.245 sec
 * ratio c/w:     1.971 speedup
 SCF:
 * wall-time:     0 d,  0 h,  0 min, 14.862 sec
 *  cpu-time:     0 d,  0 h,  0 min, 29.432 sec
 * ratio c/w:     1.980 speedup

