      -----------------------------------------------------------      
     |                   =====================                   |     
     |                           x T B                           |     
     |                   =====================                   |     
     |                         S. Grimme                         |     
     |          Mulliken Center for Theoretical Chemistry        |     
     |                    University of Bonn                     |     
     |                Version 6.1 RC1 (SAW190329)                |     
      -----------------------------------------------------------      

   This program is distributed in the hope that it will be useful,
   but WITHOUT ANY WARRANTY; without even the implied warranty of
   MERCHANTABILITY or FITNESS FOR A PARTICULAR PURPOSE.
   
   FOR NON-COMMERCIAL, ACADEMIA USE ONLY.
   
   Cite this work as:
   S. Grimme, C. Bannwarth, P. Shushkov, J. Comput. Theory Chem., 2017,
   13, 1989-2009. DOI: 10.1021/acs.jctc.7b00118
   C. Bannwarth, S. Ehlert and S. Grimme., J. Comput. Theory Chem., 2019,
   just accepted. DOI: 10.1021/acs.jctc.8b01176
   
   for sTDA-xTB:
   S. Grimme and C. Bannwarth, J. Chem. Phys., 2016, 145, 054103.
   DOI: 10.1063/1.4959605
   
   in the mass-spec context:
   V. Asgeirsson, C. Bauer and S. Grimme, Chem. Sci., 2017, 8, 4879.
   DOI: 10.1039/c7sc00601b
   
   for metadynamics refer to:
   S. Grimme, ChemRxiv, Preprint. DOI: 10.26434/chemrxiv.7660532.v1
   
   with help from (in alphabetical order)
   C. Bannwarth, F. Bohle, G. Brandenburg, E. Caldeweyher, M. Checinski,
   S. Dohm, S. Ehlert, S. Ehrlich, F. März, H. Neugebauer, J. Pisarek,
   P. Pracht, P. Shushkov, and S. Spicher.
   
 * started run on 2019/05/31 at 05:35:09.072     

           -------------------------------------------------
          |                Calculation Setup                |
           -------------------------------------------------

          program call               : /home/lum/install/xtb/xtb-190329/bin/xtb xtb_tmp.xyz --chrg 0 --grad --gfn 2 --etemp 500 --acc 0.1 --gbsa h2o --parallel 2
          hostname                   : cpu02
          coordinate file            : xtb_tmp.xyz
          omp threads                :                     2
          number of atoms            :                   342
          number of electrons        :                   926
          charge                     :                     0
          spin                       :                   0.0
          first test random number   :      0.44772006387646


molecular fragmentation (1/2 indicates fragments):
111111111111111111111111111111111111111111111111111111111111111111111111
111111111111111111111111222222222222222222222222222222222222222222222222
222222222222222222222222222222222222222222222222222222222222222222222222
222222222222222222222222222222222222222222222222222222222222222222222222
222222222222222222222222222222222222222211222222222222
# atoms in fragment 1/2:    98   244
 fragment masses (1/2) :      695.77     1653.00
CMA distance (Bohr)    :  11.349
constraining FC (au)   :  0.0500

########################################################################
# WARNING! Please study the warnings concerning your input carefully
#  - XTBPATH is not set, using XTBHOME instead
#  - Process number higher than OMP_NUM_THREADS, I hope you know what you are doing.
########################################################################

           ------------------------------------------------- 
          |                 G F N 2 - x T B                 |
          | Geometry, Frequencies, Noncovalent interactions |
          |            JCTC 2018 parametrisation            |
           ------------------------------------------------- 
 
             k(s)              :                1.8500
             k(p)              :                2.2300
             k(d)              :                2.2300
             k(f)              :                2.0000
             kEN (H0ij)        :               -2.0000
             D4 a1             :                0.5200
             D4 a2             :                5.0000
             D4 s6             :                1.0000
             D4 s8             :                2.7000
             D4 s9             :                5.0000
             alphaj            :                2.0000

  Z AO/shell   Hii/eV     exponent
  1     Wed Apr 25 08:07:45 CEST 2018   EN: 2.200 GM2: 0.406  GM3: 0.0800  RAES: 1.40
     1s    -10.707211    1.230000
  6     Wed Apr 25 08:07:45 CEST 2018   EN: 2.550 GM2: 0.538  GM3: 0.1500  RAES: 3.00
     2s    -13.970922    2.096432
     2p    -10.063292    1.800000
  7     Wed Apr 25 08:07:45 CEST 2018   EN: 3.040 GM2: 0.461  GM3:-0.0640  RAES: 1.90
     2s    -16.686243    2.339881
     2p    -12.523956    2.014332
  8     Wed Apr 25 08:07:45 CEST 2018   EN: 3.440 GM2: 0.452  GM3:-0.0517  RAES: 1.80
     2s    -20.229985    2.439742
     2p    -15.503117    2.137023
 16     Tue Apr 24 11:44:34 CEST 2018   EN: 2.580 GM2: 0.340  GM3:-0.0502  RAES: 3.10
     3s    -20.029654    1.981333
     3p    -11.377694    2.025643
     3d     -0.420282    1.702555

 Solvent             : h2o
 Using internal parameter file: .param_gbsa2_h2o
 Gsolv ref. state (COSMO-RS): gsolv [1 M gas/solution]
 temperature (mdtemp)       :    298.150000000000     
 dielectric constant        :    80.2000000000000     
 rho                        :    1.00000000000000     
 mass                       :    18.0000000000000     
 surface tension            :    15.5689454083859     
 probe radius               :   0.975313790000000     
 vdW radii scaling          :    1.00000000000000     
 Gshift (Eh)                :   1.857443126794793E-003
 c1                         :    1.55243817000000     
 soset                      :   0.130326360000000     
 HB correction              :  T
 Number of grid points      :          230

            Z     q(EN)     CN     RAES       Cart. coordinates
     1  N   5.0   -0.68    3.00    1.93   326.14909   127.76696   173.40705
     2  C   4.0    0.07    3.98    3.59   328.18905   129.00479   172.07622
     3  C   4.0    0.28    3.01    3.02   330.00219   126.98943   171.04162
     4  O   6.0   -0.39    1.00    1.80   330.35571   124.98479   172.13740
     5  C   4.0   -0.13    3.99    3.60   329.72386   130.70330   173.86272
     6  C   4.0   -0.05    3.03    3.02   328.57357   133.28083   174.16971
     7  C   4.0   -0.11    3.03    3.02   326.78128   133.76819   176.02832
     8  C   4.0   -0.11    3.03    3.02   329.29327   135.23944   172.57936
     9  C   4.0   -0.08    3.03    3.02   325.74341   136.14867   176.30648
    10  C   4.0   -0.10    3.03    3.02   328.30865   137.63982   172.86739
    11  C   4.0    0.10    3.03    3.02   326.52258   138.11242   174.73571
    12  O   6.0   -0.47    1.99    1.83   325.53824   140.45389   175.09563
    13  H   1.0    0.26    1.00    1.43   326.29357   127.68659   175.31799
    14  H   1.0    0.11    0.99    1.43   327.42924   130.11484   170.50015
    15  H   1.0    0.11    0.99    1.43   329.84629   129.76135   175.69308
    16  H   1.0    0.12    0.99    1.43   331.62592   130.89003   173.07898
    17  H   1.0    0.11    0.99    1.43   326.20135   132.25715   177.27231
    18  H   1.0    0.11    1.00    1.43   330.65744   134.89903   171.10015
    19  H   1.0    0.13    0.99    1.43   324.29256   136.53151   177.69122
    20  H   1.0    0.11    0.99    1.43   328.92832   139.15002   171.63563
    21  H   1.0    0.25    0.99    1.43   326.18271   141.58244   173.80900
    22  N   5.0   -0.49    3.01    1.93   331.18310   127.63730   168.90243
    23  C   4.0    0.07    3.99    3.61   333.42985   126.29610   168.07424
    24  C   4.0    0.27    3.01    3.02   335.58920   127.19515   169.79540
    25  O   6.0   -0.44    1.00    1.80   335.73520   129.41329   170.45790
    26  C   4.0   -0.15    3.98    3.59   333.90681   126.87033   165.28610
    27  C   4.0   -0.17    3.98    3.59   336.19158   125.47400   164.20982
    28  C   4.0   -0.16    3.98    3.59   336.49321   126.06877   161.39717
    29  C   4.0   -0.06    3.98    3.58   338.75483   124.66926   160.28729
    30  N   5.0   -0.73    3.98    2.82   339.03650   125.27667   157.55367
    31  H   1.0    0.23    1.00    1.43   330.93757   129.39341   168.17298
    32  H   1.0    0.13    0.99    1.43   333.09734   124.27737   168.37993
    33  H   1.0    0.11    0.99    1.43   332.20201   126.34949   164.24998
    34  H   1.0    0.11    0.99    1.43   334.14163   128.91159   165.09579
    35  H   1.0    0.13    0.99    1.43   337.89122   126.03169   165.23642
    36  H   1.0    0.11    0.99    1.43   335.92470   123.44663   164.46375
    37  H   1.0    0.10    0.99    1.43   334.75974   125.51790   160.42753
    38  H   1.0    0.11    0.99    1.43   336.72622   128.10505   161.17823
    39  H   1.0    0.11    0.99    1.43   340.47411   125.21639   161.28331
    40  H   1.0    0.11    0.99    1.43   338.48837   122.63730   160.49881
    41  H   1.0    0.24    1.00    1.43   340.55059   124.32195   156.78724
    42  H   1.0    0.24    1.00    1.43   337.41664   124.77699   156.59130
    43  H   1.0    0.24    1.00    1.43   339.31624   127.19106   157.32177
    44  N   5.0   -0.49    3.01    1.93   337.19107   125.40752   170.58217
    45  C   4.0    0.08    4.00    3.61   339.12707   125.86980   172.45635
    46  C   4.0    0.27    3.01    3.02   341.72996   125.65144   171.21066
    47  O   6.0   -0.41    1.00    1.80   342.15163   124.16394   169.49722
    48  C   4.0   -0.09    3.98    3.58   338.85727   123.97063   174.65296
    49  C   4.0   -0.22    3.98    3.59   340.88582   124.41106   176.65391
    50  C   4.0   -0.21    3.98    3.59   336.23811   124.20313   175.84510
    51  H   1.0    0.24    1.00    1.43   337.05351   123.61719   169.94213
    52  H   1.0    0.14    0.99    1.43   338.85884   127.79994   173.15010
    53  H   1.0    0.13    0.99    1.43   339.09405   122.06643   173.87684
    54  H   1.0    0.11    0.99    1.43   340.57531   123.15533   178.24938
    55  H   1.0    0.13    0.99    1.43   342.77035   124.03809   175.92212
    56  H   1.0    0.11    0.99    1.43   340.81353   126.34808   177.33832
    57  H   1.0    0.11    0.99    1.43   336.01941   122.80342   177.33143
    58  H   1.0    0.11    0.99    1.43   336.02043   126.06632   176.68174
    59  H   1.0    0.14    0.99    1.43   334.73434   123.92841   174.47139
    60  N   5.0   -0.49    3.01    1.93   343.45438   127.25602   172.13455
    61  C   4.0    0.08    3.99    3.60   346.04940   127.35892   171.29084
    62  C   4.0    0.28    3.01    3.02   347.63716   128.47180   173.42659
    63  O   6.0   -0.46    1.00    1.80   346.64648   129.48176   175.26211
    64  C   4.0    0.00    3.98    3.59   346.23176   129.04984   168.91879
    65  O   6.0   -0.48    1.99    1.82   345.59914   131.57076   169.44396
    66  H   1.0    0.28    1.00    1.43   343.00737   128.51821   173.50400
    67  H   1.0    0.13    0.99    1.43   346.70972   125.45144   170.83405
    68  H   1.0    0.12    0.99    1.43   348.16047   129.05815   168.18478
    69  H   1.0    0.13    0.99    1.43   344.95633   128.25666   167.48726
    70  H   1.0    0.31    0.99    1.43   344.08011   131.59298   170.48537
    71  N   5.0   -0.47    3.01    1.93   350.13089   128.39303   173.06600
    72  C   4.0    0.08    4.00    3.62   351.88951   129.11396   175.02000
    73  C   4.0    0.27    3.01    3.02   354.45920   129.66610   173.82431
    74  O   6.0   -0.38    1.00    1.80   355.12320   128.71748   171.82764
    75  C   4.0   -0.10    3.98    3.59   352.16242   126.98952   176.97907
    76  C   4.0    0.32    3.00    3.02   353.13540   124.55990   175.72681
    77  O   6.0   -0.39    1.00    1.80   355.42617   124.02170   176.07858
    78  O   6.0   -0.42    1.00    1.80   351.64446   123.23113   174.49385
    79  H   1.0    0.27    1.00    1.43   350.87496   127.35497   171.64632
    80  H   1.0    0.14    0.99    1.43   351.16256   130.81462   175.94977
    81  H   1.0    0.10    0.99    1.43   353.47439   127.56400   178.44885
    82  H   1.0    0.12    0.99    1.43   350.31014   126.61905   177.80837
    83  N   5.0   -0.48    3.01    1.93   355.84387   131.27435   175.19968
    84  C   4.0    0.08    3.98    3.59   358.30326   132.22098   174.47148
    85  C   4.0    0.07    3.00    3.02   360.14301   131.87714   176.67053
    86  O   6.0   -0.48    1.00    1.80   359.58777   132.54447   178.81483
    87  C   4.0    0.05    3.98    3.58   358.11413   135.07708   173.77363
    88  O   6.0   -0.48    1.99    1.82   357.00689   136.51549   175.70404
    89  C   4.0   -0.20    3.98    3.59   356.69178   135.37717   171.27482
    90  H   1.0    0.28    1.00    1.43   355.09057   131.99623   176.81073
    91  H   1.0    0.13    0.99    1.43   358.91167   131.15267   172.81402
    92  H   1.0    0.12    0.99    1.43   360.04171   135.81289   173.57902
    93  H   1.0    0.30    0.99    1.43   355.43287   135.73003   176.25088
    94  H   1.0    0.11    0.99    1.43   356.57657   137.36787   170.79471
    95  H   1.0    0.11    0.99    1.43   357.67805   134.39184   169.76904
    96  H   1.0    0.14    0.99    1.43   354.79769   134.59470   171.43396
    97  N   5.0   -0.70    3.00    1.93   364.84307   133.03798   181.78122
    98  C   4.0    0.06    3.98    3.58   365.18002   135.32380   183.25969
    99  C   4.0    0.08    3.00    3.02   367.41694   134.91384   185.05424
   100  O   6.0   -0.39    1.00    1.80   367.18820   133.82652   187.08757
   101  C   4.0   -0.20    3.98    3.59   362.78599   135.93457   184.74533
   102  H   1.0    0.28    1.00    1.43   364.39726   131.43628   182.75186
   103  H   1.0    0.11    0.99    1.43   365.61049   136.83255   181.91158
   104  H   1.0    0.10    0.99    1.43   362.99702   137.73654   185.70370
   105  H   1.0    0.11    0.99    1.43   361.18460   136.00819   183.46409
   106  H   1.0    0.14    0.99    1.43   362.46719   134.47218   186.15263
   107  N   5.0   -0.70    3.00    1.93   359.31267   129.03202   186.06987
   108  C   4.0    0.09    3.99    3.60   358.26102   130.19332   183.84347
   109  C   4.0    0.27    3.01    3.02   356.44208   132.32341   184.53266
   110  O   6.0   -0.45    1.00    1.80   355.31076   132.41284   186.54703
   111  C   4.0   -0.08    3.98    3.59   356.82967   128.24966   182.19145
   112  C   4.0   -0.21    3.98    3.59   358.60992   126.18605   181.25350
   113  C   4.0   -0.21    3.98    3.59   354.59520   127.10622   183.60929
   114  H   1.0    0.32    1.00    1.43   358.08645   128.60757   187.48112
   115  H   1.0    0.13    0.99    1.43   359.82214   130.96270   182.73003
   116  H   1.0    0.13    0.99    1.43   356.14060   129.30308   180.54913
   117  H   1.0    0.14    0.99    1.43   357.70525   125.11784   179.75199
   118  H   1.0    0.12    0.99    1.43   360.32737   127.01315   180.49448
   119  H   1.0    0.11    0.99    1.43   359.12278   124.90574   182.77587
   120  H   1.0    0.10    0.99    1.43   353.65007   125.70755   182.43924
   121  H   1.0    0.13    0.99    1.43   355.23117   126.19690   185.33889
   122  H   1.0    0.13    0.99    1.43   353.21532   128.54994   184.09348
   123  N   5.0   -0.50    3.02    1.93   356.18431   134.04198   182.69862
   124  C   4.0    0.07    3.99    3.60   354.26960   136.00130   182.62087
   125  C   4.0    0.28    3.01    3.02   352.28128   135.05344   180.74985
   126  O   6.0   -0.47    1.00    1.80   352.85859   134.32787   178.61119
   127  C   4.0   -0.14    3.98    3.59   355.54313   138.49501   181.87037
   128  C   4.0   -0.17    3.98    3.58   353.84588   140.82189   182.08606
   129  C   4.0   -0.13    3.98    3.59   351.95948   141.16756   179.92990
   130  C   4.0   -0.04    3.98    3.58   353.21752   141.77306   177.41359
   131  N   5.0   -0.71    3.98    2.80   351.27597   142.05885   175.41536
   132  H   1.0    0.29    1.00    1.43   357.16786   133.79090   181.07471
   133  H   1.0    0.14    0.99    1.43   353.42265   136.14395   184.50073
   134  H   1.0    0.10    0.99    1.43   357.13138   138.73303   183.16428
   135  H   1.0    0.13    0.99    1.43   356.30672   138.30390   179.96707
   136  H   1.0    0.13    0.99    1.43   352.78243   140.72854   183.84994
   137  H   1.0    0.10    0.99    1.43   355.05410   142.48835   182.17202
   138  H   1.0    0.17    0.99    1.43   350.81130   139.47392   179.72202
   139  H   1.0    0.13    0.99    1.43   350.69089   142.70495   180.45341
   140  H   1.0    0.12    0.99    1.43   354.27752   143.53484   177.54448
   141  H   1.0    0.13    0.99    1.43   354.50338   140.25115   176.88009
   142  H   1.0    0.26    1.00    1.43   352.11631   142.18157   173.67913
   143  H   1.0    0.30    1.00    1.43   350.02740   140.56472   175.42143
   144  H   1.0    0.31    0.99    1.43   350.18777   143.77002   175.62947
   145  N   5.0   -0.48    3.01    1.93   349.93769   134.91313   181.65276
   146  C   4.0    0.08    3.99    3.61   347.87192   133.81987   180.22921
   147  C   4.0    0.29    3.01    3.02   346.78458   135.73851   178.34516
   148  O   6.0   -0.45    1.00    1.80   346.98346   138.01731   178.69309
   149  C   4.0   -0.13    4.00    3.63   345.74362   133.00667   182.01134
   150  C   4.0   -0.13    3.98    3.58   346.57112   131.05779   183.96535
   151  S   6.0   -0.17    2.01    3.10   347.96324   128.20438   182.59358
   152  C   4.0   -0.20    3.98    3.58   345.24247   126.99725   180.89734
   153  H   1.0    0.27    1.00    1.43   349.57325   135.59466   183.40462
   154  H   1.0    0.14    0.99    1.43   348.59179   132.17532   179.19647
   155  H   1.0    0.11    0.99    1.43   345.05777   134.67830   183.01037
   156  H   1.0    0.12    0.99    1.43   344.20537   132.24367   180.86999
   157  H   1.0    0.14    0.99    1.43   348.02434   131.81649   185.21045
   158  H   1.0    0.11    0.99    1.43   344.95699   130.45098   185.09061
   159  H   1.0    0.12    0.99    1.43   345.61115   125.01365   180.52532
   160  H   1.0    0.11    0.99    1.43   343.57155   127.19158   182.06950
   161  H   1.0    0.14    0.99    1.43   345.03831   128.00140   179.11892
   162  N   5.0   -0.48    3.01    1.93   345.52549   134.73956   176.40403
   163  C   4.0    0.10    3.99    3.61   344.06634   136.26317   174.66360
   164  C   4.0    0.26    3.01    3.02   341.73797   134.74911   173.84651
   165  O   6.0   -0.45    1.00    1.80   341.90225   132.49684   173.31165
   166  C   4.0    0.00    3.98    3.58   345.55993   136.97111   172.27273
   167  O   6.0   -0.47    1.99    1.82   347.52528   138.66740   172.88483
   168  H   1.0    0.29    1.00    1.43   345.61818   132.85629   176.02741
   169  H   1.0    0.16    0.99    1.43   343.50214   137.99452   175.64543
   170  H   1.0    0.15    0.99    1.43   346.32767   135.24712   171.41832
   171  H   1.0    0.11    0.99    1.43   344.23578   137.85749   170.94411
   172  H   1.0    0.25    0.99    1.43   348.31596   139.16478   171.31593
   173  N   5.0   -0.48    3.01    1.93   339.61326   136.07679   173.68551
   174  C   4.0    0.08    3.99    3.61   337.20689   134.94360   173.04873
   175  C   4.0    0.06    3.00    3.02   336.14630   136.26336   170.70475
   176  O   6.0   -0.47    1.00    1.80   336.11622   138.57741   170.54884
   177  C   4.0   -0.12    3.99    3.60   335.37198   135.26992   175.28430
   178  C   4.0   -0.02    3.03    3.02   336.47498   134.14523   177.64363
   179  C   4.0   -0.08    3.03    3.02   337.83447   135.62750   179.32822
   180  C   4.0   -0.10    3.03    3.02   336.21595   131.58108   178.14993
   181  C   4.0   -0.10    3.03    3.02   338.87195   134.58220   181.48540
   182  C   4.0   -0.08    3.03    3.02   337.25859   130.51161   180.29083
   183  C   4.0    0.10    3.03    3.02   338.58993   132.02068   181.98601
   184  O   6.0   -0.50    1.99    1.83   339.57723   130.93575   184.09837
   185  H   1.0    0.29    1.00    1.43   339.57742   137.91737   174.23369
   186  H   1.0    0.16    0.99    1.43   337.54492   132.94367   172.65879
   187  H   1.0    0.12    0.99    1.43   335.03927   137.28646   175.54351
   188  H   1.0    0.10    0.99    1.43   333.58256   134.36882   174.81590
   189  H   1.0    0.14    1.00    1.43   338.09358   137.61903   178.96330
   190  H   1.0    0.11    1.00    1.43   335.16154   130.41958   176.84474
   191  H   1.0    0.11    1.00    1.43   339.89942   135.77504   182.78454
   192  H   1.0    0.13    1.00    1.43   337.03956   128.52455   180.69568
   193  H   1.0    0.24    0.99    1.43   340.25448   132.23416   185.19120
   194  N   5.0   -0.69    3.00    1.93   335.98002   144.46975   165.38367
   195  C   4.0    0.08    3.98    3.59   337.80274   143.19061   166.96701
   196  C   4.0    0.28    3.01    3.02   338.22054   144.76977   169.34979
   197  O   6.0   -0.42    1.00    1.80   339.01749   146.94710   169.20089
   198  C   4.0    0.04    3.98    3.59   340.35892   143.01487   165.54397
   199  O   6.0   -0.46    1.99    1.82   341.10310   145.41895   164.68921
   200  C   4.0   -0.20    3.98    3.59   340.16263   141.22968   163.29635
   201  H   1.0    0.29    1.00    1.43   336.66382   146.04108   164.53570
   202  H   1.0    0.13    0.99    1.43   337.08924   141.31463   167.43666
   203  H   1.0    0.12    0.99    1.43   341.77125   142.26921   166.89048
   204  H   1.0    0.31    0.99    1.43   340.93482   146.60115   166.09352
   205  H   1.0    0.12    0.99    1.43   341.96274   141.17786   162.31452
   206  H   1.0    0.10    0.99    1.43   339.67688   139.35221   163.96645
   207  H   1.0    0.11    0.99    1.43   338.72339   141.88726   161.98259
   208  N   5.0   -0.49    3.01    1.93   337.67766   143.62122   171.52051
   209  C   4.0    0.08    4.00    3.62   338.10762   144.82518   173.93649
   210  C   4.0    0.28    3.01    3.02   340.05306   143.33180   175.46027
   211  O   6.0   -0.46    1.00    1.80   339.93476   141.02551   175.74226
   212  C   4.0   -0.08    3.98    3.58   335.62170   145.17262   175.43834
   213  C   4.0   -0.14    3.98    3.58   334.28532   142.63943   175.86443
   214  C   4.0   -0.21    3.98    3.59   333.93713   147.06176   174.04928
   215  C   4.0   -0.23    3.98    3.58   332.05284   142.82205   177.67671
   216  H   1.0    0.29    1.00    1.43   337.10290   141.78857   171.51846
   217  H   1.0    0.14    0.99    1.43   338.91329   146.68730   173.52189
   218  H   1.0    0.12    0.99    1.43   336.16199   145.95283   177.27927
   219  H   1.0    0.12    0.99    1.43   333.64202   141.88392   174.05353
   220  H   1.0    0.14    0.99    1.43   335.66439   141.32052   176.64360
   221  H   1.0    0.10    0.99    1.43   332.32057   147.54126   175.21598
   222  H   1.0    0.12    0.99    1.43   335.00824   148.76576   173.63487
   223  H   1.0    0.13    0.99    1.43   333.28654   146.23453   172.28143
   224  H   1.0    0.11    0.99    1.43   331.25976   140.95194   177.98828
   225  H   1.0    0.11    0.99    1.43   332.66322   143.59389   179.47973
   226  H   1.0    0.11    0.99    1.43   330.57399   144.01533   176.90630
   227  N   5.0   -0.47    3.01    1.93   341.86946   144.72846   176.48498
   228  C   4.0    0.08    4.00    3.61   343.80663   143.69189   178.11026
   229  C   4.0    0.28    3.01    3.02   342.65782   142.88455   180.64418
   230  O   6.0   -0.39    1.00    1.80   340.79754   143.91964   181.54402
   231  C   4.0   -0.10    3.98    3.59   345.76983   145.73798   178.68399
   232  C   4.0    0.32    2.99    3.02   346.62468   147.01588   176.17708
   233  O   6.0   -0.45    1.01    1.80   348.69287   146.32440   175.26393
   234  O   6.0   -0.39    1.00    1.80   345.16177   148.59602   175.25075
   235  H   1.0    0.27    1.00    1.43   342.06178   146.59177   176.06776
   236  H   1.0    0.15    0.99    1.43   344.69824   142.06173   177.19075
   237  H   1.0    0.13    0.99    1.43   344.90243   147.18873   179.86864
   238  H   1.0    0.12    0.99    1.43   347.37016   144.91161   179.67764
   239  N   5.0   -0.49    3.01    1.93   343.92963   141.02049   181.78437
   240  C   4.0    0.02    3.99    3.61   343.51772   140.31738   184.37808
   241  C   4.0    0.28    3.01    3.02   345.89068   140.82962   185.96236
   242  O   6.0   -0.40    1.00    1.80   347.69859   141.98441   185.14230
   243  H   1.0    0.29    1.00    1.43   345.43581   140.22543   180.89641
   244  H   1.0    0.14    0.99    1.43   341.94493   141.45561   185.09108
   245  H   1.0    0.10    0.99    1.43   343.02463   138.31206   184.50052
   246  N   5.0   -0.49    3.00    1.93   345.72108   139.95299   188.34738
   247  C   4.0    0.02    3.99    3.61   347.86717   139.93812   190.03108
   248  C   4.0    0.27    3.01    3.02   349.56744   137.64018   189.53946
   249  O   6.0   -0.42    1.00    1.80   349.61596   136.59419   187.47687
   250  H   1.0    0.23    1.00    1.43   344.25241   138.83710   188.82518
   251  H   1.0    0.13    0.99    1.43   348.99197   141.62840   189.62915
   252  H   1.0    0.10    0.99    1.43   347.21267   139.98289   191.98159
   253  N   5.0   -0.50    3.01    1.93   351.04366   137.00263   191.49375
   254  C   4.0    0.08    4.00    3.62   352.74575   134.87726   191.36368
   255  C   4.0    0.27    3.01    3.02   351.35909   132.40507   191.90341
   256  O   6.0   -0.41    1.00    1.80   349.55710   132.23888   193.35379
   257  C   4.0   -0.14    3.99    3.60   354.87164   135.14311   193.31095
   258  C   4.0   -0.10    3.98    3.58   356.44241   137.56204   193.01957
   259  C   4.0   -0.23    3.98    3.59   358.39495   137.68096   195.14295
   260  C   4.0   -0.22    3.98    3.59   357.76026   137.68588   190.45772
   261  H   1.0    0.23    1.00    1.43   350.66099   137.65849   193.24252
   262  H   1.0    0.15    0.99    1.43   353.50635   134.78140   189.44730
   263  H   1.0    0.11    0.99    1.43   354.02397   135.10834   195.19645
   264  H   1.0    0.12    0.99    1.43   356.11687   133.50712   193.13558
   265  H   1.0    0.12    0.99    1.43   355.18445   139.19320   193.19953
   266  H   1.0    0.10    0.99    1.43   359.41625   139.46315   195.09382
   267  H   1.0    0.10    0.99    1.43   357.49639   137.48895   196.98306
   268  H   1.0    0.11    0.99    1.43   359.75652   136.15549   194.93624
   269  H   1.0    0.10    0.99    1.43   358.98484   139.33235   190.38247
   270  H   1.0    0.12    0.99    1.43   358.91078   136.00842   190.17052
   271  H   1.0    0.12    0.99    1.43   356.39445   137.81418   188.93226
   272  N   5.0   -0.48    3.01    1.93   352.34871   130.43222   190.68369
   273  C   4.0    0.06    3.99    3.60   351.65411   127.86509   191.23217
   274  C   4.0    0.06    3.01    3.02   354.05734   126.28489   191.29303
   275  O   6.0   -0.44    1.00    1.80   355.90151   126.80808   189.99063
   276  C   4.0   -0.21    3.98    3.59   349.84582   126.75407   189.26138
   277  H   1.0    0.29    1.00    1.43   353.77500   130.68273   189.42949
   278  H   1.0    0.13    0.99    1.43   350.71730   127.83725   193.07337
   279  H   1.0    0.09    0.99    1.43   349.40612   124.81282   189.76749
   280  H   1.0    0.11    0.99    1.43   348.10764   127.84714   189.24550
   281  H   1.0    0.11    0.99    1.43   350.67648   126.80087   187.38368
   282  N   5.0   -0.68    3.00    1.93   346.27965   116.37762   187.45324
   283  C   4.0    0.06    3.98    3.58   346.97722   118.85408   188.37870
   284  C   4.0    0.06    3.00    3.02   345.82364   119.25106   191.00349
   285  O   6.0   -0.43    1.00    1.80   343.60484   118.72136   191.41446
   286  C   4.0   -0.13    3.99    3.60   345.90579   120.94076   186.64097
   287  C   4.0   -0.04    3.03    3.02   346.62615   120.58124   183.91880
   288  C   4.0   -0.11    3.03    3.02   345.05408   119.23894   182.29596
   289  C   4.0   -0.11    3.03    3.02   348.84805   121.58700   182.95589
   290  C   4.0   -0.08    3.03    3.02   345.64318   118.95015   179.77411
   291  C   4.0   -0.09    3.03    3.02   349.44957   121.32571   180.42620
   292  C   4.0    0.11    3.03    3.02   347.84137   120.02683   178.79974
   293  O   6.0   -0.44    1.99    1.83   348.31579   119.75871   176.29285
   294  H   1.0    0.29    1.00    1.43   344.41397   115.97210   187.47101
   295  H   1.0    0.11    0.99    1.43   349.03827   118.92261   188.44728
   296  H   1.0    0.12    0.99    1.43   343.84927   120.88621   186.81119
   297  H   1.0    0.09    0.99    1.43   346.59566   122.76014   187.31820
   298  H   1.0    0.12    0.99    1.43   343.31692   118.42239   182.99220
   299  H   1.0    0.11    1.00    1.43   350.10606   122.62239   184.18267
   300  H   1.0    0.13    1.00    1.43   344.43619   117.87370   178.53345
   301  H   1.0    0.13    1.00    1.43   351.16844   122.14070   179.68793
   302  H   1.0    0.32    0.99    1.43   349.60717   120.96378   175.70102
   303  N   5.0   -0.67    3.00    1.93   338.37511   120.14477   192.20328
   304  C   4.0    0.06    3.98    3.58   336.78585   121.68629   190.58399
   305  C   4.0    0.09    3.00    3.02   335.17835   119.96269   188.88887
   306  O   6.0   -0.36    1.00    1.80   336.03780   118.05564   187.91267
   307  C   4.0   -0.13    3.99    3.60   338.36762   123.45362   188.93319
   308  C   4.0   -0.10    3.98    3.58   339.78154   125.49100   190.43495
   309  C   4.0   -0.23    3.98    3.59   341.64695   126.85713   188.70635
   310  C   4.0   -0.22    3.98    3.59   337.96861   127.41129   191.60102
   311  H   1.0    0.32    1.00    1.43   340.05374   119.51103   191.52204
   312  H   1.0    0.10    0.99    1.43   335.50924   122.76155   191.80309
   313  H   1.0    0.12    0.99    1.43   339.73237   122.30372   187.89746
   314  H   1.0    0.12    0.99    1.43   337.12114   124.34646   187.55113
   315  H   1.0    0.12    0.99    1.43   340.83546   124.57536   191.96669
   316  H   1.0    0.10    0.99    1.43   342.63925   128.31248   189.76533
   317  H   1.0    0.10    0.99    1.43   343.03000   125.54637   187.94297
   318  H   1.0    0.13    0.99    1.43   340.63720   127.73892   187.14893
   319  H   1.0    0.10    0.99    1.43   339.01453   128.87941   192.59124
   320  H   1.0    0.11    0.99    1.43   336.82207   128.31604   190.15334
   321  H   1.0    0.10    0.99    1.43   336.69345   126.54263   192.96067
   322  N   5.0   -0.72    3.00    1.92   326.45239   125.06819   182.00050
   323  C   4.0    0.01    3.98    3.58   329.01864   124.23064   181.67970
   324  C   4.0    0.04    2.99    3.02   330.94965   125.29232   183.55245
   325  O   6.0   -0.43    1.00    1.80   333.04847   124.35220   183.72005
   326  H   1.0    0.27    1.00    1.43   325.53159   124.46984   183.55899
   327  H   1.0    0.14    0.99    1.43   329.07240   122.16933   181.77407
   328  H   1.0    0.12    0.99    1.43   329.63804   124.81833   179.79398
   329  H   1.0    0.29    1.00    1.43   324.68845   128.57752   173.08755
   330  H   1.0    0.12    1.00    1.43   361.83682   131.09428   176.37182
   331  H   1.0    0.32    1.00    1.43   363.58120   133.26542   180.66384
   332  H   1.0    0.13    1.00    1.43   369.13525   135.54209   184.58117
   333  H   1.0    0.30    1.00    1.43   360.05505   127.56160   185.64644
   334  H   1.0    0.12    1.00    1.43   335.46421   135.23873   169.27090
   335  H   1.0    0.29    1.00    1.43   335.45997   143.41768   164.15271
   336  H   1.0    0.12    1.00    1.43   354.16411   124.77043   192.41824
   337  H   1.0    0.30    1.00    1.43   346.78248   116.21321   185.83685
   338  H   1.0    0.12    1.00    1.43   346.88183   119.94915   192.40491
   339  H   1.0    0.29    1.00    1.43   338.78478   121.02425   193.60015
   340  H   1.0    0.13    1.00    1.43   333.36773   120.38833   188.55489
   341  H   1.0    0.29    1.00    1.43   326.41461   126.76693   182.07399
   342  H   1.0    0.12    1.00    1.43   330.49417   126.76402   184.64685

           ------------------------------------------------- 
          |        Self-Consistent Charge Iterations        |
           ------------------------------------------------- 

          ...................................................
          :                      SETUP                      :
          :.................................................:
          :  # basis functions                 840          :
          :  # atomic orbitals                 839          :
          :  # shells                          507          :
          :  # electrons                       926          :
          :  max. iterations                   250          :
          :  Hamiltonian                  GFN2-xTB          :
          :  restarted?                      false          :
          :  GBSA solvation                   true          :
          :  PC potential                    false          :
          :  electronic temp.          500.0000000     K    :
          :  accuracy                    0.1000000          :
          :  -> integral cutoff          0.3500000E+02      :
          :  -> integral neglect         0.1000000E-08      :
          :  -> SCF convergence          0.1000000E-06 Eh   :
          :  -> wf. convergence          0.1000000E-04 e    :
          :  Broyden damping             0.4000000          :
          ...................................................

 iter      E             dE          RMSdq      gap      omega  full diag
   1   -530.6297082 -0.530630E+03  0.426E+00    2.32       0.0  T
   2   -531.9231687 -0.129346E+01  0.220E+00    1.49       1.0  T
   3   -531.9664576 -0.432889E-01  0.118E+00    1.65       1.0  T
   4   -531.9931361 -0.266786E-01  0.296E-01    1.04       1.0  T
   5   -532.0077848 -0.146487E-01  0.112E-01    1.19       1.0  T
   6   -532.0082885 -0.503739E-03  0.529E-02    1.18       1.0  T
   7   -532.0083911 -0.102600E-03  0.251E-02    1.20       1.0  T
   8   -532.0084463 -0.551755E-04  0.103E-02    1.20       1.0  T
   9   -532.0084510 -0.469473E-05  0.548E-03    1.20       1.0  T
  10   -532.0084526 -0.163644E-05  0.240E-03    1.20       2.2  T
  11   -532.0084528 -0.208062E-06  0.109E-03    1.20       5.0  T
  12   -532.0084529 -0.739411E-07  0.504E-04    1.20      10.7  T
  13   -532.0084529 -0.201888E-07  0.218E-04    1.20      24.8  T
  14   -532.0084529 -0.277657E-08  0.942E-05    1.20      57.4  T
  15   -532.0084529 -0.644150E-09  0.394E-05    1.20     137.3  T

   *** convergence criteria satisfied after 15 iterations ***

         #    Occupation            Energy/Eh            Energy/eV
      -------------------------------------------------------------
         1        2.0000           -0.7521413             -20.4668
       ...           ...                  ...                  ...
       457        2.0000           -0.3696864             -10.0597
       458        2.0000           -0.3696797             -10.0595
       459        2.0000           -0.3670662              -9.9884
       460        2.0000           -0.3613879              -9.8339
       461        2.0000           -0.3595579              -9.7841
       462        2.0000           -0.3587137              -9.7611
       463        2.0000           -0.3556991              -9.6791 (HOMO)
       464        0.0000           -0.3115103              -8.4766 (LUMO)
       465        0.0000           -0.3105094              -8.4494
       466                         -0.2990138              -8.1366
       467                         -0.2907696              -7.9122
       468                         -0.2843098              -7.7365
       ...                                ...                  ...
       839                          0.6565940              17.8668
      -------------------------------------------------------------
                  HL-Gap            0.0441888 Eh            1.2024 eV
             Fermi-level           -0.3337562 Eh           -9.0820 eV

 SCC (total)                   0 d,  0 h,  0 min,  3.915 sec
 SCC setup                      ...        0 min,  0.074 sec (  1.889%)
 Dispersion                     ...        0 min,  0.047 sec (  1.203%)
 integral evaluation            ...        0 min,  0.150 sec (  3.842%)
 zeroth order Hamiltonian       ...        0 min,  0.003 sec (  0.075%)
 iterations                     ...        0 min,  2.857 sec ( 72.973%)
 molecular gradient             ...        0 min,  0.763 sec ( 19.495%)
 printout                       ...        0 min,  0.020 sec (  0.521%)

         :::::::::::::::::::::::::::::::::::::::::::::::::::::
         ::                     SUMMARY                     ::
         :::::::::::::::::::::::::::::::::::::::::::::::::::::
         :: total energy             -525.546092099689 Eh   ::
         :: total w/o Gsasa/hb       -525.483177024721 Eh   ::
         :: gradient norm               0.594540828300 Eh/α ::
         :: HOMO-LUMO gap               1.202438987447 eV   ::
         ::.................................................::
         :: SCC energy               -532.023681754329 Eh   ::
         :: -> isotropic ES             1.529957932646 Eh   ::
         :: -> anisotropic ES          -0.064616208844 Eh   ::
         :: -> anisotropic XC           0.169708944675 Eh   ::
         :: -> dispersion              -0.436823557993 Eh   ::
         :: -> Gsolv                   -0.332485118200 Eh   ::
         ::    -> Gborn                -0.269570043233 Eh   ::
         ::    -> Gsasa                -0.017086277204 Eh   ::
         ::    -> Ghb                  -0.047686240891 Eh   ::
         ::    -> Gshift                0.001857443127 Eh   ::
         :: repulsion energy            6.433454842574 Eh   ::
         :: add. restraining            0.000000000000 Eh   ::
         :::::::::::::::::::::::::::::::::::::::::::::::::::::

           -------------------------------------------------
          |                Property Printout                |
           -------------------------------------------------

    * Orbital Energies and Occupations

         #    Occupation            Energy/Eh            Energy/eV
      -------------------------------------------------------------
         1        2.0000           -0.7521413             -20.4668
       ...           ...                  ...                  ...
       451        2.0000           -0.3905584             -10.6276
       452        2.0000           -0.3857170             -10.4959
       453        2.0000           -0.3855781             -10.4921
       454        2.0000           -0.3773406             -10.2680
       455        2.0000           -0.3758009             -10.2261
       456        2.0000           -0.3745059             -10.1908
       457        2.0000           -0.3696864             -10.0597
       458        2.0000           -0.3696797             -10.0595
       459        2.0000           -0.3670662              -9.9884
       460        2.0000           -0.3613879              -9.8339
       461        2.0000           -0.3595579              -9.7841
       462        2.0000           -0.3587137              -9.7611
       463        2.0000           -0.3556991              -9.6791 (HOMO)
       464        0.0000           -0.3115103              -8.4766 (LUMO)
       465        0.0000           -0.3105094              -8.4494
       466                         -0.2990138              -8.1366
       467                         -0.2907696              -7.9122
       468                         -0.2843098              -7.7365
       469                         -0.2829619              -7.6998
       470                         -0.2766904              -7.5291
       471                         -0.2460809              -6.6962
       472                         -0.2440578              -6.6412
       473                         -0.2414107              -6.5691
       474                         -0.2366058              -6.4384
       ...                                ...                  ...
       839                          0.6565940              17.8668
      -------------------------------------------------------------
                  HL-Gap            0.0441888 Eh            1.2024 eV
             Fermi-level           -0.3337562 Eh           -9.0820 eV

   #   Z        covCN         q      C6AA      α(0)
   1   7 N      2.636    -0.380    29.809     8.109
   2   6 C      3.787     0.034    20.020     6.373
   3   6 C      2.761     0.271    22.420     7.754
   4   8 O      0.858    -0.483    23.411     6.487
   5   6 C      3.814    -0.068    21.785     6.643
   6   6 C      2.968    -0.005    28.142     8.702
   7   6 C      2.924    -0.041    29.014     8.833
   8   6 C      2.926    -0.046    29.146     8.854
   9   6 C      2.917    -0.060    29.492     8.905
  10   6 C      2.917    -0.075    29.879     8.964
  11   6 C      2.847     0.145    24.846     8.169
  12   8 O      1.659    -0.432    21.470     6.255
  13   1 H      0.860     0.157     1.352     1.821
  14   1 H      0.924     0.039     2.460     2.453
  15   1 H      0.924     0.045     2.387     2.416
  16   1 H      0.924     0.042     2.428     2.437
  17   1 H      0.926     0.041     2.441     2.443
  18   1 H      0.926     0.038     2.470     2.458
  19   1 H      0.926     0.047     2.354     2.399
  20   1 H      0.925     0.044     2.396     2.421
  21   1 H      0.805     0.344     0.603     1.219
  22   7 N      2.695    -0.180    24.904     7.412
  23   6 C      3.797     0.015    20.325     6.419
  24   6 C      2.757     0.270    22.436     7.757
  25   8 O      0.858    -0.489    23.553     6.507
  26   6 C      3.807    -0.083    22.072     6.688
  27   6 C      3.803    -0.074    21.913     6.664
  28   6 C      3.804    -0.095    22.311     6.725
  29   6 C      3.732    -0.050    21.566     6.629
  30   7 N      3.483    -0.148    24.187     7.304
  31   1 H      0.860     0.206     1.076     1.625
  32   1 H      0.924     0.073     2.051     2.239
  33   1 H      0.924     0.080     1.983     2.202
  34   1 H      0.924     0.064     2.149     2.292
  35   1 H      0.924     0.045     2.387     2.416
  36   1 H      0.924     0.059     2.212     2.326
  37   1 H      0.924     0.086     1.914     2.164
  38   1 H      0.924     0.080     1.979     2.200
  39   1 H      0.924     0.112     1.679     2.026
  40   1 H      0.924     0.118     1.626     1.994
  41   1 H      0.859     0.302     0.707     1.317
  42   1 H      0.859     0.302     0.707     1.317
  43   1 H      0.859     0.299     0.717     1.327
  44   7 N      2.691    -0.161    24.492     7.350
  45   6 C      3.799     0.013    20.367     6.426
  46   6 C      2.754     0.273    22.387     7.748
  47   8 O      0.858    -0.475    23.245     6.464
  48   6 C      3.852    -0.015    20.800     6.487
  49   6 C      3.756    -0.112    22.692     6.792
  50   6 C      3.757    -0.116    22.775     6.804
  51   1 H      0.860     0.209     1.061     1.614
  52   1 H      0.924     0.077     2.009     2.217
  53   1 H      0.924     0.045     2.379     2.412
  54   1 H      0.925     0.054     2.277     2.360
  55   1 H      0.925     0.023     2.685     2.562
  56   1 H      0.925     0.043     2.415     2.430
  57   1 H      0.925     0.051     2.308     2.376
  58   1 H      0.925     0.044     2.400     2.423
  59   1 H      0.925     0.054     2.266     2.354
  60   7 N      2.694    -0.176    24.816     7.399
  61   6 C      3.792     0.013    20.368     6.427
  62   6 C      2.761     0.281    22.250     7.725
  63   8 O      0.858    -0.474    23.214     6.460
  64   6 C      3.678     0.070    19.627     6.346
  65   8 O      1.654    -0.470    22.255     6.368
  66   1 H      0.860     0.221     1.006     1.571
  67   1 H      0.924     0.066     2.126     2.280
  68   1 H      0.924     0.059     2.215     2.327
  69   1 H      0.923     0.062     2.179     2.308
  70   1 H      0.804     0.329     0.641     1.257
  71   7 N      2.693    -0.163    24.519     7.354
  72   6 C      3.803     0.037    19.951     6.359
  73   6 C      2.755     0.277    22.312     7.735
  74   8 O      0.858    -0.488    23.523     6.503
  75   6 C      3.805    -0.086    22.134     6.698
  76   6 C      2.687     0.375    20.644     7.436
  77   8 O      0.856    -0.645    27.240     6.997
  78   8 O      0.856    -0.630    26.862     6.949
  79   1 H      0.860     0.198     1.115     1.654
  80   1 H      0.924     0.071     2.073     2.252
  81   1 H      0.925     0.038     2.469     2.457
  82   1 H      0.924     0.038     2.479     2.462
  83   7 N      2.693    -0.176    24.811     7.398
  84   6 C      3.788     0.011    20.405     6.434
  85   6 C      2.767     0.197    23.790     7.988
  86   8 O      0.856    -0.345    20.605     6.086
  87   6 C      3.725     0.111    18.859     6.201
  88   8 O      1.655    -0.453    21.903     6.318
  89   6 C      3.752    -0.140    23.261     6.878
  90   1 H      0.860     0.223     0.995     1.562
  91   1 H      0.924     0.087     1.910     2.161
  92   1 H      0.924     0.067     2.116     2.275
  93   1 H      0.804     0.328     0.643     1.259
  94   1 H      0.925     0.086     1.915     2.164
  95   1 H      0.925     0.058     2.227     2.334
  96   1 H      0.925     0.051     2.312     2.378
  97   7 N      2.637    -0.378    29.770     8.103
  98   6 C      3.781     0.039    19.945     6.362
  99   6 C      2.767     0.204    23.674     7.968
 100   8 O      0.856    -0.367    21.039     6.150
 101   6 C      3.756    -0.122    22.888     6.821
 102   1 H      0.860     0.150     1.404     1.856
 103   1 H      0.924     0.062     2.175     2.306
 104   1 H      0.925     0.048     2.340     2.392
 105   1 H      0.925     0.052     2.289     2.366
 106   1 H      0.925     0.054     2.270     2.356
 107   7 N      2.635    -0.392    30.139     8.154
 108   6 C      3.791     0.026    20.143     6.392
 109   6 C      2.753     0.272    22.411     7.752
 110   8 O      0.858    -0.480    23.348     6.478
 111   6 C      3.853    -0.006    20.643     6.462
 112   6 C      3.756    -0.105    22.569     6.774
 113   6 C      3.755    -0.098    22.427     6.753
 114   1 H      0.860     0.175     1.241     1.745
 115   1 H      0.924     0.051     2.304     2.374
 116   1 H      0.924     0.000     3.050     2.731
 117   1 H      0.925     0.039     2.468     2.457
 118   1 H      0.925     0.031     2.566     2.505
 119   1 H      0.925     0.038     2.480     2.462
 120   1 H      0.925     0.024     2.677     2.559
 121   1 H      0.925     0.048     2.339     2.392
 122   1 H      0.925     0.035     2.512     2.478
 123   7 N      2.701    -0.192    25.165     7.450
 124   6 C      3.792     0.018    20.275     6.412
 125   6 C      2.761     0.271    22.417     7.754
 126   8 O      0.858    -0.505    23.906     6.555
 127   6 C      3.805    -0.086    22.146     6.700
 128   6 C      3.802    -0.074    21.922     6.666
 129   6 C      3.803    -0.084    22.093     6.692
 130   6 C      3.731    -0.041    21.398     6.603
 131   7 N      3.478    -0.172    24.715     7.384
 132   1 H      0.860     0.221     1.005     1.570
 133   1 H      0.924     0.074     2.042     2.235
 134   1 H      0.924     0.069     2.095     2.264
 135   1 H      0.925     0.081     1.971     2.195
 136   1 H      0.924     0.057     2.234     2.337
 137   1 H      0.925     0.069     2.096     2.264
 138   1 H      0.925     0.061     2.182     2.310
 139   1 H      0.924     0.059     2.212     2.326
 140   1 H      0.924     0.108     1.717     2.049
 141   1 H      0.924     0.109     1.706     2.043
 142   1 H      0.859     0.275     0.792     1.394
 143   1 H      0.859     0.264     0.832     1.429
 144   1 H      0.856     0.295     0.728     1.336
 145   7 N      2.690    -0.154    24.335     7.327
 146   6 C      3.796     0.024    20.180     6.397
 147   6 C      2.757     0.270    22.435     7.756
 148   8 O      0.859    -0.471    23.144     6.450
 149   6 C      3.826    -0.067    21.771     6.639
 150   6 C      3.794    -0.021    20.960     6.519
 151  16 S      1.958    -0.224   150.616    20.656
 152   6 C      3.745    -0.055    21.633     6.635
 153   1 H      0.860     0.222     1.001     1.567
 154   1 H      0.924     0.074     2.040     2.233
 155   1 H      0.924     0.058     2.227     2.334
 156   1 H      0.924     0.063     2.167     2.302
 157   1 H      0.925     0.070     2.089     2.260
 158   1 H      0.925     0.073     2.057     2.243
 159   1 H      0.925     0.040     2.449     2.447
 160   1 H      0.925     0.067     2.121     2.278
 161   1 H      0.925     0.054     2.275     2.359
 162   7 N      2.690    -0.170    24.671     7.377
 163   6 C      3.795     0.013    20.361     6.425
 164   6 C      2.760     0.261    22.600     7.785
 165   8 O      0.858    -0.486    23.484     6.497
 166   6 C      3.678     0.068    19.653     6.351
 167   8 O      1.655    -0.478    22.430     6.393
 168   1 H      0.860     0.223     0.995     1.562
 169   1 H      0.924     0.083     1.946     2.181
 170   1 H      0.924     0.065     2.146     2.291
 171   1 H      0.924     0.034     2.528     2.486
 172   1 H      0.805     0.353     0.582     1.198
 173   7 N      2.693    -0.163    24.530     7.356
 174   6 C      3.795     0.024    20.181     6.397
 175   6 C      2.767     0.200    23.751     7.981
 176   8 O      0.856    -0.351    20.734     6.105
 177   6 C      3.813    -0.075    21.914     6.663
 178   6 C      2.970     0.003    27.944     8.671
 179   6 C      2.924    -0.041    29.022     8.835
 180   6 C      2.926    -0.039    28.980     8.828
 181   6 C      2.918    -0.077    29.913     8.969
 182   6 C      2.917    -0.059    29.469     8.902
 183   6 C      2.846     0.141    24.930     8.183
 184   8 O      1.659    -0.420    21.242     6.222
 185   1 H      0.860     0.236     0.941     1.520
 186   1 H      0.924     0.107     1.725     2.054
 187   1 H      0.925     0.070     2.081     2.256
 188   1 H      0.925     0.075     2.028     2.227
 189   1 H      0.926     0.046     2.376     2.410
 190   1 H      0.926     0.047     2.363     2.404
 191   1 H      0.926     0.036     2.502     2.474
 192   1 H      0.926     0.050     2.322     2.383
 193   1 H      0.805     0.334     0.627     1.243
 194   7 N      2.638    -0.388    30.034     8.139
 195   6 C      3.787     0.010    20.429     6.438
 196   6 C      2.761     0.271    22.415     7.753
 197   8 O      0.858    -0.513    24.068     6.578
 198   6 C      3.728     0.125    18.645     6.164
 199   8 O      1.655    -0.484    22.559     6.412
 200   6 C      3.753    -0.127    22.991     6.837
 201   1 H      0.860     0.166     1.299     1.785
 202   1 H      0.924     0.056     2.251     2.346
 203   1 H      0.922    -0.016     3.354     2.864
 204   1 H      0.804     0.320     0.665     1.281
 205   1 H      0.925     0.064     2.153     2.295
 206   1 H      0.925     0.056     2.244     2.343
 207   1 H      0.925     0.062     2.175     2.306
 208   7 N      2.689    -0.182    24.937     7.417
 209   6 C      3.802     0.020    20.239     6.405
 210   6 C      2.756     0.269    22.459     7.760
 211   8 O      0.859    -0.494    23.645     6.519
 212   6 C      3.851    -0.016    20.816     6.489
 213   6 C      3.802    -0.061    21.674     6.628
 214   6 C      3.755    -0.116    22.780     6.805
 215   6 C      3.752    -0.110    22.670     6.790
 216   1 H      0.860     0.233     0.952     1.529
 217   1 H      0.924     0.057     2.238     2.340
 218   1 H      0.924     0.034     2.528     2.487
 219   1 H      0.924     0.046     2.375     2.410
 220   1 H      0.924     0.038     2.472     2.459
 221   1 H      0.925     0.060     2.196     2.317
 222   1 H      0.925     0.036     2.503     2.474
 223   1 H      0.925     0.052     2.292     2.368
 224   1 H      0.925     0.045     2.384     2.415
 225   1 H      0.925     0.036     2.502     2.474
 226   1 H      0.925     0.049     2.335     2.390
 227   7 N      2.693    -0.171    24.700     7.381
 228   6 C      3.799     0.034    20.007     6.369
 229   6 C      2.759     0.278    22.303     7.734
 230   8 O      0.858    -0.496    23.686     6.525
 231   6 C      3.807    -0.106    22.525     6.756
 232   6 C      2.685     0.373    20.685     7.443
 233   8 O      0.860    -0.577    25.558     6.778
 234   8 O      0.856    -0.607    26.281     6.873
 235   1 H      0.860     0.210     1.054     1.608
 236   1 H      0.924     0.066     2.127     2.281
 237   1 H      0.924     0.037     2.491     2.468
 238   1 H      0.925     0.058     2.223     2.332
 239   7 N      2.689    -0.174    24.769     7.392
 240   6 C      3.745    -0.031    21.191     6.566
 241   6 C      2.752     0.274    22.369     7.745
 242   8 O      0.858    -0.457    22.846     6.408
 243   1 H      0.860     0.228     0.973     1.545
 244   1 H      0.924     0.099     1.790     2.092
 245   1 H      0.924     0.065     2.147     2.291
 246   7 N      2.688    -0.173    24.734     7.386
 247   6 C      3.745    -0.040    21.364     6.593
 248   6 C      2.753     0.272    22.403     7.751
 249   8 O      0.858    -0.488    23.520     6.502
 250   1 H      0.860     0.211     1.050     1.605
 251   1 H      0.924     0.109     1.706     2.043
 252   1 H      0.925     0.088     1.896     2.153
 253   7 N      2.691    -0.164    24.553     7.359
 254   6 C      3.801     0.010    20.416     6.433
 255   6 C      2.760     0.270    22.432     7.756
 256   8 O      0.858    -0.498    23.746     6.533
 257   6 C      3.812    -0.073    21.887     6.659
 258   6 C      3.849    -0.013    20.773     6.483
 259   6 C      3.757    -0.118    22.807     6.809
 260   6 C      3.756    -0.116    22.775     6.805
 261   1 H      0.860     0.213     1.042     1.599
 262   1 H      0.924     0.095     1.830     2.116
 263   1 H      0.924     0.050     2.322     2.383
 264   1 H      0.924     0.052     2.295     2.369
 265   1 H      0.924     0.041     2.433     2.439
 266   1 H      0.925     0.047     2.354     2.399
 267   1 H      0.925     0.040     2.448     2.447
 268   1 H      0.925     0.041     2.431     2.438
 269   1 H      0.925     0.048     2.341     2.393
 270   1 H      0.925     0.041     2.438     2.442
 271   1 H      0.925     0.037     2.487     2.466
 272   7 N      2.696    -0.174    24.764     7.391
 273   6 C      3.793     0.030    20.074     6.380
 274   6 C      2.772     0.196    23.826     7.994
 275   8 O      0.856    -0.359    20.884     6.127
 276   6 C      3.756    -0.119    22.835     6.813
 277   1 H      0.860     0.227     0.979     1.550
 278   1 H      0.924     0.094     1.845     2.124
 279   1 H      0.925     0.064     2.156     2.296
 280   1 H      0.925     0.077     2.008     2.216
 281   1 H      0.925     0.064     2.148     2.292
 282   7 N      2.636    -0.382    29.867     8.117
 283   6 C      3.782     0.040    19.919     6.358
 284   6 C      2.769     0.198    23.779     7.986
 285   8 O      0.856    -0.360    20.894     6.128
 286   6 C      3.813    -0.066    21.753     6.639
 287   6 C      2.968     0.003    27.965     8.674
 288   6 C      2.925    -0.043    29.075     8.843
 289   6 C      2.924    -0.039    28.965     8.826
 290   6 C      2.918    -0.064    29.591     8.920
 291   6 C      2.918    -0.063    29.565     8.916
 292   6 C      2.845     0.148    24.771     8.157
 293   8 O      1.657    -0.444    21.731     6.293
 294   1 H      0.860     0.166     1.298     1.785
 295   1 H      0.924     0.054     2.267     2.355
 296   1 H      0.924     0.052     2.292     2.368
 297   1 H      0.924     0.051     2.303     2.373
 298   1 H      0.926     0.050     2.321     2.382
 299   1 H      0.926     0.042     2.424     2.435
 300   1 H      0.926     0.049     2.329     2.386
 301   1 H      0.926     0.001     3.044     2.728
 302   1 H      0.802     0.325     0.650     1.267
 303   7 N      2.635    -0.393    30.174     8.158
 304   6 C      3.782     0.042    19.895     6.354
 305   6 C      2.766     0.203    23.681     7.970
 306   8 O      0.856    -0.373    21.151     6.166
 307   6 C      3.809    -0.062    21.674     6.627
 308   6 C      3.849    -0.007    20.662     6.466
 309   6 C      3.757    -0.118    22.804     6.808
 310   6 C      3.756    -0.115    22.764     6.803
 311   1 H      0.860     0.176     1.239     1.743
 312   1 H      0.924     0.050     2.322     2.383
 313   1 H      0.924     0.035     2.513     2.479
 314   1 H      0.924     0.041     2.440     2.443
 315   1 H      0.924     0.030     2.588     2.516
 316   1 H      0.925     0.042     2.426     2.436
 317   1 H      0.925     0.033     2.544     2.494
 318   1 H      0.925     0.052     2.297     2.370
 319   1 H      0.925     0.044     2.392     2.419
 320   1 H      0.925     0.042     2.416     2.431
 321   1 H      0.925     0.034     2.532     2.488
 322   7 N      2.631    -0.382    29.873     8.117
 323   6 C      3.731    -0.014    20.915     6.528
 324   6 C      2.760     0.192    23.903     8.006
 325   8 O      0.856    -0.390    21.485     6.215
 326   1 H      0.860     0.168     1.287     1.777
 327   1 H      0.924     0.086     1.923     2.168
 328   1 H      0.924     0.093     1.852     2.128
 329   1 H      0.862     0.183     1.195     1.713
 330   1 H      0.930     0.088     1.899     2.155
 331   1 H      0.862     0.184     1.193     1.711
 332   1 H      0.930     0.073     2.056     2.242
 333   1 H      0.862     0.172     1.260     1.758
 334   1 H      0.930     0.099     1.790     2.092
 335   1 H      0.862     0.193     1.141     1.673
 336   1 H      0.930     0.086     1.914     2.163
 337   1 H      0.862     0.179     1.219     1.729
 338   1 H      0.930     0.073     2.050     2.239
 339   1 H      0.862     0.178     1.224     1.733
 340   1 H      0.930     0.059     2.215     2.327
 341   1 H      0.862     0.181     1.206     1.720
 342   1 H      0.930     0.067     2.116     2.275

 Mol. C6AA /au·bohr⁶  :    1083353.832682
 Mol. C8AA /au·bohr⁸  :   24305094.440046
 Mol. α(0) /au        :       1563.504152


Wiberg/Mayer (AO) data.
largest (>0.10) Wiberg bond orders for each atom
          total WBO             WBO to atom ...
     1  N   3.005        C    2 1.026    H  329 0.956    H   13 0.955
     2  C   3.986        N    1 1.026    H   14 0.961    C    5 0.951    C    3 0.934
     3  C   3.942        O    4 1.658    N   22 1.274    C    2 0.934
     4  O   1.961        C    3 1.658    N   22 0.189
     5  C   3.994        C    6 1.011    H   15 0.969    H   16 0.965    C    2 0.951
     6  C   3.988        C    8 1.405    C    7 1.401    C    5 1.011
     7  C   3.990        C    9 1.460    C    6 1.401    H   17 0.968    C   10 0.104
     8  C   3.991        C   10 1.452    C    6 1.405    H   18 0.966    C    9 0.107
     9  C   3.988        C    7 1.460    C   11 1.362    H   19 0.968    C    8 0.107
    10  C   3.986        C    8 1.452    C   11 1.369    H   20 0.965    C    7 0.104
    11  C   3.936        C   10 1.369    C    9 1.362    O   12 1.076
    12  O   2.097        C   11 1.076    H   21 0.861
    13  H   0.975        N    1 0.955
    14  H   0.998        C    2 0.961
    15  H   0.998        C    5 0.969
    16  H   0.998        C    5 0.965
    17  H   0.998        C    7 0.968
    18  H   0.999        C    8 0.966
    19  H   0.997        C    9 0.968
    20  H   0.998        C   10 0.965
    21  H   0.882        O   12 0.861
    22  N   3.440        C    3 1.274    C   23 0.975    H   31 0.924    O    4 0.189
    23  C   3.961        C   26 0.979    N   22 0.975    H   32 0.954    C   24 0.931
    24  C   3.942        O   25 1.630    N   44 1.300    C   23 0.931
    25  O   1.950        C   24 1.630    N   44 0.196
    26  C   3.983        C   27 1.006    C   23 0.979    H   34 0.971    H   33 0.969
    27  C   3.992        C   26 1.006    C   28 1.003    H   35 0.976    H   36 0.974
    28  C   3.985        C   29 1.011    C   27 1.003    H   38 0.971    H   37 0.969
    29  C   3.916        C   28 1.011    H   39 0.965    H   40 0.964    N   30 0.958
    30  N   3.663        C   29 0.958    H   43 0.896    H   41 0.895    H   42 0.894
    31  H   0.958        N   22 0.924
    32  H   0.995        C   23 0.954
    33  H   0.993        C   26 0.969
    34  H   0.996        C   26 0.971
    35  H   0.998        C   27 0.976
    36  H   0.997        C   27 0.974
    37  H   0.992        C   28 0.969
    38  H   0.994        C   28 0.971
    39  H   0.987        C   29 0.965
    40  H   0.986        C   29 0.964
    41  H   0.908        N   30 0.895
    42  H   0.909        N   30 0.894
    43  H   0.911        N   30 0.896
    44  N   3.484        C   24 1.300    C   45 0.989    H   51 0.924    O   25 0.196
    45  C   3.968        N   44 0.989    C   48 0.955    H   52 0.950    C   46 0.936
    46  C   3.947        O   47 1.647    N   60 1.289    C   45 0.936
    47  O   1.960        C   46 1.647    N   60 0.197
    48  C   3.990        C   49 1.009    C   50 1.007    H   53 0.967    C   45 0.955
    49  C   3.994        C   48 1.009    H   55 0.986    H   56 0.984    H   54 0.983
    50  C   3.992        C   48 1.007    H   57 0.983    H   59 0.982    H   58 0.982
    51  H   0.956        N   44 0.924
    52  H   0.994        C   45 0.950
    53  H   0.998        C   48 0.967
    54  H   0.996        C   49 0.983
    55  H   0.999        C   49 0.986
    56  H   0.998        C   49 0.984
    57  H   0.996        C   50 0.983
    58  H   0.998        C   50 0.982
    59  H   0.997        C   50 0.982
    60  N   3.468        C   46 1.289    C   61 0.996    H   66 0.901    O   47 0.197
    61  C   3.973        N   60 0.996    C   64 0.951    H   67 0.949    C   62 0.948
    62  C   3.946        O   63 1.604    N   71 1.314    C   61 0.948
    63  O   1.968        C   62 1.604    N   71 0.187
    64  C   3.957        O   65 1.012    H   68 0.970    H   69 0.962    C   61 0.951
    65  O   1.946        C   64 1.012    H   70 0.848
    66  H   0.951        N   60 0.901
    67  H   0.995        C   61 0.949
    68  H   0.996        C   64 0.970
    69  H   0.996        C   64 0.962
    70  H   0.892        O   65 0.848
    71  N   3.481        C   62 1.314    C   72 0.985    H   79 0.922    O   63 0.187
    72  C   3.967        N   71 0.985    C   75 0.954    H   80 0.945    C   73 0.941
    73  C   3.951        O   74 1.643    N   83 1.296    C   72 0.941
    74  O   1.966        C   73 1.643    N   83 0.198
    75  C   3.986        H   82 0.967    H   81 0.964    C   72 0.954    C   76 0.931
    76  C   3.934        O   77 1.502    O   78 1.468    C   75 0.931
    77  O   1.797        C   76 1.502    O   78 0.209
    78  O   1.816        C   76 1.468    O   77 0.209
    79  H   0.960        N   71 0.922
    80  H   0.995        C   72 0.945
    81  H   0.998        C   75 0.964
    82  H   0.998        C   75 0.967
    83  N   3.467        C   73 1.296    C   84 0.980    H   90 0.890    O   74 0.198
    84  C   3.959        C   85 0.984    N   83 0.980    H   91 0.956    C   87 0.913
    85  C   3.899        O   86 1.875    C   84 0.984    H  330 0.952
    86  O   2.084        C   85 1.875
    87  C   3.955        O   88 1.015    C   89 0.993    H   92 0.958    C   84 0.913
    88  O   1.976        C   87 1.015    H   93 0.847
    89  C   3.988        C   87 0.993    H   96 0.984    H   95 0.984    H   94 0.978
    90  H   0.950        N   83 0.890
    91  H   0.992        C   84 0.956
    92  H   0.995        C   87 0.958
    93  H   0.892        O   88 0.847
    94  H   0.993        C   89 0.978
    95  H   0.997        C   89 0.984
    96  H   0.997        C   89 0.984
    97  N   2.995        C   98 0.999    H  102 0.959    H  331 0.946
    98  C   3.982        N   97 0.999    C  101 0.991    C   99 0.971    H  103 0.962
    99  C   3.889        O  100 1.913    C   98 0.971    H  332 0.955
   100  O   2.040        C   99 1.913
   101  C   3.993        C   98 0.991    H  104 0.985    H  106 0.983    H  105 0.980
   102  H   0.978        N   97 0.959
   103  H   0.996        C   98 0.962
   104  H   0.998        C  101 0.985
   105  H   0.997        C  101 0.980
   106  H   0.997        C  101 0.983
   107  N   2.997        C  108 1.031    H  333 0.951    H  114 0.933
   108  C   3.987        N  107 1.031    C  109 0.949    C  111 0.944    H  115 0.942
   109  C   3.946        O  110 1.617    N  123 1.300    C  108 0.949
   110  O   1.972        C  109 1.617    N  123 0.189
   111  C   3.994        C  113 1.010    C  112 1.007    H  116 0.957    C  108 0.944
   112  C   3.995        C  111 1.007    H  118 0.985    H  119 0.983    H  117 0.980
   113  C   3.996        C  111 1.010    H  120 0.982    H  122 0.981    H  121 0.979
   114  H   0.969        N  107 0.933
   115  H   0.997        C  108 0.942
   116  H   1.000        C  111 0.957
   117  H   0.998        C  112 0.980
   118  H   0.999        C  112 0.985
   119  H   0.999        C  112 0.983
   120  H   0.999        C  113 0.982
   121  H   0.997        C  113 0.979
   122  H   0.999        C  113 0.981
   123  N   3.462        C  109 1.300    C  124 0.973    H  132 0.889    O  110 0.189
   124  C   3.960        C  127 0.974    N  123 0.973    H  133 0.953    C  125 0.938
   125  C   3.942        O  126 1.573    N  145 1.335    C  124 0.938
   126  O   1.944        C  125 1.573    N  145 0.188
   127  C   3.983        C  128 1.007    C  124 0.974    H  134 0.969    H  135 0.964
   128  C   3.991        C  127 1.007    C  129 1.005    H  136 0.973    H  137 0.972
   129  C   3.990        C  130 1.011    C  128 1.005    H  139 0.966    H  138 0.961
   130  C   3.921        C  129 1.011    H  140 0.966    N  131 0.961    H  141 0.960
   131  N   3.638        C  130 0.961    H  142 0.910    H  143 0.901    H  144 0.778
   132  H   0.951        N  123 0.889
   133  H   0.994        C  124 0.953
   134  H   0.995        C  127 0.969
   135  H   0.993        C  127 0.964
   136  H   0.996        C  128 0.973
   137  H   0.994        C  128 0.972
   138  H   0.996        C  129 0.961
   139  H   0.996        C  129 0.966
   140  H   0.988        C  130 0.966
   141  H   0.988        C  130 0.960
   142  H   0.924        N  131 0.910
   143  H   0.930        N  131 0.901
   144  H   0.913        N  131 0.778    O  233 0.115
   145  N   3.503        C  125 1.335    C  146 0.987    H  153 0.909    O  126 0.188
   146  C   3.968        N  145 0.987    C  149 0.977    H  154 0.943    C  147 0.932
   147  C   3.950        O  148 1.605    N  162 1.319    C  146 0.932
   148  O   1.974        C  147 1.605    N  162 0.192
   149  C   3.990        C  150 1.010    C  146 0.977    H  156 0.970    H  155 0.963
   150  C   3.977        C  149 1.010    S  151 0.991    H  158 0.968    H  157 0.968
   151  S   2.095        C  152 1.006    C  150 0.991
   152  C   3.977        S  151 1.006    H  160 0.981    H  159 0.980    H  161 0.979
   153  H   0.950        N  145 0.909
   154  H   0.994        C  146 0.943
   155  H   0.997        C  149 0.963
   156  H   0.995        C  149 0.970
   157  H   0.995        C  150 0.968
   158  H   0.994        C  150 0.968
   159  H   0.998        C  152 0.980
   160  H   0.995        C  152 0.981
   161  H   0.997        C  152 0.979
   162  N   3.485        C  147 1.319    C  163 0.987    H  168 0.889    O  148 0.192
   163  C   3.966        N  162 0.987    C  166 0.965    H  169 0.948    C  164 0.935
   164  C   3.956        O  165 1.593    N  173 1.346    C  163 0.935
   165  O   1.958        C  164 1.593    N  173 0.201
   166  C   3.957        O  167 0.998    H  171 0.969    C  163 0.965    H  170 0.961
   167  O   1.929        C  166 0.998    H  172 0.862
   168  H   0.950        N  162 0.889
   169  H   0.993        C  163 0.948
   170  H   0.996        C  166 0.961
   171  H   0.998        C  166 0.969
   172  H   0.875        O  167 0.862
   173  N   3.503        C  164 1.346    C  174 0.975    H  185 0.878    O  165 0.201
   174  C   3.955        C  175 0.979    N  173 0.975    H  186 0.947    C  177 0.935
   175  C   3.889        O  176 1.879    C  174 0.979    H  334 0.949
   176  O   2.077        C  175 1.879
   177  C   3.983        C  178 1.009    H  187 0.964    H  188 0.957    C  174 0.935
   178  C   3.988        C  179 1.410    C  180 1.400    C  177 1.009
   179  C   3.990        C  181 1.448    C  178 1.410    H  189 0.966    C  182 0.107
   180  C   3.989        C  182 1.463    C  178 1.400    H  190 0.964    C  181 0.104
   181  C   3.986        C  179 1.448    C  183 1.375    H  191 0.962    C  180 0.104
   182  C   3.988        C  180 1.463    C  183 1.361    H  192 0.967    C  179 0.107
   183  C   3.938        C  181 1.375    C  182 1.361    O  184 1.070
   184  O   2.099        C  183 1.070    H  193 0.866
   185  H   0.944        N  173 0.878
   186  H   0.988        C  174 0.947
   187  H   0.995        C  177 0.964
   188  H   0.993        C  177 0.957
   189  H   0.998        C  179 0.966
   190  H   0.998        C  180 0.964
   191  H   0.998        C  181 0.962
   192  H   0.997        C  182 0.967
   193  H   0.888        O  184 0.866
   194  N   2.998        C  195 1.021    H  201 0.952    H  335 0.948
   195  C   3.985        N  194 1.021    H  202 0.957    C  196 0.945    C  198 0.940
   196  C   3.941        O  197 1.601    N  208 1.319    C  195 0.945
   197  O   1.948        C  196 1.601    N  208 0.194
   198  C   3.955        C  200 1.003    O  199 0.998    H  203 0.959    C  195 0.940
   199  O   1.945        C  198 0.998    H  204 0.853
   200  C   3.990        C  198 1.003    H  206 0.985    H  205 0.983    H  207 0.981
   201  H   0.972        N  194 0.952
   202  H   0.997        C  195 0.957
   203  H   1.000        C  198 0.959
   204  H   0.898        O  199 0.853
   205  H   0.995        C  200 0.983
   206  H   0.997        C  200 0.985
   207  H   0.996        C  200 0.981
   208  N   3.479        C  196 1.319    C  209 0.986    H  216 0.880    O  197 0.194
   209  C   3.967        N  208 0.986    H  217 0.953    C  212 0.948    C  210 0.942
   210  C   3.946        O  211 1.577    N  227 1.337    C  209 0.942
   211  O   1.945        C  210 1.577    N  227 0.193
   212  C   3.986        C  214 1.007    C  213 0.997    H  218 0.966    C  209 0.948
   213  C   3.995        C  215 1.018    C  212 0.997    H  219 0.973    H  220 0.968
   214  C   3.993        C  212 1.007    H  222 0.986    H  223 0.985    H  221 0.981
   215  C   3.995        C  213 1.018    H  225 0.988    H  224 0.986    H  226 0.985
   216  H   0.946        N  208 0.880
   217  H   0.996        C  209 0.953
   218  H   0.998        C  212 0.966
   219  H   0.998        C  213 0.973
   220  H   0.999        C  213 0.968
   221  H   0.995        C  214 0.981
   222  H   0.999        C  214 0.986
   223  H   0.997        C  214 0.985
   224  H   0.998        C  215 0.986
   225  H   0.999        C  215 0.988
   226  H   0.998        C  215 0.985
   227  N   3.497        C  210 1.337    C  228 0.983    H  235 0.899    O  211 0.193
   228  C   3.966        N  227 0.983    C  231 0.969    H  236 0.947    C  229 0.930
   229  C   3.951        O  230 1.634    N  239 1.303    C  228 0.930
   230  O   1.949        C  229 1.634    N  239 0.197
   231  C   3.981        H  237 0.973    C  228 0.969    H  238 0.968    C  232 0.913
   232  C   3.935        O  234 1.530    O  233 1.457    C  231 0.913
   233  O   1.901        C  232 1.457    O  234 0.207    H  144 0.115
   234  O   1.858        C  232 1.530    O  233 0.207
   235  H   0.955        N  227 0.899
   236  H   0.995        C  228 0.947
   237  H   0.999        C  231 0.973
   238  H   0.996        C  231 0.968
   239  N   3.468        C  229 1.303    C  240 1.005    H  243 0.884    O  230 0.197
   240  C   3.968        N  239 1.005    H  245 0.949    H  244 0.947    C  241 0.943
   241  C   3.953        O  242 1.675    N  246 1.268    C  240 0.943
   242  O   1.991        C  241 1.675    N  246 0.195
   243  H   0.948        N  239 0.884
   244  H   0.990        C  240 0.947
   245  H   0.995        C  240 0.949
   246  N   3.446        C  241 1.268    C  247 1.002    H  250 0.928    O  242 0.195
   247  C   3.963        N  246 1.002    H  252 0.962    C  248 0.944    H  251 0.942
   248  C   3.950        O  249 1.629    N  253 1.303    C  247 0.944
   249  O   1.960        C  248 1.629    N  253 0.194
   250  H   0.955        N  246 0.928
   251  H   0.988        C  247 0.942
   252  H   0.992        C  247 0.962
   253  N   3.475        C  248 1.303    C  254 0.985    H  261 0.921    O  249 0.194
   254  C   3.960        N  253 0.985    C  257 0.973    H  262 0.938    C  255 0.934
   255  C   3.949        O  256 1.625    N  272 1.307    C  254 0.934
   256  O   1.939        C  255 1.625    N  272 0.198
   257  C   3.988        C  258 0.991    C  254 0.973    H  263 0.973    H  264 0.972
   258  C   3.994        C  260 1.011    C  259 1.007    C  257 0.991    H  265 0.967
   259  C   3.994        C  258 1.007    H  268 0.986    H  267 0.986    H  266 0.985
   260  C   3.995        C  258 1.011    H  270 0.986    H  269 0.985    H  271 0.983
   261  H   0.954        N  253 0.921
   262  H   0.991        C  254 0.938
   263  H   0.997        C  257 0.973
   264  H   0.997        C  257 0.972
   265  H   0.998        C  258 0.967
   266  H   0.997        C  259 0.985
   267  H   0.998        C  259 0.986
   268  H   0.998        C  259 0.986
   269  H   0.997        C  260 0.985
   270  H   0.998        C  260 0.986
   271  H   0.999        C  260 0.983
   272  N   3.477        C  255 1.307    C  273 0.992    H  277 0.891    O  256 0.198
   273  C   3.971        N  272 0.992    C  274 0.986    C  276 0.957    H  278 0.945
   274  C   3.897        O  275 1.887    C  273 0.986    H  336 0.952
   275  O   2.061        C  274 1.887
   276  C   3.982        H  281 0.980    H  279 0.978    H  280 0.976    C  273 0.957
   277  H   0.949        N  272 0.891
   278  H   0.991        C  273 0.945
   279  H   0.995        C  276 0.978
   280  H   0.994        C  276 0.976
   281  H   0.996        C  276 0.980
   282  N   3.000        C  283 1.020    H  294 0.954    H  337 0.949
   283  C   3.985        N  282 1.020    C  284 0.984    H  295 0.962    C  286 0.928
   284  C   3.899        O  285 1.882    C  283 0.984    H  338 0.955
   285  O   2.052        C  284 1.882
   286  C   3.993        C  287 1.012    H  296 0.967    H  297 0.964    C  283 0.928
   287  C   3.987        C  289 1.405    C  288 1.395    C  286 1.012
   288  C   3.989        C  290 1.462    C  287 1.395    H  298 0.967    C  291 0.103
   289  C   3.988        C  291 1.451    C  287 1.405    H  299 0.967    C  290 0.106
   290  C   3.985        C  288 1.462    C  292 1.355    H  300 0.968    C  289 0.106
   291  C   3.988        C  289 1.451    C  292 1.365    H  301 0.966    C  288 0.103
   292  C   3.932        C  291 1.365    C  290 1.355    O  293 1.082
   293  O   2.093        C  292 1.082    H  302 0.821
   294  H   0.972        N  282 0.954
   295  H   0.997        C  283 0.962
   296  H   0.997        C  286 0.967
   297  H   0.997        C  286 0.964
   298  H   0.997        C  288 0.967
   299  H   0.998        C  289 0.967
   300  H   0.997        C  290 0.968
   301  H   1.000        C  291 0.966
   302  H   0.894        O  293 0.821
   303  N   2.997        C  304 1.019    H  339 0.953    H  311 0.931
   304  C   3.987        N  303 1.019    C  305 0.975    H  312 0.956    C  307 0.955
   305  C   3.895        O  306 1.900    C  304 0.975    H  340 0.956
   306  O   2.035        C  305 1.900
   307  C   3.992        C  308 0.991    H  314 0.973    H  313 0.970    C  304 0.955
   308  C   3.995        C  310 1.010    C  309 1.006    C  307 0.991    H  315 0.967
   309  C   3.993        C  308 1.006    H  316 0.985    H  317 0.983    H  318 0.982
   310  C   3.995        C  308 1.010    H  320 0.986    H  319 0.985    H  321 0.983
   311  H   0.969        N  303 0.931
   312  H   0.997        C  304 0.956
   313  H   0.999        C  307 0.970
   314  H   0.998        C  307 0.973
   315  H   0.999        C  308 0.967
   316  H   0.997        C  309 0.985
   317  H   0.999        C  309 0.983
   318  H   0.997        C  309 0.982
   319  H   0.998        C  310 0.985
   320  H   0.998        C  310 0.986
   321  H   0.999        C  310 0.983
   322  N   3.003        C  323 1.042    H  326 0.957    H  341 0.955
   323  C   3.985        N  322 1.042    C  324 0.994    H  327 0.950    H  328 0.926
   324  C   3.895        O  325 1.881    C  323 0.994    H  342 0.953
   325  O   2.028        C  324 1.881
   326  H   0.972        N  322 0.957
   327  H   0.993        C  323 0.950
   328  H   0.991        C  323 0.926
   329  H   0.966        N    1 0.956
   330  H   0.992        C   85 0.952
   331  H   0.966        N   97 0.946
   332  H   0.995        C   99 0.955
   333  H   0.970        N  107 0.951
   334  H   0.989        C  175 0.949
   335  H   0.962        N  194 0.948
   336  H   0.992        C  274 0.952
   337  H   0.968        N  282 0.949
   338  H   0.994        C  284 0.955
   339  H   0.968        N  303 0.953
   340  H   0.996        C  305 0.956
   341  H   0.967        N  322 0.955
   342  H   0.995        C  324 0.953
 
molecular dipole:
                 x           y           z       tot (Debye)
 q only:      -10.726      -1.379     -16.404
   full:      -10.960      -1.053     -16.513      50.448
molecular quadrupole (traceless):
                xx          xy          yy          xz          yz          zz
 q only:    -4351.513   -2633.626    5772.300  -11143.585   -3349.024   -1420.787
  q+dip:    -4555.944   -2545.361    5956.424  -11285.272   -3271.684   -1400.481
   full:    -4554.990   -2546.272    5955.150  -11284.533   -3273.736   -1400.160


           -------------------------------------------------
          | TOTAL ENERGY             -525.546092099689 Eh   |
          | GRADIENT NORM               0.594540828300 Eh/α |
          | HOMO-LUMO GAP               1.202438987447 eV   |
           -------------------------------------------------

------------------------------------------------------------------------
 * finished run on 2019/05/31 at 05:35:13.456     
------------------------------------------------------------------------
 total:
 * wall-time:     0 d,  0 h,  0 min,  4.384 sec
 *  cpu-time:     0 d,  0 h,  0 min,  8.477 sec
 * ratio c/w:     1.934 speedup
 SCF:
 * wall-time:     0 d,  0 h,  0 min,  3.916 sec
 *  cpu-time:     0 d,  0 h,  0 min,  7.775 sec
 * ratio c/w:     1.985 speedup

