      -----------------------------------------------------------      
     |                   =====================                   |     
     |                           x T B                           |     
     |                   =====================                   |     
     |                         S. Grimme                         |     
     |          Mulliken Center for Theoretical Chemistry        |     
     |                    University of Bonn                     |     
     |                 Version 6.0.1 (SAW181210)                 |     
      -----------------------------------------------------------      

   This program is distributed in the hope that it will be useful,
   but WITHOUT ANY WARRANTY; without even the implied warranty of
   MERCHANTABILITY or FITNESS FOR A PARTICULAR PURPOSE.
   
   FOR NON-COMMERCIAL, ACADEMIA USE ONLY.
   
   Cite this work as:
   S. Grimme, C. Bannwarth, P. Shushkov, J. Comput. Theory Chem., 2017,
   13, 1989-2009.
   C. Bannwarth, S. Ehlert and S. Grimme., ChemRxiv, 2018, preprint.
   http://doi.org/10.26434/chemrxiv.7246238.v1
   
   for sTDA-xTB:
   S. Grimme and C. Bannwarth, J. Chem. Phys., 2016, 145, 054103.
   
   in the mass-spec context:
   V. Asgeirsson, C. Bauer and S. Grimme, Chem. Sci., 2017, 8, 4879.
   
   if GBSA is used:
   P. Shushkov, F. März and S. Grimme, unpublished.
   
   for ANC optimizer:
   S. Grimme, unpublished.
   Rational Function algorithm used in ANCopt:
   F. Eckert, P. Pulay, H.-J. Werner, J. Comput. Chem., 1997, 18, 1473.
   
   with help from (in alphabetical order)
   C. Bannwarth, F. Bohle, G. Brandenburg, E. Caldeweyher, M. Checinski,
   S. Dohm, S. Ehlert, S. Ehrlich, F. März, H. Neugebauer, J. Pisarek,
   P. Pracht, P. Shushkov, and S. Spicher.
   
 * started run on 2019/03/15 at 00:15:17.163     
========================================================================
 # omp threads = 1
========================================================================
number of atoms            : 313
number of electrons        : 826
charge                     : -1
spin                       : .0
first test random number   : .8485
           ------------------------------------------------- 
          |                 G F N 2 - x T B                 |
          | Geometry, Frequencies, Noncovalent interactions |
          |            JCTC 2018 parametrisation            |
           ------------------------------------------------- 
 
      method parameters     
 k(s)        :  1.8500
 k(p)        :  2.2300
 k(d)        :  2.2300
 k(f)        :  2.0000
 kEN (H0ij)  : -2.0000
 D4 a1       :  0.5200
 D4 a2       :  5.0000
 D4 s6       :  1.0000
 D4 s8       :  2.7000
 D4 s9       :  5.0000
 alphaj      :  2.0000

 Solvent             : h2o
 Using internal parameter file: .param_gbsa2_h2o
 Gsolv ref. state (COSMO-RS): gsolv [1 M gas/solution]
 temperature (mdtemp)       :    298.150000000000     
 dielectric constant        :    80.2000000000000     
 rho                        :    1.00000000000000     
 mass                       :    18.0000000000000     
 surface tension            :    15.5689454083859     
 probe radius               :   0.975313790000000     
 vdW radii scaling          :    1.00000000000000     
 Gshift (Eh)                :   1.857443126794793E-003
 c1                         :    1.55243817000000     
 soset                      :   0.130326360000000     
 HB correction              :  T

            Z     q(EN)     CN     RAES       Cart. coordinates
     1  N   5.0   -0.23    3.26    1.97    32.03069    64.63448    39.86161
     2  C   4.0    0.03    4.41    4.40    33.95555    64.69451    41.75890
     3  C   4.0    0.15    3.44    3.09    36.53723    65.15723    40.54579
     4  O   6.0   -0.29    1.27    1.80    37.95909    66.78629    41.36269
     5  C   4.0   -0.05    4.38    4.34    33.54094    62.67025    43.74015
     6  C   4.0   -0.04    4.30    4.19    35.49644    62.43460    45.70934
     7  C   4.0    0.25    3.18    3.03    36.27424    64.93865    46.83574
     8  O   6.0   -0.29    1.19    1.80    34.57551    66.26726    47.79446
     9  O   6.0   -0.28    1.18    1.80    38.53624    65.56111    46.71693
    10  H   1.0    0.08    1.07    1.44    31.03984    63.18511    39.95851
    11  H   1.0    0.06    1.15    1.45    33.89565    66.26059    42.89975
    12  H   1.0    0.04    1.08    1.44    31.83239    62.97735    44.60224
    13  H   1.0    0.03    1.08    1.44    33.32476    60.98130    42.84204
    14  H   1.0    0.04    1.07    1.44    34.90123    61.26233    47.12884
    15  H   1.0    0.05    1.08    1.44    37.05454    61.56099    44.97456
    16  N   5.0   -0.16    3.51    2.09    37.16690    63.79899    38.57330
    17  C   4.0    0.03    4.61    4.67    39.53367    64.14049    37.28832
    18  C   4.0    0.15    3.57    3.15    40.42268    66.52890    35.99737
    19  O   6.0   -0.32    1.33    1.80    42.46782    67.46532    36.51252
    20  C   4.0   -0.06    4.58    4.64    39.90291    62.10266    35.40245
    21  C   4.0   -0.03    4.35    4.30    42.35085    60.74744    35.82701
    22  C   4.0   -0.09    4.24    4.07    42.71372    58.65889    33.99985
    23  C   4.0   -0.08    4.32    4.23    44.49405    62.55083    35.77563
    24  H   1.0    0.08    1.12    1.45    36.17564    62.50448    37.90526
    25  H   1.0    0.06    1.16    1.46    40.63603    64.21613    38.88397
    26  H   1.0    0.03    1.08    1.44    38.40255    60.87718    35.44425
    27  H   1.0    0.04    1.09    1.44    39.85500    62.83839    33.61120
    28  H   1.0    0.04    1.12    1.45    42.28458    59.97980    37.61160
    29  H   1.0    0.04    1.04    1.43    44.36008    57.72472    34.31338
    30  H   1.0    0.04    1.04    1.43    41.29088    57.37535    34.10555
    31  H   1.0    0.04    1.04    1.44    42.75687    59.34237    32.20685
    32  H   1.0    0.04    1.04    1.43    46.16381    61.67221    36.12143
    33  H   1.0    0.05    1.04    1.44    44.61649    63.39172    34.05489
    34  H   1.0    0.06    1.07    1.44    44.28706    63.93855    37.08656
    35  N   5.0   -0.16    3.70    2.27    38.95834    67.50604    34.26436
    36  C   4.0    0.03    4.64    4.71    39.56105    69.77235    32.93091
    37  C   4.0    0.16    3.64    3.19    39.71679    71.82891    34.92775
    38  O   6.0   -0.30    1.24    1.80    41.20830    73.55698    34.84493
    39  C   4.0   -0.03    4.51    4.55    37.55480    70.42931    30.99291
    40  C   4.0   -0.05    4.49    4.53    35.55737    72.07330    32.13339
    41  C   4.0   -0.08    4.39    4.36    36.26465    68.13368    30.09203
    42  C   4.0   -0.09    4.16    3.93    33.66777    73.06271    30.39453
    43  H   1.0    0.07    1.16    1.45    37.39705    66.82096    33.83516
    44  H   1.0    0.05    1.10    1.44    41.24565    69.56801    31.97885
    45  H   1.0    0.04    1.10    1.44    38.44223    71.35501    29.52981
    46  H   1.0    0.04    1.09    1.44    34.67659    71.04919    33.52323
    47  H   1.0    0.05    1.11    1.45    36.39368    73.54080    33.07696
    48  H   1.0    0.04    1.05    1.44    34.90743    68.55124    28.80077
    49  H   1.0    0.04    1.04    1.43    37.48338    66.89303    29.28557
    50  H   1.0    0.03    1.07    1.44    35.40041    67.23905    31.55674
    51  H   1.0    0.04    1.04    1.43    32.35079    74.13299    31.29888
    52  H   1.0    0.04    1.04    1.44    34.48939    74.16181    29.05212
    53  H   1.0    0.04    1.05    1.44    32.74357    71.63535    29.50373
    54  N   5.0   -0.16    3.70    2.26    38.06184    71.57261    36.79840
    55  C   4.0    0.04    4.51    4.55    37.76449    73.21204    38.89937
    56  C   4.0    0.17    3.47    3.10    40.19680    73.44068    40.40829
    57  O   6.0   -0.30    1.34    1.80    40.57427    75.22448    41.81595
    58  C   4.0   -0.03    4.46    4.47    35.43121    72.54591    40.36854
    59  C   4.0    0.17    3.30    3.05    34.87969    74.24180    42.58013
    60  O   6.0   -0.29    1.24    1.80    33.82733    76.27813    42.20570
    61  N   5.0   -0.19    3.30    1.98    35.56580    73.46955    44.64917
    62  H   1.0    0.09    1.15    1.45    36.95378    70.20884    36.85012
    63  H   1.0    0.06    1.12    1.45    37.46975    75.03933    38.31839
    64  H   1.0    0.04    1.07    1.44    33.90866    72.51318    39.17247
    65  H   1.0    0.06    1.09    1.44    35.59302    70.72953    40.99614
    66  H   1.0    0.10    1.07    1.44    35.35677    74.38212    46.18389
    67  H   1.0    0.10    1.07    1.44    36.37831    71.89060    44.95056
    68  N   5.0   -0.14    3.62    2.18    41.87261    71.65342    40.10698
    69  C   4.0    0.04    4.51    4.55    44.24256    71.54954    41.39468
    70  C   4.0    0.15    3.43    3.09    46.25908    73.11877    40.08467
    71  O   6.0   -0.31    1.33    1.80    47.65606    74.51195    41.29272
    72  C   4.0   -0.04    4.50    4.54    44.49284    68.90135    42.42071
    73  C   4.0   -0.02    4.30    4.19    46.81967    67.78169    43.57601
    74  C   4.0   -0.07    4.25    4.11    46.10216    65.95884    45.58765
    75  C   4.0   -0.08    4.25    4.10    48.41432    66.56306    41.61476
    76  H   1.0    0.12    1.16    1.46    41.62516    70.29210    39.01440
    77  H   1.0    0.06    1.21    1.47    44.46448    72.56101    43.02486
    78  H   1.0    0.06    1.10    1.44    43.07599    68.69204    43.72586
    79  H   1.0    0.06    1.10    1.44    43.99821    67.73061    40.97585
    80  H   1.0    0.06    1.11    1.45    47.86293    69.21100    44.37344
    81  H   1.0    0.06    1.04    1.43    47.64734    65.19283    46.43016
    82  H   1.0    0.06    1.04    1.43    45.04489    66.79133    46.95949
    83  H   1.0    0.05    1.04    1.44    45.06549    64.52192    44.84874
    84  H   1.0    0.05    1.04    1.43    50.02543    65.83814    42.36681
    85  H   1.0    0.04    1.04    1.43    47.46063    65.12311    40.77684
    86  H   1.0    0.05    1.04    1.43    48.91753    67.80773    40.24165
    87  N   5.0   -0.15    3.62    2.18    46.36607    72.93339    37.61797
    88  C   4.0    0.04    4.58    4.64    48.02479    74.30287    35.96408
    89  C   4.0    0.15    3.45    3.09    47.75457    77.17971    35.88472
    90  O   6.0   -0.31    1.24    1.80    49.57477    78.57593    35.76852
    91  C   4.0   -0.04    4.22    4.05    47.76409    73.20866    33.37272
    92  S   6.0   -0.06    2.48    3.10    48.18928    69.85787    33.25031
    93  H   1.0    0.11    1.17    1.46    45.32435    71.81759    36.73839
    94  H   1.0    0.05    1.12    1.45    49.79856    74.09962    36.72882
    95  H   1.0    0.05    1.12    1.45    46.01527    73.65678    32.69220
    96  H   1.0    0.04    1.12    1.45    49.00573    74.05724    32.17024
    97  H   1.0    0.05    0.99    1.43    47.88849    69.16070    31.00916
    98  N   5.0   -0.15    3.60    2.15    45.41688    78.02505    35.94294
    99  C   4.0    0.04    4.60    4.67    44.73992    80.62629    35.92793
   100  C   4.0    0.16    3.52    3.12    45.63545    81.89423    38.31667
   101  O   6.0   -0.30    1.25    1.80    46.22603    84.09220    38.34312
   102  C   4.0    0.05    4.38    4.34    41.93865    81.11933    35.70207
   103  O   6.0   -0.26    2.18    1.85    40.88898    79.34813    34.02209
   104  C   4.0   -0.08    4.21    4.01    41.41929    83.76101    34.90791
   105  H   1.0    0.11    1.13    1.45    44.02465    76.95161    36.01914
   106  H   1.0    0.05    1.11    1.45    45.60249    81.38605    34.36444
   107  H   1.0    0.05    1.10    1.44    41.17034    80.85915    37.46951
   108  H   1.0    0.13    1.07    1.44    39.20576    79.61564    33.93969
   109  H   1.0    0.04    1.04    1.43    39.53181    84.10030    34.80484
   110  H   1.0    0.05    1.04    1.43    42.17624    85.03402    36.12970
   111  H   1.0    0.04    1.04    1.43    42.16994    84.09502    33.17345
   112  N   5.0   -0.15    3.58    2.14    45.64064    80.48102    40.38982
   113  C   4.0    0.04    4.51    4.55    46.44410    81.41131    42.79986
   114  C   4.0    0.17    3.50    3.11    49.27674    81.01960    43.20087
   115  O   6.0   -0.27    1.24    1.80    50.62376    82.68084    44.05041
   116  C   4.0   -0.03    4.44    4.45    44.96006    80.27573    44.94564
   117  C   4.0    0.17    3.34    3.06    45.61087    77.54178    45.48788
   118  O   6.0   -0.27    1.33    1.80    47.74905    77.01839    46.19266
   119  N   5.0   -0.19    3.38    2.01    43.92969    75.99603    45.17694
   120  H   1.0    0.10    1.12    1.45    45.14788    78.79306    40.41341
   121  H   1.0    0.06    1.12    1.45    46.11972    83.32850    42.77609
   122  H   1.0    0.05    1.07    1.44    45.21424    81.32945    46.54872
   123  H   1.0    0.05    1.08    1.44    43.06954    80.41041    44.57472
   124  H   1.0    0.11    1.09    1.44    44.13478    74.22989    45.43127
   125  H   1.0    0.12    1.12    1.45    42.26117    76.37398    44.62111
   126  N   5.0   -0.13    3.63    2.19    50.19349    78.81309    42.50800
   127  C   4.0    0.05    4.45    4.45    52.78270    78.09713    42.79895
   128  C   4.0    0.16    3.45    3.09    54.64748    79.57615    41.18331
   129  O   6.0   -0.30    1.26    1.80    56.88560    79.64435    41.76108
   130  C   4.0   -0.06    4.21    4.01    53.08581    75.31481    42.99769
   131  H   1.0    0.13    1.17    1.46    49.19833    77.53913    41.80448
   132  H   1.0    0.07    1.15    1.45    53.38434    78.76425    44.51616
   133  H   1.0    0.05    1.04    1.43    54.92344    74.82184    43.23727
   134  H   1.0    0.07    1.04    1.43    52.09448    74.61796    44.49212
   135  H   1.0    0.06    1.04    1.43    52.43836    74.45145    41.41647
   136  N   5.0   -0.14    3.51    2.09    53.79650    80.76623    39.18551
   137  C   4.0    0.04    4.59    4.66    55.41979    82.22077    37.56856
   138  C   4.0    0.16    3.49    3.11    56.98456    84.38800    38.57661
   139  O   6.0   -0.30    1.26    1.80    59.27171    84.38216    38.29758
   140  C   4.0   -0.05    4.53    4.58    54.03924    82.99775    35.22071
   141  C   4.0   -0.02    4.36    4.30    54.94709    81.64029    32.90295
   142  C   4.0   -0.09    4.25    4.11    53.80032    82.62072    30.56845
   143  C   4.0   -0.08    4.33    4.25    57.71576    81.79149    32.79885
   144  H   1.0    0.11    1.12    1.45    52.11458    80.72615    38.66550
   145  H   1.0    0.06    1.17    1.46    56.85628    80.95043    37.27148
   146  H   1.0    0.06    1.08    1.44    52.13811    82.72292    35.46890
   147  H   1.0    0.04    1.08    1.44    54.20916    84.90657    34.95291
   148  H   1.0    0.05    1.12    1.45    54.42537    79.77645    33.04599
   149  H   1.0    0.04    1.04    1.43    54.42282    81.66460    29.02467
   150  H   1.0    0.04    1.04    1.43    51.88660    82.47733    30.61345
   151  H   1.0    0.04    1.05    1.44    54.24704    84.47063    30.33505
   152  H   1.0    0.03    1.04    1.43    58.40847    80.85089    31.27917
   153  H   1.0    0.05    1.05    1.44    58.26530    83.62314    32.67123
   154  H   1.0    0.05    1.06    1.44    58.51341    81.04276    34.37267
   155  N   5.0   -0.14    3.48    2.06    55.78430    86.28361    39.65446
   156  C   4.0    0.01    4.37    4.33    57.08387    88.32693    40.78348
   157  C   4.0    0.16    3.45    3.09    58.00506    87.31235    43.27828
   158  O   6.0   -0.27    1.27    1.80    56.53355    87.07188    45.00207
   159  H   1.0    0.10    1.11    1.44    54.02942    86.35239    39.79351
   160  H   1.0    0.04    1.07    1.44    58.52371    88.94977    39.65471
   161  H   1.0    0.04    1.06    1.44    55.95799    89.88535    41.03317
   162  N   5.0   -0.16    3.47    2.06    60.42817    86.65933    43.48561
   163  C   4.0    0.04    4.43    4.42    61.36244    85.44361    45.71424
   164  C   4.0    0.07    3.20    3.04    64.15696    85.51609    46.49446
   165  O   6.0   -0.29    1.15    1.80    64.88312    84.21820    48.19952
   166  C   4.0   -0.00    4.50    4.53    60.49176    82.74240    45.72477
   167  C   4.0    0.18    3.29    3.05    59.71584    81.69523    48.25179
   168  O   6.0   -0.26    1.25    1.80    58.17491    82.88760    49.51722
   169  N   5.0   -0.20    3.29    1.98    60.67837    79.69554    48.92124
   170  H   1.0    0.09    1.10    1.44    61.63003    86.90670    42.22937
   171  H   1.0    0.07    1.13    1.45    60.56727    86.53505    47.10929
   172  H   1.0    0.08    1.09    1.44    59.02667    82.54827    44.47275
   173  H   1.0    0.05    1.09    1.44    61.89541    81.63815    44.99384
   174  H   1.0    0.10    1.07    1.44    60.31419    78.88621    50.48236
   175  H   1.0    0.09    1.07    1.44    61.86881    78.76037    47.95864
   176  N   5.0   -0.24    3.26    1.97    61.66202    68.50179    50.55175
   177  C   4.0    0.03    4.48    4.50    60.20240    68.25298    48.31285
   178  C   4.0    0.07    3.42    3.09    60.56962    65.83684    46.85084
   179  O   6.0   -0.32    1.18    1.80    58.83807    64.65641    45.93393
   180  C   4.0   -0.03    4.54    4.59    60.82922    70.13636    46.31514
   181  C   4.0   -0.08    4.39    4.36    59.40386    69.61406    43.98982
   182  C   4.0   -0.08    4.31    4.21    60.31726    72.69740    47.18354
   183  H   1.0    0.08    1.07    1.44    63.35197    68.89826    50.27119
   184  H   1.0    0.05    1.11    1.45    58.41213    68.43303    49.04161
   185  H   1.0    0.03    1.13    1.45    62.72715    69.93724    45.94611
   186  H   1.0    0.04    1.04    1.44    59.86661    70.85128    42.60071
   187  H   1.0    0.05    1.08    1.44    59.73469    67.84294    43.33122
   188  H   1.0    0.05    1.05    1.44    57.51946    69.77420    44.32257
   189  H   1.0    0.04    1.05    1.44    60.79022    73.98852    45.84631
   190  H   1.0    0.05    1.05    1.44    58.44812    72.90134    47.56597
   191  H   1.0    0.04    1.05    1.44    61.30012    73.11037    48.77777
   192  N   5.0   -0.23    3.33    1.99    56.97294    60.84615    50.74513
   193  C   4.0    0.03    4.45    4.46    54.32143    60.93357    50.40518
   194  C   4.0    0.15    3.55    3.14    53.57785    60.63753    47.65013
   195  O   6.0   -0.32    1.28    1.80    51.37314    60.69725    47.00204
   196  C   4.0   -0.05    4.49    4.52    53.23350    63.33743    51.36830
   197  C   4.0   -0.03    4.48    4.51    53.63248    65.45751    49.65606
   198  C   4.0    0.15    3.30    3.05    52.62168    67.92700    50.60846
   199  O   6.0   -0.29    1.24    1.80    50.88399    68.94857    49.44068
   200  N   5.0   -0.21    3.31    1.99    53.58883    68.75407    52.52898
   201  H   1.0    0.09    1.07    1.44    57.69354    62.40338    51.11993
   202  H   1.0    0.04    1.11    1.45    53.59496    59.42997    51.39843
   203  H   1.0    0.05    1.08    1.44    51.34116    63.13912    51.69660
   204  H   1.0    0.04    1.09    1.44    53.99305    63.76606    53.08857
   205  H   1.0    0.05    1.09    1.44    55.52046    65.63367    49.30581
   206  H   1.0    0.07    1.10    1.44    52.85097    65.03159    47.94035
   207  H   1.0    0.08    1.07    1.44    54.94146    67.97298    53.43172
   208  H   1.0    0.10    1.07    1.44    53.10764    70.29279    53.32338
   209  N   5.0   -0.15    3.55    2.12    55.38653    60.38276    45.96434
   210  C   4.0    0.04    4.48    4.50    54.80939    60.14732    43.34956
   211  C   4.0    0.08    3.27    3.05    54.56135    57.43824    42.57222
   212  O   6.0   -0.31    1.14    1.80    53.58840    56.83704    40.59159
   213  C   4.0   -0.04    4.46    4.48    56.63890    61.45887    41.62667
   214  C   4.0   -0.02    3.66    3.21    55.47480    63.02667    39.62758
   215  C   4.0   -0.04    3.60    3.17    54.02810    61.95388    37.76346
   216  C   4.0   -0.04    3.60    3.17    55.65604    65.61388    39.63323
   217  C   4.0   -0.05    3.50    3.11    52.83458    63.39302    36.05038
   218  C   4.0   -0.05    3.49    3.11    54.46708    67.04200    37.91755
   219  C   4.0   -0.05    3.52    3.12    53.05225    65.92647    36.12742
   220  H   1.0    0.10    1.12    1.45    57.10272    60.32988    46.34609
   221  H   1.0    0.07    1.14    1.45    53.08942    61.01633    43.11915
   222  H   1.0    0.06    1.10    1.44    57.81456    62.55749    42.69034
   223  H   1.0    0.04    1.09    1.44    57.78992    60.13796    40.82084
   224  H   1.0    0.07    1.08    1.44    53.88478    60.05205    37.72541
   225  H   1.0    0.05    1.08    1.44    56.71874    66.43569    40.98223
   226  H   1.0    0.04    1.07    1.44    51.76936    62.54539    34.70096
   227  H   1.0    0.05    1.07    1.44    54.64591    68.94811    37.99158
   228  H   1.0    0.05    1.10    1.44    52.14837    67.01177    34.83108
   229  N   5.0   -0.23    3.24    1.97    47.22123    54.16483    46.66485
   230  C   4.0    0.03    4.39    4.35    44.67053    54.23366    45.71527
   231  C   4.0    0.07    3.23    3.04    43.80860    51.79524    44.44322
   232  O   6.0   -0.31    1.16    1.80    41.61462    51.48164    43.80604
   233  C   4.0   -0.02    4.40    4.39    44.22514    56.49087    43.94589
   234  C   4.0   -0.07    4.30    4.19    41.58928    56.64413    43.04295
   235  C   4.0   -0.08    4.28    4.16    44.94435    58.87677    45.17666
   236  H   1.0    0.10    1.07    1.44    48.29295    55.24627    45.78668
   237  H   1.0    0.04    1.11    1.45    43.55771    54.42962    47.29567
   238  H   1.0    0.04    1.11    1.45    45.36290    56.20616    42.39577
   239  H   1.0    0.04    1.04    1.43    41.34369    58.11782    41.83775
   240  H   1.0    0.06    1.06    1.44    41.06656    55.04173    42.12847
   241  H   1.0    0.04    1.05    1.44    40.39686    56.89420    44.52538
   242  H   1.0    0.04    1.04    1.43    44.70420    60.37742    44.00103
   243  H   1.0    0.04    1.05    1.44    43.85783    59.17687    46.73057
   244  H   1.0    0.06    1.05    1.44    46.77948    58.86454    45.73649
   245  N   5.0   -0.27    3.30    1.98    60.65986    71.39619    27.38792
   246  C   4.0    0.03    4.28    4.15    57.99444    71.58746    28.31880
   247  C   4.0    0.03    3.26    3.05    56.54535    73.00622    26.53852
   248  O   6.0   -0.31    1.04    1.80    53.87334    72.15924    26.38799
   249  C   4.0   -0.04    4.42    4.42    58.45083    73.55200    30.71306
   250  C   4.0   -0.07    4.31    4.22    59.60521    72.15801    32.88213
   251  C   4.0   -0.09    4.23    4.06    55.59372    74.30947    31.52735
   252  C   4.0   -0.09    4.18    3.96    60.36568    73.88899    35.03401
   253  H   1.0    0.11    1.09    1.44    61.80102    72.19554    27.88111
   254  H   1.0    0.04    1.16    1.45    57.73530    70.19604    29.10615
   255  H   1.0    0.04    1.16    1.45    58.99569    74.88965    30.20035
   256  H   1.0    0.04    1.14    1.45    58.82229    71.00290    33.52094
   257  H   1.0    0.04    1.12    1.45    61.18357    71.44506    32.27537
   258  H   1.0    0.04    1.06    1.44    55.76939    75.30161    32.95486
   259  H   1.0    0.05    1.06    1.44    54.72855    75.13690    30.26430
   260  H   1.0    0.05    1.04    1.43    54.64782    72.73621    31.94026
   261  H   1.0    0.04    1.06    1.44    61.30506    73.23652    36.26977
   262  H   1.0    0.04    1.04    1.43    61.45146    75.38483    34.42503
   263  H   1.0    0.04    1.05    1.44    58.87689    74.84584    35.67592
   264  N   5.0   -0.23    3.31    1.99    53.79511    66.95647    21.40568
   265  C   4.0    0.03    4.38    4.35    51.97867    65.28952    22.48865
   266  C   4.0    0.15    3.49    3.11    49.59588    66.75151    23.13498
   267  O   6.0   -0.31    1.26    1.80    47.64285    65.67288    23.71052
   268  C   4.0   -0.05    4.47    4.49    52.98451    63.71587    24.68508
   269  C   4.0   -0.02    4.35    4.29    51.46570    63.52149    27.08194
   270  C   4.0   -0.09    4.24    4.07    52.14914    61.26129    28.59802
   271  C   4.0   -0.08    4.27    4.15    51.74738    65.87455    28.55551
   272  H   1.0    0.09    1.07    1.44    55.14204    67.31203    22.48053
   273  H   1.0    0.04    1.11    1.45    51.49059    63.97516    21.14338
   274  H   1.0    0.03    1.08    1.44    53.34822    61.92390    24.05526
   275  H   1.0    0.04    1.09    1.44    54.71850    64.41950    25.16360
   276  H   1.0    0.06    1.13    1.45    49.59948    63.31506    26.58845
   277  H   1.0    0.04    1.04    1.43    51.07974    61.13422    30.18829
   278  H   1.0    0.04    1.04    1.43    51.90108    59.64086    27.59936
   279  H   1.0    0.04    1.04    1.43    53.98891    61.34658    29.13173
   280  H   1.0    0.04    1.05    1.44    50.70040    65.82922    30.16342
   281  H   1.0    0.04    1.05    1.44    53.58263    66.12950    29.05639
   282  H   1.0    0.06    1.05    1.44    51.19915    67.41094    27.54139
   283  N   5.0   -0.15    3.55    2.12    49.74797    69.24980    23.08888
   284  C   4.0    0.04    4.52    4.56    47.67436    70.85367    23.76486
   285  C   4.0    0.08    3.31    3.06    46.09605    71.35658    21.44433
   286  O   6.0   -0.30    1.13    1.80    43.79427    71.34187    21.53956
   287  C   4.0   -0.02    4.48    4.51    48.37171    73.36898    25.00976
   288  C   4.0   -0.05    4.39    4.36    46.05816    74.92336    25.54693
   289  C   4.0   -0.08    4.35    4.29    50.12109    74.80457    23.43412
   290  C   4.0   -0.09    4.18    3.96    46.52152    77.42245    26.58465
   291  H   1.0    0.09    1.13    1.45    51.19311    70.12801    22.60073
   292  H   1.0    0.06    1.12    1.45    46.64714    69.86479    25.08823
   293  H   1.0    0.05    1.11    1.45    49.28005    72.98732    26.68454
   294  H   1.0    0.05    1.10    1.44    45.05272    75.09388    23.90195
   295  H   1.0    0.05    1.08    1.44    44.88087    73.94783    26.73214
   296  H   1.0    0.04    1.05    1.44    50.62269    76.46561    24.25419
   297  H   1.0    0.06    1.06    1.44    51.72932    73.81769    23.10236
   298  H   1.0    0.04    1.05    1.44    49.32295    75.20866    21.73678
   299  H   1.0    0.04    1.04    1.43    44.88771    78.39267    26.87800
   300  H   1.0    0.04    1.05    1.44    47.43871    77.30008    28.26644
   301  H   1.0    0.04    1.05    1.44    47.60870    78.46328    25.39373
   302  H   1.0    0.09    1.08    1.44    31.00942    65.98189    40.04615
   303  H   1.0    0.05    1.05    1.44    65.36455    86.64520    45.57910
   304  H   1.0    0.09    1.08    1.44    61.01321    69.74231    51.51752
   305  H   1.0    0.04    1.05    1.44    62.30770    65.13837    46.60123
   306  H   1.0    0.09    1.08    1.44    57.34624    59.79665    52.03033
   307  H   1.0    0.05    1.05    1.44    55.20869    56.06818    43.70136
   308  H   1.0    0.09    1.08    1.44    47.23090    54.63103    48.30043
   309  H   1.0    0.05    1.05    1.44    45.05172    50.41040    44.11469
   310  H   1.0    0.09    1.08    1.44    61.23812    69.81712    27.64232
   311  H   1.0    0.04    1.03    1.43    57.35827    74.40082    25.55601
   312  H   1.0    0.09    1.08    1.44    54.43754    66.25694    19.99483
   313  H   1.0    0.05    1.05    1.44    46.93590    71.71042    19.78889

  Z AO/shell   Hii/eV     exponent
  1     Wed Apr 25 08:07:45 CEST 2018   EN: 2.200 GM2: 0.406  GM3: 0.0800  RAES: 1.40
     1s    -10.707211    1.230000
  6     Wed Apr 25 08:07:45 CEST 2018   EN: 2.550 GM2: 0.538  GM3: 0.1500  RAES: 3.00
     2s    -13.970922    2.096432
     2p    -10.063292    1.800000
  7     Wed Apr 25 08:07:45 CEST 2018   EN: 3.040 GM2: 0.461  GM3:-0.0640  RAES: 1.90
     2s    -16.686243    2.339881
     2p    -12.523956    2.014332
  8     Wed Apr 25 08:07:45 CEST 2018   EN: 3.440 GM2: 0.452  GM3:-0.0517  RAES: 1.80
     2s    -20.229985    2.439742
     2p    -15.503117    2.137023
 16     Tue Apr 24 11:44:34 CEST 2018   EN: 2.580 GM2: 0.340  GM3:-0.0502  RAES: 3.10
     3s    -20.029654    1.981333
     3p    -11.377694    2.025643
     3d     -0.420282    1.702555
 no old-style atom pair restraining (fixing) potential

molecular fragmentation (1/2 indicates fragments):
111111111111111111111111111111111111111111111111111111111111111111111111
111111111111111111111111111111111111111111111111111111111111111111111111
111111111111111111111111111111122222222222222222222222222222222222222222
222222222222222222222222222222222222222222222222222222222222222222222222
2222222222222112222222222
# atoms in fragment 1/2:   177   136
 fragment masses (1/2) :     1257.44      823.13
CMA distance (Bohr)    :  11.683
constraining FC (au)   :  0.0500
           ------------------------------------------------- 
          |        Self-Consistent Charge Iterations        |
           ------------------------------------------------- 

 Ncao       : 754
 Nao        : 753
 Nshell     : 459
 Nel        : 826
 T(el)      :   500.0
 intcut     :    35.0
 scfconv/Eh :  0.100E-06
   qconv/e  :  0.100E-04
 intneglect :  0.100E-08
 broydamp   :      0.400
 iter      E             dE          RMSdq      gap      omega  full diag
   1   -471.7807468 -0.471781E+03  0.458E+00    2.40       0.0  T
   2   -472.9558557 -0.117511E+01  0.219E+00    0.97       1.0  T
   3   -472.9713180 -0.154623E-01  0.141E+00    2.30       1.0  T
   4   -473.1282968 -0.156979E+00  0.487E-01    0.53       1.0  T
   5   -473.1697578 -0.414610E-01  0.213E-01    0.97       1.0  T
   6   -473.1764454 -0.668756E-02  0.779E-02    0.91       1.0  T
   7   -473.1767736 -0.328209E-03  0.263E-02    0.96       1.0  T
   8   -473.1768198 -0.461843E-04  0.121E-02    0.99       1.0  T
   9   -473.1768260 -0.623275E-05  0.494E-03    1.00       1.1  T
  10   -473.1768275 -0.151640E-05  0.181E-03    1.00       3.1  T
  11   -473.1768277 -0.130464E-06  0.795E-04    1.01       7.1  T
  12   -473.1768277 -0.294433E-07  0.319E-04    1.01      17.7  T
  13   -473.1768277 -0.869932E-08  0.141E-04    1.01      40.0  T
  14   -473.1768277 -0.132974E-08  0.699E-05    1.01      80.9  T
  15   -473.1768277 -0.313833E-09  0.318E-05    1.01     177.8  T
speedup  1.00
cpu  time for SCC    3.31 s
wall time for SCC    3.31 s

   *** convergence criteria satisfied after 15 iterations ***

          eigenvalues
 #    :         401        402        403        404        405        406        407        408
 occ. :        2.000      2.000      2.000      2.000      2.000      2.000      2.000      2.000
 eps  :       -10.494    -10.466    -10.458    -10.445    -10.441    -10.127    -10.122    -10.042
 #    :         409        410        411        412        413        414        415        416
 occ. :        2.000      2.000      2.000      2.000      2.000      0.000      0.000      0.000
 eps  :       -10.025    -10.016     -9.963     -9.895     -9.643     -8.636     -7.701     -7.651
 #    :         417        418        419        420        421        422        423        424
 occ. :        0.000      0.000      0.000      0.000      0.000      0.000      0.000      0.000
 eps  :        -7.566     -7.546     -7.505     -6.724     -6.644     -6.513     -6.432     -6.356


   #   Z            q   n(s)   n(p)   n(d)      C6AA      α(0)
   1   7 N     -0.412  1.299  4.112  0.000    30.706     8.230
   2   6 C      0.026  1.029  2.945  0.000    20.146     6.392
   3   6 C      0.267  1.043  2.690  0.000    22.491     7.766
   4   8 O     -0.523  1.759  4.765  0.000    24.308     6.610
   5   6 C     -0.058  1.019  3.039  0.000    21.605     6.615
   6   6 C     -0.095  1.023  3.071  0.000    22.292     6.720
   7   6 C      0.373  1.019  2.608  0.000    20.683     7.443
   8   8 O     -0.672  1.771  4.901  0.000    27.956     7.089
   9   8 O     -0.652  1.775  4.877  0.000    27.441     7.023
  10   1 H      0.187  0.813  0.000  0.000     1.172     1.696
  11   1 H      0.034  0.966  0.000  0.000     2.525     2.485
  12   1 H      0.044  0.956  0.000  0.000     2.396     2.420
  13   1 H      0.045  0.955  0.000  0.000     2.384     2.415
  14   1 H      0.029  0.971  0.000  0.000     2.593     2.518
  15   1 H      0.021  0.979  0.000  0.000     2.723     2.580
  16   7 N     -0.188  1.233  3.955  0.000    25.072     7.437
  17   6 C      0.011  1.029  2.960  0.000    20.375     6.424
  18   6 C      0.276  1.036  2.688  0.000    22.339     7.741
  19   8 O     -0.490  1.745  4.745  0.000    23.570     6.509
  20   6 C     -0.092  1.028  3.064  0.000    22.204     6.702
  21   6 C     -0.012  1.026  2.985  0.000    20.744     6.476
  22   6 C     -0.140  0.998  3.142  0.000    23.220     6.865
  23   6 C     -0.136  0.997  3.140  0.000    23.143     6.853
  24   1 H      0.226  0.774  0.000  0.000     0.982     1.552
  25   1 H      0.084  0.916  0.000  0.000     1.936     2.175
  26   1 H      0.070  0.930  0.000  0.000     2.087     2.259
  27   1 H      0.067  0.933  0.000  0.000     2.123     2.278
  28   1 H      0.036  0.964  0.000  0.000     2.508     2.476
  29   1 H      0.056  0.944  0.000  0.000     2.246     2.343
  30   1 H      0.051  0.949  0.000  0.000     2.311     2.377
  31   1 H      0.056  0.944  0.000  0.000     2.247     2.344
  32   1 H      0.048  0.952  0.000  0.000     2.342     2.393
  33   1 H      0.049  0.951  0.000  0.000     2.325     2.385
  34   1 H      0.046  0.954  0.000  0.000     2.364     2.404
  35   7 N     -0.190  1.218  3.973  0.000    25.125     7.445
  36   6 C      0.009  1.047  2.944  0.000    20.406     6.428
  37   6 C      0.282  1.037  2.681  0.000    22.234     7.722
  38   8 O     -0.475  1.733  4.742  0.000    23.246     6.464
  39   6 C     -0.035  1.039  2.996  0.000    21.158     6.541
  40   6 C     -0.074  1.013  3.061  0.000    21.887     6.655
  41   6 C     -0.148  0.998  3.150  0.000    23.359     6.882
  42   6 C     -0.136  0.992  3.144  0.000    23.159     6.858
  43   1 H      0.220  0.780  0.000  0.000     1.011     1.575
  44   1 H      0.093  0.907  0.000  0.000     1.853     2.129
  45   1 H      0.077  0.923  0.000  0.000     2.015     2.220
  46   1 H      0.038  0.962  0.000  0.000     2.480     2.462
  47   1 H      0.035  0.965  0.000  0.000     2.521     2.483
  48   1 H      0.086  0.914  0.000  0.000     1.919     2.166
  49   1 H      0.065  0.935  0.000  0.000     2.142     2.289
  50   1 H      0.055  0.945  0.000  0.000     2.263     2.352
  51   1 H      0.054  0.946  0.000  0.000     2.271     2.356
  52   1 H      0.056  0.944  0.000  0.000     2.250     2.346
  53   1 H      0.062  0.938  0.000  0.000     2.181     2.309
  54   7 N     -0.194  1.213  3.981  0.000    25.211     7.457
  55   6 C      0.029  1.030  2.941  0.000    20.085     6.380
  56   6 C      0.270  1.036  2.694  0.000    22.441     7.758
  57   8 O     -0.511  1.733  4.778  0.000    24.033     6.573
  58   6 C     -0.112  1.027  3.085  0.000    22.604     6.764
  59   6 C      0.305  1.006  2.689  0.000    21.822     7.649
  60   8 O     -0.528  1.742  4.786  0.000    24.401     6.623
  61   7 N     -0.240  1.214  4.026  0.000    26.263     7.611
  62   1 H      0.201  0.799  0.000  0.000     1.102     1.645
  63   1 H      0.094  0.906  0.000  0.000     1.842     2.123
  64   1 H      0.094  0.906  0.000  0.000     1.839     2.121
  65   1 H      0.057  0.943  0.000  0.000     2.229     2.335
  66   1 H      0.249  0.751  0.000  0.000     0.886     1.474
  67   1 H      0.213  0.787  0.000  0.000     1.040     1.597
  68   7 N     -0.166  1.219  3.946  0.000    24.581     7.363
  69   6 C     -0.002  1.029  2.972  0.000    20.606     6.462
  70   6 C      0.268  1.039  2.694  0.000    22.479     7.764
  71   8 O     -0.497  1.742  4.754  0.000    23.708     6.528
  72   6 C     -0.085  1.026  3.059  0.000    22.096     6.687
  73   6 C     -0.006  1.023  2.982  0.000    20.637     6.460
  74   6 C     -0.122  0.997  3.125  0.000    22.853     6.810
  75   6 C     -0.128  0.998  3.130  0.000    22.969     6.827
  76   1 H      0.217  0.783  0.000  0.000     1.024     1.585
  77   1 H      0.101  0.899  0.000  0.000     1.779     2.086
  78   1 H      0.056  0.944  0.000  0.000     2.241     2.341
  79   1 H      0.067  0.933  0.000  0.000     2.121     2.278
  80   1 H      0.042  0.958  0.000  0.000     2.427     2.436
  81   1 H      0.058  0.942  0.000  0.000     2.224     2.332
  82   1 H      0.032  0.968  0.000  0.000     2.561     2.502
  83   1 H      0.040  0.960  0.000  0.000     2.444     2.445
  84   1 H      0.051  0.949  0.000  0.000     2.308     2.376
  85   1 H      0.048  0.952  0.000  0.000     2.347     2.395
  86   1 H      0.046  0.954  0.000  0.000     2.374     2.409
  87   7 N     -0.174  1.219  3.955  0.000    24.770     7.392
  88   6 C      0.024  1.036  2.940  0.000    20.148     6.386
  89   6 C      0.266  1.037  2.697  0.000    22.516     7.771
  90   8 O     -0.469  1.733  4.735  0.000    23.107     6.445
  91   6 C     -0.013  1.024  2.989  0.000    20.796     6.490
  92  16 S     -0.306  1.913  4.355  0.038   154.319    20.908
  93   1 H      0.224  0.776  0.000  0.000     0.992     1.560
  94   1 H      0.089  0.911  0.000  0.000     1.884     2.147
  95   1 H      0.071  0.929  0.000  0.000     2.078     2.254
  96   1 H      0.080  0.920  0.000  0.000     1.974     2.197
  97   1 H      0.217  0.783  0.000  0.000     1.015     1.575
  98   7 N     -0.175  1.213  3.962  0.000    24.798     7.396
  99   6 C      0.010  1.040  2.949  0.000    20.392     6.427
 100   6 C      0.276  1.033  2.691  0.000    22.334     7.740
 101   8 O     -0.464  1.730  4.734  0.000    22.997     6.430
 102   6 C      0.118  1.020  2.862  0.000    18.712     6.170
 103   8 O     -0.479  1.699  4.781  0.000    22.450     6.396
 104   6 C     -0.160  1.001  3.158  0.000    23.628     6.927
 105   1 H      0.219  0.781  0.000  0.000     1.013     1.576
 106   1 H      0.104  0.896  0.000  0.000     1.752     2.070
 107   1 H      0.023  0.977  0.000  0.000     2.694     2.567
 108   1 H      0.342  0.658  0.000  0.000     0.607     1.224
 109   1 H      0.077  0.923  0.000  0.000     2.007     2.215
 110   1 H      0.068  0.932  0.000  0.000     2.109     2.271
 111   1 H      0.079  0.921  0.000  0.000     1.988     2.205
 112   7 N     -0.190  1.215  3.975  0.000    25.126     7.445
 113   6 C      0.023  1.040  2.938  0.000    20.184     6.395
 114   6 C      0.280  1.033  2.687  0.000    22.264     7.727
 115   8 O     -0.508  1.748  4.760  0.000    23.956     6.562
 116   6 C     -0.126  1.034  3.093  0.000    22.892     6.807
 117   6 C      0.298  1.006  2.695  0.000    21.934     7.668
 118   8 O     -0.531  1.747  4.784  0.000    24.484     6.634
 119   7 N     -0.256  1.220  4.036  0.000    26.647     7.667
 120   1 H      0.190  0.810  0.000  0.000     1.158     1.686
 121   1 H      0.096  0.904  0.000  0.000     1.818     2.108
 122   1 H      0.093  0.907  0.000  0.000     1.848     2.126
 123   1 H      0.076  0.924  0.000  0.000     2.016     2.220
 124   1 H      0.220  0.780  0.000  0.000     1.011     1.575
 125   1 H      0.246  0.754  0.000  0.000     0.897     1.484
 126   7 N     -0.178  1.223  3.955  0.000    24.860     7.405
 127   6 C      0.025  1.029  2.946  0.000    20.150     6.390
 128   6 C      0.272  1.039  2.690  0.000    22.409     7.752
 129   8 O     -0.508  1.738  4.770  0.000    23.962     6.563
 130   6 C     -0.135  0.995  3.140  0.000    23.134     6.854
 131   1 H      0.227  0.773  0.000  0.000     0.979     1.550
 132   1 H      0.084  0.916  0.000  0.000     1.934     2.175
 133   1 H      0.079  0.921  0.000  0.000     1.984     2.202
 134   1 H      0.077  0.923  0.000  0.000     2.009     2.216
 135   1 H      0.064  0.936  0.000  0.000     2.154     2.295
 136   7 N     -0.178  1.224  3.955  0.000    24.864     7.406
 137   6 C      0.011  1.037  2.952  0.000    20.379     6.425
 138   6 C      0.274  1.036  2.690  0.000    22.369     7.746
 139   8 O     -0.475  1.734  4.742  0.000    23.246     6.464
 140   6 C     -0.089  1.026  3.063  0.000    22.158     6.696
 141   6 C     -0.013  1.023  2.990  0.000    20.770     6.481
 142   6 C     -0.138  0.997  3.141  0.000    23.173     6.857
 143   6 C     -0.143  0.998  3.145  0.000    23.263     6.869
 144   1 H      0.198  0.802  0.000  0.000     1.114     1.653
 145   1 H      0.101  0.899  0.000  0.000     1.771     2.081
 146   1 H      0.059  0.941  0.000  0.000     2.205     2.322
 147   1 H      0.057  0.943  0.000  0.000     2.236     2.338
 148   1 H      0.048  0.952  0.000  0.000     2.349     2.396
 149   1 H      0.061  0.939  0.000  0.000     2.182     2.310
 150   1 H      0.044  0.956  0.000  0.000     2.401     2.423
 151   1 H      0.051  0.949  0.000  0.000     2.306     2.375
 152   1 H      0.060  0.940  0.000  0.000     2.195     2.317
 153   1 H      0.051  0.949  0.000  0.000     2.310     2.376
 154   1 H      0.047  0.953  0.000  0.000     2.363     2.404
 155   7 N     -0.163  1.207  3.956  0.000    24.531     7.356
 156   6 C     -0.038  1.016  3.022  0.000    21.285     6.575
 157   6 C      0.285  1.029  2.686  0.000    22.180     7.714
 158   8 O     -0.476  1.751  4.725  0.000    23.252     6.465
 159   1 H      0.206  0.794  0.000  0.000     1.073     1.623
 160   1 H      0.095  0.905  0.000  0.000     1.828     2.114
 161   1 H      0.096  0.904  0.000  0.000     1.818     2.108
 162   7 N     -0.185  1.218  3.967  0.000    25.006     7.427
 163   6 C      0.025  1.033  2.942  0.000    20.155     6.391
 164   6 C      0.198  1.079  2.723  0.000    23.773     7.985
 165   8 O     -0.342  1.738  4.603  0.000    20.551     6.078
 166   6 C     -0.102  1.027  3.076  0.000    22.421     6.736
 167   6 C      0.306  1.009  2.685  0.000    21.798     7.645
 168   8 O     -0.555  1.758  4.796  0.000    25.021     6.707
 169   7 N     -0.244  1.213  4.031  0.000    26.361     7.625
 170   1 H      0.224  0.776  0.000  0.000     0.992     1.560
 171   1 H      0.116  0.884  0.000  0.000     1.644     2.005
 172   1 H      0.087  0.913  0.000  0.000     1.909     2.160
 173   1 H      0.072  0.928  0.000  0.000     2.066     2.248
 174   1 H      0.244  0.756  0.000  0.000     0.905     1.490
 175   1 H      0.235  0.765  0.000  0.000     0.945     1.523
 176   7 N     -0.405  1.300  4.105  0.000    30.526     8.206
 177   6 C      0.030  1.030  2.939  0.000    20.051     6.373
 178   6 C      0.198  1.085  2.717  0.000    23.791     7.992
 179   8 O     -0.377  1.745  4.632  0.000    21.223     6.177
 180   6 C     -0.017  1.027  2.990  0.000    20.817     6.484
 181   6 C     -0.131  0.994  3.138  0.000    23.025     6.833
 182   6 C     -0.135  0.993  3.142  0.000    23.103     6.844
 183   1 H      0.176  0.824  0.000  0.000     1.237     1.742
 184   1 H      0.057  0.943  0.000  0.000     2.230     2.335
 185   1 H      0.051  0.949  0.000  0.000     2.313     2.378
 186   1 H      0.055  0.945  0.000  0.000     2.263     2.352
 187   1 H      0.047  0.953  0.000  0.000     2.357     2.401
 188   1 H      0.046  0.954  0.000  0.000     2.372     2.408
 189   1 H      0.055  0.945  0.000  0.000     2.260     2.351
 190   1 H      0.046  0.954  0.000  0.000     2.365     2.405
 191   1 H      0.054  0.946  0.000  0.000     2.264     2.353
 192   7 N     -0.408  1.291  4.117  0.000    30.581     8.213
 193   6 C      0.031  1.030  2.940  0.000    20.059     6.376
 194   6 C      0.271  1.042  2.687  0.000    22.429     7.757
 195   8 O     -0.521  1.750  4.771  0.000    24.253     6.603
 196   6 C     -0.069  1.012  3.057  0.000    21.785     6.640
 197   6 C     -0.107  1.017  3.089  0.000    22.500     6.747
 198   6 C      0.298  1.010  2.692  0.000    21.944     7.670
 199   8 O     -0.563  1.767  4.796  0.000    25.224     6.734
 200   7 N     -0.251  1.214  4.038  0.000    26.536     7.651
 201   1 H      0.175  0.825  0.000  0.000     1.243     1.746
 202   1 H      0.055  0.945  0.000  0.000     2.259     2.350
 203   1 H      0.045  0.955  0.000  0.000     2.383     2.414
 204   1 H      0.055  0.945  0.000  0.000     2.262     2.352
 205   1 H      0.071  0.929  0.000  0.000     2.070     2.250
 206   1 H      0.060  0.940  0.000  0.000     2.199     2.319
 207   1 H      0.238  0.762  0.000  0.000     0.932     1.512
 208   1 H      0.236  0.764  0.000  0.000     0.939     1.518
 209   7 N     -0.170  1.214  3.955  0.000    24.668     7.377
 210   6 C      0.026  1.030  2.944  0.000    20.122     6.384
 211   6 C      0.203  1.079  2.719  0.000    23.692     7.972
 212   8 O     -0.368  1.747  4.621  0.000    21.048     6.151
 213   6 C     -0.092  1.020  3.072  0.000    22.224     6.707
 214   6 C      0.005  1.070  2.925  0.000    27.899     8.664
 215   6 C     -0.051  1.062  2.989  0.000    29.260     8.873
 216   6 C     -0.051  1.060  2.991  0.000    29.267     8.874
 217   6 C     -0.036  1.056  2.980  0.000    28.885     8.815
 218   6 C     -0.039  1.054  2.984  0.000    28.961     8.827
 219   6 C     -0.041  1.058  2.984  0.000    29.024     8.837
 220   1 H      0.228  0.772  0.000  0.000     0.974     1.546
 221   1 H      0.106  0.894  0.000  0.000     1.733     2.059
 222   1 H      0.100  0.900  0.000  0.000     1.785     2.089
 223   1 H      0.068  0.932  0.000  0.000     2.106     2.269
 224   1 H      0.053  0.947  0.000  0.000     2.286     2.364
 225   1 H      0.046  0.954  0.000  0.000     2.375     2.410
 226   1 H      0.041  0.959  0.000  0.000     2.436     2.440
 227   1 H      0.040  0.960  0.000  0.000     2.452     2.448
 228   1 H      0.048  0.952  0.000  0.000     2.344     2.394
 229   7 N     -0.400  1.295  4.106  0.000    30.379     8.186
 230   6 C      0.027  1.043  2.930  0.000    20.120     6.387
 231   6 C      0.196  1.090  2.714  0.000    23.819     7.993
 232   8 O     -0.384  1.755  4.629  0.000    21.361     6.197
 233   6 C     -0.008  1.033  2.976  0.000    20.686     6.468
 234   6 C     -0.130  0.994  3.135  0.000    23.005     6.832
 235   6 C     -0.122  0.992  3.129  0.000    22.845     6.808
 236   1 H      0.169  0.831  0.000  0.000     1.275     1.769
 237   1 H      0.066  0.934  0.000  0.000     2.130     2.282
 238   1 H      0.044  0.956  0.000  0.000     2.396     2.420
 239   1 H      0.042  0.958  0.000  0.000     2.418     2.432
 240   1 H      0.065  0.935  0.000  0.000     2.140     2.288
 241   1 H      0.039  0.961  0.000  0.000     2.466     2.456
 242   1 H      0.042  0.958  0.000  0.000     2.420     2.433
 243   1 H      0.036  0.964  0.000  0.000     2.496     2.470
 244   1 H      0.057  0.943  0.000  0.000     2.234     2.337
 245   7 N     -0.443  1.249  4.195  0.000    31.601     8.349
 246   6 C      0.033  1.028  2.939  0.000    20.061     6.384
 247   6 C      0.147  1.132  2.721  0.000    24.788     8.154
 248   8 O     -0.482  1.869  4.612  0.000    23.396     6.485
 249   6 C     -0.039  1.050  2.989  0.000    21.251     6.559
 250   6 C     -0.100  0.970  3.130  0.000    22.392     6.735
 251   6 C     -0.159  0.975  3.185  0.000    23.651     6.935
 252   6 C     -0.146  0.970  3.176  0.000    23.348     6.886
 253   1 H      0.204  0.796  0.000  0.000     1.085     1.632
 254   1 H      0.109  0.891  0.000  0.000     1.700     2.039
 255   1 H      0.097  0.903  0.000  0.000     1.815     2.107
 256   1 H      0.095  0.905  0.000  0.000     1.829     2.115
 257   1 H      0.065  0.935  0.000  0.000     2.137     2.286
 258   1 H      0.065  0.935  0.000  0.000     2.135     2.285
 259   1 H      0.058  0.942  0.000  0.000     2.226     2.333
 260   1 H      0.053  0.947  0.000  0.000     2.284     2.363
 261   1 H      0.074  0.926  0.000  0.000     2.039     2.233
 262   1 H      0.038  0.962  0.000  0.000     2.477     2.461
 263   1 H      0.041  0.959  0.000  0.000     2.436     2.441
 264   7 N     -0.411  1.301  4.109  0.000    30.671     8.225
 265   6 C      0.027  1.036  2.936  0.000    20.119     6.387
 266   6 C      0.274  1.044  2.682  0.000    22.361     7.744
 267   8 O     -0.520  1.750  4.769  0.000    24.220     6.598
 268   6 C     -0.085  1.030  3.054  0.000    22.090     6.687
 269   6 C     -0.015  1.025  2.990  0.000    20.807     6.487
 270   6 C     -0.132  0.998  3.134  0.000    23.056     6.841
 271   6 C     -0.129  0.996  3.133  0.000    22.994     6.830
 272   1 H      0.174  0.826  0.000  0.000     1.246     1.749
 273   1 H      0.050  0.950  0.000  0.000     2.316     2.380
 274   1 H      0.045  0.955  0.000  0.000     2.385     2.415
 275   1 H      0.053  0.947  0.000  0.000     2.282     2.362
 276   1 H      0.045  0.955  0.000  0.000     2.388     2.416
 277   1 H      0.045  0.955  0.000  0.000     2.379     2.412
 278   1 H      0.041  0.959  0.000  0.000     2.436     2.441
 279   1 H      0.047  0.953  0.000  0.000     2.353     2.398
 280   1 H      0.043  0.957  0.000  0.000     2.404     2.425
 281   1 H      0.048  0.952  0.000  0.000     2.340     2.392
 282   1 H      0.041  0.959  0.000  0.000     2.438     2.442
 283   7 N     -0.174  1.216  3.958  0.000    24.765     7.391
 284   6 C      0.020  1.040  2.940  0.000    20.221     6.401
 285   6 C      0.206  1.083  2.711  0.000    23.625     7.961
 286   8 O     -0.376  1.755  4.621  0.000    21.203     6.174
 287   6 C     -0.020  1.038  2.982  0.000    20.883     6.498
 288   6 C     -0.068  1.009  3.059  0.000    21.787     6.641
 289   6 C     -0.142  0.993  3.149  0.000    23.244     6.867
 290   6 C     -0.130  0.991  3.139  0.000    23.032     6.839
 291   1 H      0.222  0.778  0.000  0.000     0.999     1.566
 292   1 H      0.085  0.915  0.000  0.000     1.925     2.170
 293   1 H      0.066  0.934  0.000  0.000     2.126     2.280
 294   1 H      0.041  0.959  0.000  0.000     2.432     2.439
 295   1 H      0.036  0.964  0.000  0.000     2.503     2.474
 296   1 H      0.067  0.933  0.000  0.000     2.114     2.273
 297   1 H      0.070  0.930  0.000  0.000     2.089     2.260
 298   1 H      0.043  0.957  0.000  0.000     2.415     2.430
 299   1 H      0.051  0.949  0.000  0.000     2.307     2.375
 300   1 H      0.039  0.961  0.000  0.000     2.457     2.451
 301   1 H      0.059  0.941  0.000  0.000     2.213     2.326
 302   1 H      0.185  0.815  0.000  0.000     1.184     1.705
 303   1 H      0.088  0.912  0.000  0.000     1.902     2.157
 304   1 H      0.188  0.812  0.000  0.000     1.168     1.693
 305   1 H      0.072  0.928  0.000  0.000     2.066     2.248
 306   1 H      0.191  0.809  0.000  0.000     1.151     1.680
 307   1 H      0.069  0.931  0.000  0.000     2.092     2.262
 308   1 H      0.184  0.816  0.000  0.000     1.188     1.708
 309   1 H      0.075  0.925  0.000  0.000     2.033     2.229
 310   1 H      0.181  0.819  0.000  0.000     1.209     1.722
 311   1 H      0.113  0.887  0.000  0.000     1.667     2.019
 312   1 H      0.187  0.813  0.000  0.000     1.176     1.699
 313   1 H      0.073  0.927  0.000  0.000     2.057     2.242

 Mol. C6AA /au·bohr⁶  :     877340.259800
 Mol. C8AA /au·bohr⁸  :   19573925.164341
 Mol. α(0) /au        :       1400.923689

 
molecular dipole:
                 x           y           z       tot (Debye)
 q only:      -35.063     -72.857     -50.243
   full:      -36.563     -73.790     -49.098     243.700
molecular quadrupole (traceless):
                xx          xy          yy          xz          yz          zz
 q only:     2898.691   -3978.233   -3685.035   -2706.731   -5541.963     786.344
  q+dip:     2800.784   -4202.619   -3820.979   -2732.524   -5489.177    1020.195
   full:     2799.648   -4203.067   -3821.341   -2733.389   -5488.444    1021.693
speedup  1.00
cpu  time for grad    4.36 s
wall time for grad    4.36 s

SCC energy    :    -473.1907511
rep           :       8.7490575
ES            :       1.3983493
AES           :      -0.0019466
AXC           :       0.0997666
disp          :      -0.3841336
XB            :       0.0000000
fix           :       0.0000000
Gborn         :       0.0000000
Gsasa         :       0.0000000
Ghb           :       0.0000000
Gshift        :       0.0000000
Gsolv         :      -0.2982914     -187.18
Etot ala COSMO:    -473.1907511
grad norm     :       1.6772451
total E       :    -464.4078590
atomizationE  :      84.8683922    53255.72
(atE without considering molecular charge,
 total energy contains solvation terms)
H-L gap (eV)  :          1.0064

------------------------------------------------------------------------
 * finished run on 2019/03/15 at 00:15:22.027     
------------------------------------------------------------------------
 total:
 * wall-time:     0 d,  0 h,  0 min,  4.863 sec
 *  cpu-time:     0 d,  0 h,  0 min,  4.730 sec
 * ratio c/w:     0.973 speedup
 SCF:
 * wall-time:     0 d,  0 h,  0 min,  4.639 sec
 *  cpu-time:     0 d,  0 h,  0 min,  4.637 sec
 * ratio c/w:     1.000 speedup

