      -----------------------------------------------------------      
     |                   =====================                   |     
     |                           x T B                           |     
     |                   =====================                   |     
     |                         S. Grimme                         |     
     |          Mulliken Center for Theoretical Chemistry        |     
     |                    University of Bonn                     |     
     |                 Version 6.0.1 (SAW181210)                 |     
      -----------------------------------------------------------      

   This program is distributed in the hope that it will be useful,
   but WITHOUT ANY WARRANTY; without even the implied warranty of
   MERCHANTABILITY or FITNESS FOR A PARTICULAR PURPOSE.
   
   FOR NON-COMMERCIAL, ACADEMIA USE ONLY.
   
   Cite this work as:
   S. Grimme, C. Bannwarth, P. Shushkov, J. Comput. Theory Chem., 2017,
   13, 1989-2009.
   C. Bannwarth, S. Ehlert and S. Grimme., ChemRxiv, 2018, preprint.
   http://doi.org/10.26434/chemrxiv.7246238.v1
   
   for sTDA-xTB:
   S. Grimme and C. Bannwarth, J. Chem. Phys., 2016, 145, 054103.
   
   in the mass-spec context:
   V. Asgeirsson, C. Bauer and S. Grimme, Chem. Sci., 2017, 8, 4879.
   
   if GBSA is used:
   P. Shushkov, F. März and S. Grimme, unpublished.
   
   for ANC optimizer:
   S. Grimme, unpublished.
   Rational Function algorithm used in ANCopt:
   F. Eckert, P. Pulay, H.-J. Werner, J. Comput. Chem., 1997, 18, 1473.
   
   with help from (in alphabetical order)
   C. Bannwarth, F. Bohle, G. Brandenburg, E. Caldeweyher, M. Checinski,
   S. Dohm, S. Ehlert, S. Ehrlich, F. März, H. Neugebauer, J. Pisarek,
   P. Pracht, P. Shushkov, and S. Spicher.
   
 * started run on 2019/02/13 at 00:18:31.956     
========================================================================
 # omp threads = 16
========================================================================
number of atoms            : 304
number of electrons        : 852
charge                     : -1
spin                       : .0
first test random number   : .5299

########################################################################
# WARNING! Please study the warnings concerning your input carefully
#  - Process number higher than OMP_NUM_THREADS, I hope you know what you are doing.
########################################################################

           ------------------------------------------------- 
          |                 G F N 2 - x T B                 |
          | Geometry, Frequencies, Noncovalent interactions |
          |            JCTC 2018 parametrisation            |
           ------------------------------------------------- 
 
      method parameters     
 k(s)        :  1.8500
 k(p)        :  2.2300
 k(d)        :  2.2300
 k(f)        :  2.0000
 kEN (H0ij)  : -2.0000
 D4 a1       :  0.5200
 D4 a2       :  5.0000
 D4 s6       :  1.0000
 D4 s8       :  2.7000
 D4 s9       :  5.0000
 alphaj      :  2.0000

 Solvent             : h2o
 Using internal parameter file: .param_gbsa2_h2o
 Gsolv ref. state (COSMO-RS): gsolv [1 M gas/solution]
 temperature (mdtemp)       :    298.150000000000     
 dielectric constant        :    80.2000000000000     
 rho                        :    1.00000000000000     
 mass                       :    18.0000000000000     
 surface tension            :    15.5689454083859     
 probe radius               :   0.975313790000000     
 vdW radii scaling          :    1.00000000000000     
 Gshift (Eh)                :   1.857443126794793E-003
 c1                         :    1.55243817000000     
 soset                      :   0.130326360000000     
 HB correction              :  T

            Z     q(EN)     CN     RAES       Cart. coordinates
     1  N   5.0   -0.19    3.24    1.97   332.22063   118.97111   222.61993
     2  C   4.0    0.03    4.31    4.23   329.71835   118.13443   223.33614
     3  C   4.0    0.15    3.38    3.07   329.78575   117.03343   226.02014
     4  O   6.0   -0.29    1.24    1.80   331.74646   116.92847   227.24075
     5  C   4.0   -0.03    4.31    4.22   328.59857   116.35767   221.32359
     6  C   4.0   -0.01    3.55    3.14   330.12319   114.00567   220.87349
     7  C   4.0   -0.04    3.46    3.10   329.58687   111.78382   222.17145
     8  C   4.0   -0.05    3.47    3.10   332.03990   113.97761   219.07526
     9  C   4.0   -0.04    3.43    3.09   330.87637   109.57775   221.64456
    10  C   4.0   -0.05    3.43    3.09   333.34956   111.77833   218.53913
    11  C   4.0    0.06    3.45    3.09   332.74467   109.55104   219.79161
    12  O   6.0   -0.25    2.11    1.84   333.90776   107.32781   219.25917
    13  H   1.0    0.09    1.03    1.43   333.43480   117.58912   222.11516
    14  H   1.0    0.05    1.06    1.44   328.52111   119.81920   223.42051
    15  H   1.0    0.06    1.03    1.43   326.67944   115.86048   221.88836
    16  H   1.0    0.05    1.03    1.43   328.46293   117.46214   219.58414
    17  H   1.0    0.07    1.03    1.43   328.10239   111.76814   223.57299
    18  H   1.0    0.05    1.03    1.43   332.46077   115.68321   218.03031
    19  H   1.0    0.06    1.03    1.43   330.39276   107.84778   222.60712
    20  H   1.0    0.05    1.03    1.43   334.79407   111.77565   217.09480
    21  H   1.0    0.11    1.04    1.43   335.11353   107.55628   217.90652
    22  N   5.0   -0.14    3.47    2.06   327.54788   116.26153   226.91192
    23  C   4.0    0.04    4.47    4.50   327.13349   115.62973   229.54179
    24  C   4.0    0.15    3.41    3.08   326.15398   112.90068   229.76707
    25  O   6.0   -0.30    1.27    1.80   323.91033   112.41874   230.01292
    26  C   4.0    0.07    4.24    4.09   325.23816   117.50729   230.72901
    27  O   6.0   -0.25    2.12    1.84   326.12559   119.99883   230.30635
    28  C   4.0   -0.07    4.08    3.76   324.94665   117.00167   233.55868
    29  H   1.0    0.11    1.10    1.44   325.95184   116.35872   225.85799
    30  H   1.0    0.06    1.06    1.44   328.95996   115.82475   230.49031
    31  H   1.0    0.06    1.04    1.43   323.41713   117.24424   229.77762
    32  H   1.0    0.15    1.06    1.44   324.76629   120.97193   229.55441
    33  H   1.0    0.04    1.00    1.43   323.69529   118.41190   234.36635
    34  H   1.0    0.05    1.00    1.43   324.15788   115.13199   233.84098
    35  H   1.0    0.04    1.00    1.43   326.77579   117.14894   234.47775
    36  N   5.0   -0.14    3.42    2.03   328.01586   111.18840   229.80879
    37  C   4.0    0.03    4.33    4.25   327.65838   108.47399   229.92865
    38  C   4.0    0.15    3.41    3.08   326.51178   107.37709   227.51420
    39  O   6.0   -0.30    1.24    1.80   325.10703   108.56651   226.12905
    40  C   4.0   -0.06    4.13    3.86   325.94819   107.68792   232.13939
    41  H   1.0    0.08    1.06    1.44   329.81916   111.79183   229.48299
    42  H   1.0    0.03    1.06    1.44   329.51038   107.61482   230.20821
    43  H   1.0    0.05    1.00    1.43   325.72234   105.64621   232.10054
    44  H   1.0    0.04    1.00    1.43   326.84202   108.28345   233.88680
    45  H   1.0    0.07    1.01    1.43   324.11363   108.58568   231.92314
    46  N   5.0   -0.15    3.43    2.04   327.17124   104.93997   227.11637
    47  C   4.0    0.04    4.37    4.33   325.61222   103.26516   225.59668
    48  C   4.0    0.10    3.32    3.06   324.73048   101.11439   227.31310
    49  O   6.0   -0.28    1.12    1.80   323.06054   101.49281   228.88836
    50  C   4.0   -0.04    4.22    4.04   326.75068   102.34272   223.13379
    51  C   4.0    0.24    3.14    3.03   324.74589   100.57953   221.84716
    52  O   6.0   -0.28    1.28    1.80   323.03272    99.75521   223.25964
    53  O   6.0   -0.29    1.16    1.80   325.00469   100.17504   219.54933
    54  H   1.0    0.07    1.07    1.44   328.37825   104.10626   228.34294
    55  H   1.0    0.07    1.08    1.44   323.89350   104.31174   225.12035
    56  H   1.0    0.05    1.02    1.43   327.13454   103.90085   221.84211
    57  H   1.0    0.04    1.02    1.43   328.47796   101.24671   223.37473
    58  N   5.0   -0.20    3.25    1.97   330.25593   105.13084   208.55785
    59  C   4.0    0.03    4.30    4.20   330.09640   104.21756   211.13559
    60  C   4.0    0.08    3.24    3.04   328.87909   101.59994   210.96799
    61  O   6.0   -0.28    1.13    1.80   326.81872   101.28542   209.96634
    62  C   4.0   -0.02    4.32    4.24   328.51186   105.98672   212.83759
    63  C   4.0   -0.05    4.20    3.99   329.58314   108.67659   212.72352
    64  C   4.0   -0.07    4.12    3.84   328.45850   104.96709   215.53563
    65  C   4.0   -0.08    4.01    3.65   328.09762   110.57713   214.30067
    66  H   1.0    0.10    1.03    1.43   328.73160   104.81107   207.43798
    67  H   1.0    0.03    1.05    1.44   332.02855   104.11195   211.86469
    68  H   1.0    0.05    1.05    1.44   326.59190   106.00746   212.07249
    69  H   1.0    0.04    1.03    1.43   331.54773   108.65101   213.34946
    70  H   1.0    0.04    1.03    1.43   329.57470   109.29860   210.75408
    71  H   1.0    0.05    1.00    1.43   327.24408   106.13454   216.70986
    72  H   1.0    0.06    1.00    1.43   327.71382   103.05279   215.60210
    73  H   1.0    0.05    1.00    1.43   330.34347   104.97645   216.35055
    74  H   1.0    0.04    1.00    1.43   328.77161   112.48340   213.92674
    75  H   1.0    0.04    1.00    1.43   326.09569   110.50112   213.84810
    76  H   1.0    0.04    1.00    1.43   328.31289   110.22568   216.31125
    77  N   5.0   -0.19    3.24    1.97   323.49415   111.76424   202.89196
    78  C   4.0    0.03    4.22    4.04   321.92154   113.87811   203.59849
    79  C   4.0    0.07    3.21    3.04   323.08293   116.36953   202.70854
    80  O   6.0   -0.29    1.13    1.80   325.36115   116.64668   202.41661
    81  C   4.0   -0.04    4.32    4.24   321.65797   114.01068   206.49901
    82  C   4.0   -0.02    3.56    3.14   320.78405   111.55070   207.62942
    83  C   4.0   -0.05    3.47    3.10   318.44211   110.52460   207.02153
    84  C   4.0   -0.05    3.47    3.10   322.29041   110.28710   209.36525
    85  C   4.0   -0.04    3.43    3.09   317.61887   108.30783   208.12712
    86  C   4.0   -0.05    3.44    3.09   321.45579   108.10603   210.53385
    87  C   4.0    0.07    3.45    3.09   319.10535   107.10435   209.93328
    88  O   6.0   -0.23    2.11    1.84   318.21675   104.97877   211.06826
    89  H   1.0    0.09    1.02    1.43   325.24342   111.65313   203.66853
    90  H   1.0    0.03    1.05    1.44   320.07652   113.57893   202.71036
    91  H   1.0    0.04    1.03    1.43   323.49764   114.50919   207.29185
    92  H   1.0    0.03    1.03    1.43   320.32227   115.50932   206.98016
    93  H   1.0    0.04    1.03    1.43   317.19974   111.47506   205.71204
    94  H   1.0    0.04    1.03    1.43   324.12798   111.03993   209.83776
    95  H   1.0    0.06    1.03    1.43   315.79889   107.52569   207.63931
    96  H   1.0    0.05    1.03    1.43   322.61097   107.19099   211.94789
    97  H   1.0    0.13    1.04    1.43   319.33929   104.49215   212.42556
    98  N   5.0   -0.22    3.24    1.97   319.63664   124.78969   209.66678
    99  C   4.0    0.03    4.31    4.22   317.91002   123.21785   211.08595
   100  C   4.0    0.15    3.39    3.07   319.22177   121.44608   212.97243
   101  O   6.0   -0.30    1.22    1.80   318.04964   120.53674   214.74059
   102  C   4.0   -0.05    4.27    4.13   316.27664   121.66339   209.26424
   103  C   4.0   -0.06    4.15    3.90   314.31466   123.23448   207.82034
   104  C   4.0   -0.05    4.16    3.92   312.19113   124.17654   209.55871
   105  C   4.0   -0.05    4.10    3.81   309.70045   124.76049   208.21784
   106  N   5.0   -0.13    4.00    2.86   309.90616   127.00927   206.52270
   107  H   1.0    0.08    1.02    1.43   320.40629   124.01171   208.09270
   108  H   1.0    0.05    1.06    1.44   316.74176   124.46451   212.25393
   109  H   1.0    0.04    1.03    1.43   317.56108   120.73283   207.94408
   110  H   1.0    0.04    1.03    1.43   315.33428   120.19564   210.36485
   111  H   1.0    0.03    1.02    1.43   315.29603   124.80385   206.91475
   112  H   1.0    0.03    1.03    1.43   313.51162   122.00449   206.37412
   113  H   1.0    0.04    1.03    1.43   311.79666   122.70528   210.94734
   114  H   1.0    0.04    1.02    1.43   312.82528   125.82785   210.61407
   115  H   1.0    0.03    1.02    1.43   309.08630   123.13848   207.10730
   116  H   1.0    0.03    1.02    1.43   308.26484   125.15341   209.64230
   117  H   1.0    0.04    1.00    1.43   308.12116   127.80583   206.14879
   118  H   1.0    0.05    1.03    1.43   311.01525   128.34026   207.40827
   119  H   1.0    0.05    1.02    1.43   310.74621   126.50781   204.84468
   120  N   5.0   -0.15    3.48    2.06   321.64760   120.89572   212.47048
   121  C   4.0    0.03    4.34    4.28   323.19266   119.45011   214.18653
   122  C   4.0    0.15    3.44    3.09   324.31617   121.02107   216.34796
   123  O   6.0   -0.32    1.34    1.80   324.67067   120.02385   218.41632
   124  C   4.0   -0.08    4.11    3.83   325.35900   118.19213   212.76078
   125  H   1.0    0.07    1.08    1.44   322.57906   121.83638   211.09369
   126  H   1.0    0.06    1.06    1.44   321.97820   118.02580   215.07837
   127  H   1.0    0.04    1.00    1.43   326.49499   117.09191   214.07127
   128  H   1.0    0.04    1.00    1.43   324.61866   116.96551   211.29049
   129  H   1.0    0.04    1.00    1.43   326.53704   119.64787   211.90754
   130  N   5.0   -0.13    3.47    2.06   324.88513   123.41392   215.83866
   131  C   4.0    0.04    4.43    4.42   326.08613   125.06485   217.67102
   132  C   4.0    0.16    3.53    3.13   324.74588   124.76695   220.21322
   133  O   6.0   -0.29    1.25    1.80   322.51069   125.30816   220.46132
   134  C   4.0   -0.04    4.29    4.17   325.81905   127.83023   216.87799
   135  C   4.0   -0.04    4.17    3.94   327.45659   128.50733   214.61728
   136  C   4.0    0.24    3.10    3.02   330.34115   128.17545   215.11738
   137  O   6.0   -0.29    1.17    1.80   331.16585   128.68051   217.26075
   138  O   6.0   -0.29    1.16    1.80   331.61157   127.45972   213.25425
   139  H   1.0    0.07    1.07    1.44   324.78825   124.05442   214.04199
   140  H   1.0    0.05    1.05    1.44   328.09341   124.57157   217.86193
   141  H   1.0    0.05    1.03    1.43   323.82602   128.19864   216.47409
   142  H   1.0    0.06    1.03    1.43   326.39850   129.00392   218.47464
   143  H   1.0    0.05    1.03    1.43   327.00353   127.35367   212.97371
   144  H   1.0    0.04    1.02    1.43   327.16782   130.49304   214.12134
   145  N   5.0   -0.14    3.37    2.01   326.18383   123.92391   222.11747
   146  C   4.0    0.02    4.25    4.09   325.21182   123.68689   224.65318
   147  C   4.0    0.16    3.36    3.07   323.07669   121.77806   224.99928
   148  O   6.0   -0.31    1.30    1.80   322.18573   121.43679   227.12745
   149  H   1.0    0.08    1.06    1.44   328.07489   123.68536   221.88223
   150  H   1.0    0.05    1.03    1.43   326.76719   123.20176   225.91968
   151  H   1.0    0.06    1.03    1.43   324.41545   125.49813   225.27955
   152  N   5.0   -0.12    3.51    2.09   322.19417   120.59484   222.97418
   153  C   4.0    0.05    4.50    4.54   319.95556   119.04772   223.18992
   154  C   4.0    0.16    3.50    3.12   320.45913   116.86154   224.99966
   155  O   6.0   -0.30    1.28    1.80   322.47968   115.73690   225.04269
   156  C   4.0   -0.03    4.30    4.20   319.11588   117.93549   220.65586
   157  C   4.0    0.05    3.82    3.36   316.70792   116.53041   221.08285
   158  N   5.0   -0.17    2.55    1.90   314.64256   117.70872   222.09635
   159  C   4.0   -0.00    3.60    3.17   316.18658   114.01764   220.77705
   160  C   4.0    0.08    3.64    3.19   312.92315   115.95341   222.36202
   161  N   5.0   -0.11    3.45    2.05   313.76033   113.67505   221.58465
   162  H   1.0    0.12    1.13    1.45   323.11528   120.62084   221.29266
   163  H   1.0    0.06    1.06    1.44   318.42350   120.21835   223.94586
   164  H   1.0    0.07    1.03    1.43   318.82550   119.46071   219.29734
   165  H   1.0    0.05    1.03    1.43   320.55703   116.64852   219.93624
   166  H   1.0    0.06    1.03    1.43   317.30505   112.49610   220.06590
   167  H   1.0    0.07    1.03    1.43   311.08269   116.28534   223.13536
   168  H   1.0    0.11    1.07    1.44   312.86758   111.98480   221.69597
   169  N   5.0   -0.14    3.47    2.06   318.51580   116.31109   226.52334
   170  C   4.0    0.05    4.45    4.46   318.59023   114.27767   228.34780
   171  C   4.0    0.16    3.45    3.09   317.29637   111.93342   227.24273
   172  O   6.0   -0.30    1.26    1.80   315.01666   111.56786   227.42640
   173  C   4.0   -0.03    4.32    4.24   317.31744   115.11614   230.79923
   174  C   4.0    0.15    3.24    3.04   317.76392   113.19127   232.86765
   175  O   6.0   -0.32    1.31    1.80   317.80221   110.90250   232.46453
   176  N   5.0   -0.20    3.19    1.95   318.05504   114.13557   235.18052
   177  H   1.0    0.09    1.07    1.44   316.82638   117.13793   226.18430
   178  H   1.0    0.08    1.09    1.44   320.58395   113.83191   228.67999
   179  H   1.0    0.04    1.03    1.43   318.04214   116.96858   231.32755
   180  H   1.0    0.06    1.03    1.43   315.28120   115.25325   230.46122
   181  H   1.0    0.09    1.03    1.43   318.27598   112.96277   236.66761
   182  H   1.0    0.08    1.03    1.43   318.02922   116.01144   235.49210
   183  N   5.0   -0.14    3.49    2.07   318.88763   110.35988   226.06613
   184  C   4.0    0.04    4.40    4.38   318.07420   108.06300   224.83926
   185  C   4.0    0.16    3.42    3.08   317.45637   105.93447   226.71825
   186  O   6.0   -0.29    1.26    1.80   316.73482   103.87991   225.93387
   187  C   4.0   -0.02    4.35    4.29   320.09757   107.10880   223.00030
   188  C   4.0   -0.01    3.55    3.14   320.28211   108.59545   220.59569
   189  C   4.0   -0.03    3.47    3.10   322.12604   110.44710   220.32592
   190  C   4.0   -0.03    3.46    3.10   318.64537   108.12100   218.59483
   191  C   4.0   -0.04    3.37    3.07   322.33356   111.80925   218.10206
   192  C   4.0   -0.04    3.38    3.07   318.85533   109.48418   216.37180
   193  C   4.0   -0.05    3.37    3.07   320.69398   111.33189   216.11974
   194  H   1.0    0.11    1.07    1.44   320.76191   110.73569   226.04432
   195  H   1.0    0.07    1.06    1.44   316.29948   108.42796   223.81552
   196  H   1.0    0.07    1.05    1.44   321.90881   107.20791   223.97837
   197  H   1.0    0.07    1.03    1.43   319.67652   105.13054   222.56766
   198  H   1.0    0.07    1.03    1.43   323.41353   110.80689   221.86902
   199  H   1.0    0.08    1.03    1.43   317.20094   106.68428   218.78413
   200  H   1.0    0.05    1.03    1.43   323.78427   113.23469   217.92782
   201  H   1.0    0.06    1.03    1.43   317.56080   109.09467   214.84425
   202  H   1.0    0.05    1.03    1.43   320.83791   112.38691   214.38092
   203  N   5.0   -0.13    3.50    2.08   317.75002   106.43568   229.17671
   204  C   4.0    0.04    4.44    4.44   316.84416   104.66788   231.07343
   205  C   4.0    0.15    3.44    3.09   314.01604   105.18360   231.50366
   206  O   6.0   -0.29    1.23    1.80   312.37145   103.60326   231.12166
   207  C   4.0   -0.04    4.26    4.12   318.39403   104.88615   233.50370
   208  C   4.0   -0.05    4.18    3.95   317.70622   102.73464   235.31843
   209  C   4.0   -0.05    4.15    3.89   318.54918   103.14026   238.05661
   210  C   4.0   -0.04    4.11    3.83   321.39897   103.49562   238.37931
   211  N   5.0   -0.12    4.01    2.89   322.09860   106.22983   238.32807
   212  H   1.0    0.11    1.10    1.44   318.18558   108.20274   229.78323
   213  H   1.0    0.07    1.06    1.44   317.01616   102.77129   230.26097
   214  H   1.0    0.05    1.03    1.43   320.36966   104.75715   232.92492
   215  H   1.0    0.05    1.03    1.43   317.99054   106.73028   234.33070
   216  H   1.0    0.05    1.03    1.43   315.65798   102.49394   235.29989
   217  H   1.0    0.05    1.03    1.43   318.50776   100.98267   234.58398
   218  H   1.0    0.04    1.03    1.43   317.52851   104.74352   238.84857
   219  H   1.0    0.03    1.03    1.43   317.96651   101.47308   239.11398
   220  H   1.0    0.03    1.02    1.43   321.99581   102.72081   240.19215
   221  H   1.0    0.04    1.02    1.43   322.37945   102.50947   236.85973
   222  H   1.0    0.05    1.02    1.43   324.01377   106.46714   238.59639
   223  H   1.0    0.05    1.02    1.43   321.59841   107.01354   236.61396
   224  H   1.0    0.05    1.02    1.43   321.15188   107.16032   239.75907
   225  N   5.0   -0.15    3.49    2.07   313.51484   107.51307   232.37269
   226  C   4.0    0.04    4.34    4.28   310.93955   108.34860   232.79566
   227  C   4.0    0.16    3.42    3.09   309.25335   107.97460   230.47077
   228  O   6.0   -0.30    1.21    1.80   307.09720   107.16880   230.65959
   229  C   4.0   -0.07    4.12    3.83   310.91976   111.12704   233.55459
   230  H   1.0    0.11    1.10    1.44   314.90046   108.84579   232.34636
   231  H   1.0    0.05    1.05    1.44   310.10340   107.17272   234.28546
   232  H   1.0    0.04    1.00    1.43   308.98905   111.72975   233.90465
   233  H   1.0    0.04    1.00    1.43   312.02419   111.39400   235.26261
   234  H   1.0    0.05    1.00    1.43   311.70170   112.26755   232.03350
   235  N   5.0   -0.14    3.51    2.08   310.28473   108.73838   228.28643
   236  C   4.0    0.04    4.43    4.44   308.92848   108.76536   225.90543
   237  C   4.0    0.15    3.50    3.11   310.54186   107.32808   223.98414
   238  O   6.0   -0.29    1.28    1.80   312.01333   108.44030   222.55387
   239  C   4.0   -0.03    4.29    4.17   308.44242   111.49704   225.09047
   240  C   4.0   -0.03    4.22    4.04   306.29633   112.68717   226.61252
   241  C   4.0    0.15    3.21    3.04   306.40769   115.55903   226.55450
   242  O   6.0   -0.30    1.22    1.80   308.38090   116.73664   226.35445
   243  N   5.0   -0.19    3.18    1.95   304.17335   116.72230   226.82680
   244  H   1.0    0.11    1.09    1.44   312.04004   109.50609   228.22626
   245  H   1.0    0.06    1.07    1.44   307.13327   107.78532   226.19945
   246  H   1.0    0.07    1.03    1.43   310.17432   112.57913   225.38593
   247  H   1.0    0.06    1.03    1.43   308.00058   111.52126   223.07498
   248  H   1.0    0.04    1.03    1.43   304.47847   112.01511   225.91781
   249  H   1.0    0.05    1.03    1.43   306.47947   112.11089   228.58876
   250  H   1.0    0.08    1.03    1.43   302.54764   115.75139   226.96152
   251  H   1.0    0.09    1.03    1.43   304.12717   118.62813   226.82789
   252  N   5.0   -0.09    3.68    2.24   310.37631   104.81707   224.03202
   253  C   4.0    0.04    4.61    4.67   312.12799   103.29589   222.56215
   254  C   4.0    0.16    3.43    3.09   311.69746   103.46812   219.72378
   255  O   6.0   -0.28    1.22    1.80   313.46872   103.57515   218.23041
   256  C   4.0   -0.04    4.35    4.29   311.72506   100.59422   223.52346
   257  C   4.0   -0.04    4.26    4.12   309.02980   100.62089   224.54444
   258  C   4.0   -0.00    4.37    4.33   308.78180   103.27007   225.65029
   259  H   1.0    0.08    1.07    1.44   314.06938   103.92708   222.90303
   260  H   1.0    0.05    1.02    1.43   312.01837    99.21211   222.03017
   261  H   1.0    0.06    1.03    1.43   313.07769   100.24270   225.03593
   262  H   1.0    0.05    1.02    1.43   307.66992   100.37075   223.01701
   263  H   1.0    0.04    1.02    1.43   308.72302    99.17308   225.96727
   264  H   1.0    0.05    1.02    1.43   306.82866   103.92971   225.61342
   265  H   1.0    0.07    1.02    1.43   309.49087   103.33064   227.59500
   266  N   5.0   -0.13    3.53    2.10   309.29124   103.22632   218.99694
   267  C   4.0    0.04    4.43    4.44   308.60183   103.32609   216.36234
   268  C   4.0    0.16    3.43    3.09   308.83244   106.02742   215.34773
   269  O   6.0   -0.27    1.23    1.80   308.50630   107.89649   216.66396
   270  C   4.0   -0.03    4.26    4.13   305.88423   102.40335   216.02464
   271  C   4.0    0.26    3.14    3.03   304.02140   104.09075   217.58615
   272  O   6.0   -0.30    1.21    1.80   304.22976   103.97418   219.93222
   273  O   6.0   -0.28    1.16    1.80   302.47005   105.36592   216.36147
   274  H   1.0    0.11    1.11    1.44   307.84142   103.57840   220.21627
   275  H   1.0    0.05    1.05    1.44   309.92895   102.11312   215.32021
   276  H   1.0    0.05    1.02    1.43   305.33713   102.48010   214.03981
   277  H   1.0    0.05    1.02    1.43   305.72840   100.46819   216.72113
   278  N   5.0   -0.13    3.50    2.08   309.42146   106.14837   212.88869
   279  C   4.0    0.04    4.30    4.19   309.63385   108.47574   211.46164
   280  C   4.0    0.07    3.23    3.04   309.65538   107.71433   208.67744
   281  O   6.0   -0.29    1.16    1.80   310.21685   105.56654   208.03016
   282  C   4.0   -0.04    4.34    4.28   312.08097   109.86866   212.21367
   283  C   4.0   -0.03    4.16    3.91   312.38295   112.57152   211.22258
   284  C   4.0   -0.08    4.10    3.81   310.22620   114.28061   212.09870
   285  C   4.0   -0.08    4.11    3.83   314.89782   113.62103   212.18756
   286  H   1.0    0.10    1.09    1.44   309.74968   104.57618   211.84754
   287  H   1.0    0.05    1.05    1.44   307.98749   109.65320   211.89202
   288  H   1.0    0.06    1.04    1.43   312.09635   109.91719   214.27757
   289  H   1.0    0.05    1.03    1.43   313.68147   108.72480   211.59287
   290  H   1.0    0.04    1.05    1.44   312.46567   112.53872   209.15496
   291  H   1.0    0.04    1.00    1.43   310.64642   116.23390   211.62930
   292  H   1.0    0.04    1.00    1.43   308.43123   113.78052   211.22987
   293  H   1.0    0.05    1.00    1.43   310.00371   114.13588   214.13767
   294  H   1.0    0.04    1.00    1.43   315.17721   115.54908   211.54059
   295  H   1.0    0.05    1.00    1.43   314.93933   113.63307   214.24336
   296  H   1.0    0.04    1.00    1.43   316.46380   112.48226   211.50319
   297  H   1.0    0.09    1.07    1.44   332.10824   120.02109   221.28671
   298  H   1.0    0.06    1.05    1.44   325.51019    99.40018   227.15628
   299  H   1.0    0.09    1.09    1.44   330.47892   106.81689   208.56569
   300  H   1.0    0.05    1.04    1.44   329.76942   100.09608   211.68687
   301  H   1.0    0.09    1.08    1.44   322.72204   110.31225   203.32572
   302  H   1.0    0.04    1.05    1.44   321.97073   117.85237   202.34077
   303  H   1.0    0.09    1.07    1.44   318.82854   126.19167   209.14335
   304  H   1.0    0.05    1.04    1.44   309.20564   108.98003   207.34824

  Z AO/shell   Hii/eV     exponent
  1     Wed Apr 25 08:07:45 CEST 2018   EN: 2.200 GM2: 0.406  GM3: 0.0800  RAES: 1.40
     1s    -10.707211    1.230000
  6     Wed Apr 25 08:07:45 CEST 2018   EN: 2.550 GM2: 0.538  GM3: 0.1500  RAES: 3.00
     2s    -13.970922    2.096432
     2p    -10.063292    1.800000
  7     Wed Apr 25 08:07:45 CEST 2018   EN: 3.040 GM2: 0.461  GM3:-0.0640  RAES: 1.90
     2s    -16.686243    2.339881
     2p    -12.523956    2.014332
  8     Wed Apr 25 08:07:45 CEST 2018   EN: 3.440 GM2: 0.452  GM3:-0.0517  RAES: 1.80
     2s    -20.229985    2.439742
     2p    -15.503117    2.137023
 no old-style atom pair restraining (fixing) potential

molecular fragmentation (1/2 indicates fragments):
111111111111111111111111111111111111111111111111111111111222222222222222
222222222222222222222222222222222222222222222222222222222222222222222222
222222222222222222222222222222222222222222222222222222222222222222222222
222222222222222222222222222222222222222222222222222222222222222222222222
2222222211222222
# atoms in fragment 1/2:    59   245
 fragment masses (1/2) :      451.46     1718.97
CMA distance (Bohr)    :  12.162
constraining FC (au)   :  0.0500
           ------------------------------------------------- 
          |        Self-Consistent Charge Iterations        |
           ------------------------------------------------- 

 Ncao       : 766
 Nao        : 766
 Nshell     : 458
 Nel        : 852
 T(el)      :   500.0
 intcut     :    35.0
 scfconv/Eh :  0.100E-06
   qconv/e  :  0.100E-04
 intneglect :  0.100E-08
 broydamp   :      0.400
 iter      E             dE          RMSdq      gap      omega  full diag
   1   -488.8669762 -0.488867E+03  0.476E+00    3.13       0.0  T
   2   -490.0645068 -0.119753E+01  0.224E+00    2.05       1.0  T
   3   -490.1363166 -0.718098E-01  0.126E+00    2.23       1.0  T
   4   -490.2102804 -0.739638E-01  0.261E-01    1.40       1.0  T
   5   -490.2150839 -0.480343E-02  0.127E-01    1.50       1.0  T
   6   -490.2157442 -0.660299E-03  0.600E-02    1.51       1.0  T
   7   -490.2160192 -0.275072E-03  0.253E-02    1.52       1.0  T
   8   -490.2160516 -0.323447E-04  0.128E-02    1.53       1.0  T
   9   -490.2160631 -0.115508E-04  0.555E-03    1.53       1.0  T
  10   -490.2160652 -0.201844E-05  0.254E-03    1.53       2.3  T
  11   -490.2160656 -0.434811E-06  0.114E-03    1.53       5.0  T
  12   -490.2160657 -0.921044E-07  0.559E-04    1.53      10.3  T
  13   -490.2160657 -0.322124E-07  0.258E-04    1.53      22.3  T
  14   -490.2160657 -0.359410E-08  0.113E-04    1.53      50.8  T
  15   -490.2160657 -0.790862E-09  0.428E-05    1.53     133.9  T
  16   -490.2160657 -0.147395E-09  0.192E-05    1.53     298.7  T
speedup 12.73
cpu  time for SCC   29.46 s
wall time for SCC    2.31 s

   *** convergence criteria satisfied after 16 iterations ***

          eigenvalues
 #    :         414        415        416        417        418        419        420        421
 occ. :        2.000      2.000      2.000      2.000      2.000      2.000      2.000      2.000
 eps  :       -10.611    -10.607    -10.592    -10.498    -10.435    -10.225    -10.205    -10.189
 #    :         422        423        424        425        426        427        428        429
 occ. :        2.000      2.000      2.000      2.000      2.000      0.000      0.000      0.000
 eps  :       -10.131    -10.064    -10.037    -10.027     -9.723     -8.194     -7.857     -7.735
 #    :         430        431        432        433        434        435        436        437
 occ. :        0.000      0.000      0.000      0.000      0.000      0.000      0.000      0.000
 eps  :        -7.649     -6.701     -6.592     -6.483     -6.417     -6.380     -6.368     -6.365


   #   Z            q   n(s)   n(p)   n(d)      C6AA      α(0)
   1   7 N     -0.380  1.314  4.066  0.000    29.823     8.111
   2   6 C      0.036  1.058  2.906  0.000    19.983     6.367
   3   6 C      0.274  1.045  2.681  0.000    22.366     7.744
   4   8 O     -0.481  1.742  4.740  0.000    23.377     6.482
   5   6 C     -0.071  1.054  3.017  0.000    21.854     6.655
   6   6 C      0.000  1.079  2.921  0.000    28.016     8.682
   7   6 C     -0.038  1.082  2.956  0.000    28.950     8.824
   8   6 C     -0.042  1.081  2.961  0.000    29.039     8.837
   9   6 C     -0.057  1.071  2.985  0.000    29.410     8.893
  10   6 C     -0.075  1.078  2.997  0.000    29.877     8.963
  11   6 C      0.145  1.044  2.811  0.000    24.832     8.167
  12   8 O     -0.431  1.718  4.712  0.000    21.455     6.253
  13   1 H      0.163  0.837  0.000  0.000     1.319     1.799
  14   1 H      0.033  0.967  0.000  0.000     2.542     2.494
  15   1 H      0.039  0.961  0.000  0.000     2.467     2.456
  16   1 H      0.045  0.955  0.000  0.000     2.383     2.414
  17   1 H      0.023  0.977  0.000  0.000     2.685     2.562
  18   1 H      0.039  0.961  0.000  0.000     2.457     2.451
  19   1 H      0.032  0.968  0.000  0.000     2.552     2.498
  20   1 H      0.051  0.949  0.000  0.000     2.302     2.373
  21   1 H      0.348  0.652  0.000  0.000     0.592     1.209
  22   7 N     -0.188  1.247  3.941  0.000    25.081     7.438
  23   6 C      0.006  1.070  2.923  0.000    20.476     6.443
  24   6 C      0.276  1.043  2.682  0.000    22.337     7.739
  25   8 O     -0.457  1.733  4.724  0.000    22.863     6.411
  26   6 C      0.121  1.043  2.837  0.000    18.708     6.176
  27   8 O     -0.493  1.721  4.772  0.000    22.749     6.439
  28   6 C     -0.143  1.047  3.096  0.000    23.314     6.885
  29   1 H      0.203  0.797  0.000  0.000     1.091     1.636
  30   1 H      0.081  0.919  0.000  0.000     1.974     2.197
  31   1 H      0.023  0.977  0.000  0.000     2.693     2.566
  32   1 H      0.321  0.679  0.000  0.000     0.660     1.276
  33   1 H      0.073  0.927  0.000  0.000     2.058     2.243
  34   1 H      0.069  0.931  0.000  0.000     2.098     2.265
  35   1 H      0.067  0.933  0.000  0.000     2.123     2.279
  36   7 N     -0.161  1.237  3.924  0.000    24.479     7.348
  37   6 C      0.014  1.061  2.925  0.000    20.351     6.424
  38   6 C      0.280  1.042  2.678  0.000    22.256     7.725
  39   8 O     -0.475  1.753  4.722  0.000    23.242     6.464
  40   6 C     -0.146  1.044  3.101  0.000    23.362     6.891
  41   1 H      0.206  0.794  0.000  0.000     1.075     1.624
  42   1 H      0.080  0.920  0.000  0.000     1.981     2.201
  43   1 H      0.072  0.928  0.000  0.000     2.069     2.249
  44   1 H      0.106  0.894  0.000  0.000     1.734     2.059
  45   1 H      0.084  0.916  0.000  0.000     1.938     2.177
  46   7 N     -0.195  1.264  3.931  0.000    25.235     7.461
  47   6 C      0.047  1.051  2.902  0.000    19.795     6.335
  48   6 C      0.207  1.081  2.712  0.000    23.606     7.957
  49   8 O     -0.388  1.741  4.647  0.000    21.451     6.210
  50   6 C     -0.105  1.066  3.039  0.000    22.510     6.755
  51   6 C      0.373  1.022  2.605  0.000    20.687     7.443
  52   8 O     -0.609  1.781  4.828  0.000    26.344     6.881
  53   8 O     -0.619  1.770  4.849  0.000    26.599     6.915
  54   1 H      0.216  0.784  0.000  0.000     1.028     1.588
  55   1 H      0.061  0.939  0.000  0.000     2.186     2.312
  56   1 H      0.038  0.962  0.000  0.000     2.470     2.458
  57   1 H      0.051  0.949  0.000  0.000     2.311     2.377
  58   7 N     -0.384  1.319  4.065  0.000    29.918     8.124
  59   6 C      0.032  1.062  2.905  0.000    20.045     6.377
  60   6 C      0.210  1.086  2.704  0.000    23.553     7.948
  61   8 O     -0.379  1.758  4.621  0.000    21.272     6.184
  62   6 C     -0.015  1.066  2.949  0.000    20.800     6.487
  63   6 C     -0.058  1.051  3.007  0.000    21.617     6.619
  64   6 C     -0.102  1.034  3.069  0.000    22.511     6.765
  65   6 C     -0.102  1.033  3.069  0.000    22.515     6.767
  66   1 H      0.161  0.839  0.000  0.000     1.329     1.806
  67   1 H      0.058  0.942  0.000  0.000     2.220     2.330
  68   1 H      0.029  0.971  0.000  0.000     2.595     2.519
  69   1 H      0.043  0.957  0.000  0.000     2.411     2.428
  70   1 H      0.043  0.957  0.000  0.000     2.403     2.424
  71   1 H      0.029  0.971  0.000  0.000     2.594     2.518
  72   1 H      0.019  0.981  0.000  0.000     2.754     2.595
  73   1 H      0.051  0.949  0.000  0.000     2.310     2.377
  74   1 H      0.043  0.957  0.000  0.000     2.408     2.427
  75   1 H      0.036  0.964  0.000  0.000     2.499     2.472
  76   1 H      0.028  0.972  0.000  0.000     2.620     2.531
  77   7 N     -0.377  1.308  4.069  0.000    29.734     8.099
  78   6 C      0.038  1.059  2.904  0.000    19.957     6.364
  79   6 C      0.197  1.086  2.717  0.000    23.799     7.990
  80   8 O     -0.373  1.761  4.612  0.000    21.153     6.166
  81   6 C     -0.071  1.057  3.014  0.000    21.840     6.652
  82   6 C      0.003  1.075  2.922  0.000    27.950     8.672
  83   6 C     -0.044  1.082  2.962  0.000    29.092     8.845
  84   6 C     -0.041  1.081  2.960  0.000    29.014     8.833
  85   6 C     -0.057  1.073  2.985  0.000    29.421     8.895
  86   6 C     -0.067  1.076  2.991  0.000    29.658     8.930
  87   6 C      0.146  1.044  2.810  0.000    24.812     8.164
  88   8 O     -0.437  1.720  4.717  0.000    21.587     6.272
  89   1 H      0.158  0.842  0.000  0.000     1.347     1.818
  90   1 H      0.074  0.926  0.000  0.000     2.041     2.234
  91   1 H      0.047  0.953  0.000  0.000     2.358     2.401
  92   1 H      0.062  0.938  0.000  0.000     2.178     2.308
  93   1 H      0.067  0.933  0.000  0.000     2.122     2.278
  94   1 H      0.045  0.955  0.000  0.000     2.385     2.415
  95   1 H      0.042  0.958  0.000  0.000     2.423     2.434
  96   1 H      0.017  0.983  0.000  0.000     2.778     2.607
  97   1 H      0.322  0.678  0.000  0.000     0.658     1.274
  98   7 N     -0.405  1.326  4.079  0.000    30.523     8.205
  99   6 C      0.020  1.061  2.919  0.000    20.253     6.410
 100   6 C      0.267  1.049  2.684  0.000    22.490     7.766
 101   8 O     -0.496  1.760  4.736  0.000    23.698     6.527
 102   6 C     -0.071  1.057  3.015  0.000    21.859     6.656
 103   6 C     -0.083  1.055  3.028  0.000    22.080     6.690
 104   6 C     -0.091  1.052  3.039  0.000    22.232     6.713
 105   6 C     -0.051  1.060  2.991  0.000    21.582     6.632
 106   7 N     -0.147  1.233  3.913  0.000    24.163     7.301
 107   1 H      0.160  0.840  0.000  0.000     1.336     1.810
 108   1 H      0.068  0.932  0.000  0.000     2.112     2.273
 109   1 H      0.042  0.958  0.000  0.000     2.427     2.436
 110   1 H      0.037  0.963  0.000  0.000     2.496     2.470
 111   1 H      0.065  0.935  0.000  0.000     2.140     2.288
 112   1 H      0.073  0.927  0.000  0.000     2.051     2.239
 113   1 H      0.073  0.927  0.000  0.000     2.055     2.242
 114   1 H      0.069  0.931  0.000  0.000     2.091     2.261
 115   1 H      0.120  0.880  0.000  0.000     1.615     1.988
 116   1 H      0.117  0.883  0.000  0.000     1.637     2.001
 117   1 H      0.307  0.693  0.000  0.000     0.693     1.304
 118   1 H      0.295  0.705  0.000  0.000     0.727     1.336
 119   1 H      0.298  0.702  0.000  0.000     0.720     1.329
 120   7 N     -0.186  1.245  3.941  0.000    25.038     7.432
 121   6 C      0.022  1.055  2.922  0.000    20.206     6.401
 122   6 C      0.270  1.046  2.684  0.000    22.440     7.757
 123   8 O     -0.496  1.744  4.752  0.000    23.688     6.525
 124   6 C     -0.124  1.042  3.082  0.000    22.924     6.826
 125   1 H      0.212  0.788  0.000  0.000     1.049     1.605
 126   1 H      0.081  0.919  0.000  0.000     1.967     2.193
 127   1 H      0.058  0.942  0.000  0.000     2.227     2.334
 128   1 H      0.078  0.922  0.000  0.000     1.997     2.210
 129   1 H      0.060  0.940  0.000  0.000     2.198     2.318
 130   7 N     -0.165  1.243  3.922  0.000    24.568     7.361
 131   6 C      0.036  1.056  2.908  0.000    19.976     6.364
 132   6 C      0.281  1.039  2.680  0.000    22.246     7.724
 133   8 O     -0.471  1.742  4.729  0.000    23.161     6.452
 134   6 C     -0.056  1.051  3.005  0.000    21.577     6.612
 135   6 C     -0.099  1.068  3.031  0.000    22.397     6.738
 136   6 C      0.369  1.024  2.606  0.000    20.738     7.452
 137   8 O     -0.646  1.775  4.872  0.000    27.285     7.003
 138   8 O     -0.658  1.777  4.881  0.000    27.597     7.043
 139   1 H      0.214  0.786  0.000  0.000     1.037     1.595
 140   1 H      0.033  0.967  0.000  0.000     2.542     2.493
 141   1 H      0.066  0.934  0.000  0.000     2.131     2.283
 142   1 H      0.049  0.951  0.000  0.000     2.331     2.388
 143   1 H      0.030  0.970  0.000  0.000     2.581     2.513
 144   1 H      0.040  0.960  0.000  0.000     2.449     2.447
 145   7 N     -0.175  1.241  3.934  0.000    24.783     7.394
 146   6 C     -0.030  1.049  2.981  0.000    21.180     6.565
 147   6 C      0.276  1.038  2.685  0.000    22.324     7.737
 148   8 O     -0.505  1.739  4.765  0.000    23.890     6.553
 149   1 H      0.199  0.801  0.000  0.000     1.112     1.652
 150   1 H      0.096  0.904  0.000  0.000     1.819     2.109
 151   1 H      0.103  0.897  0.000  0.000     1.759     2.074
 152   7 N     -0.166  1.244  3.922  0.000    24.582     7.364
 153   6 C      0.033  1.058  2.909  0.000    20.011     6.367
 154   6 C      0.284  1.042  2.674  0.000    22.197     7.715
 155   8 O     -0.485  1.736  4.749  0.000    23.457     6.494
 156   6 C     -0.066  1.048  3.018  0.000    21.765     6.641
 157   6 C      0.052  1.062  2.886  0.000    26.335     8.368
 158   7 N     -0.304  1.477  3.828  0.000    28.732     7.948
 159   6 C     -0.026  1.059  2.966  0.000    28.597     8.771
 160   6 C      0.090  1.063  2.848  0.000    25.751     8.301
 161   7 N     -0.102  1.248  3.855  0.000    23.246     7.161
 162   1 H      0.227  0.773  0.000  0.000     0.978     1.549
 163   1 H      0.077  0.923  0.000  0.000     2.013     2.219
 164   1 H      0.082  0.918  0.000  0.000     1.957     2.188
 165   1 H      0.043  0.957  0.000  0.000     2.414     2.430
 166   1 H      0.015  0.985  0.000  0.000     2.813     2.623
 167   1 H      0.063  0.937  0.000  0.000     2.165     2.301
 168   1 H      0.190  0.810  0.000  0.000     1.158     1.686
 169   7 N     -0.179  1.248  3.930  0.000    24.869     7.407
 170   6 C      0.020  1.058  2.922  0.000    20.242     6.406
 171   6 C      0.278  1.042  2.680  0.000    22.296     7.732
 172   8 O     -0.487  1.737  4.750  0.000    23.507     6.500
 173   6 C     -0.111  1.060  3.051  0.000    22.610     6.768
 174   6 C      0.286  1.036  2.677  0.000    22.145     7.705
 175   8 O     -0.500  1.736  4.765  0.000    23.786     6.539
 176   7 N     -0.259  1.260  3.999  0.000    26.728     7.678
 177   1 H      0.205  0.795  0.000  0.000     1.083     1.630
 178   1 H      0.107  0.893  0.000  0.000     1.719     2.051
 179   1 H      0.090  0.910  0.000  0.000     1.883     2.146
 180   1 H      0.093  0.907  0.000  0.000     1.852     2.128
 181   1 H      0.264  0.736  0.000  0.000     0.831     1.428
 182   1 H      0.240  0.760  0.000  0.000     0.921     1.504
 183   7 N     -0.185  1.252  3.933  0.000    25.018     7.429
 184   6 C      0.045  1.054  2.901  0.000    19.826     6.341
 185   6 C      0.275  1.042  2.683  0.000    22.356     7.743
 186   8 O     -0.512  1.760  4.752  0.000    24.050     6.575
 187   6 C     -0.058  1.048  3.011  0.000    21.615     6.617
 188   6 C      0.012  1.083  2.906  0.000    27.749     8.641
 189   6 C     -0.039  1.081  2.958  0.000    28.961     8.825
 190   6 C     -0.033  1.080  2.953  0.000    28.827     8.805
 191   6 C     -0.032  1.078  2.954  0.000    28.790     8.799
 192   6 C     -0.029  1.077  2.952  0.000    28.730     8.790
 193   6 C     -0.035  1.078  2.957  0.000    28.867     8.811
 194   1 H      0.217  0.783  0.000  0.000     1.025     1.586
 195   1 H      0.054  0.946  0.000  0.000     2.270     2.356
 196   1 H      0.063  0.937  0.000  0.000     2.161     2.299
 197   1 H      0.029  0.971  0.000  0.000     2.605     2.524
 198   1 H      0.038  0.962  0.000  0.000     2.479     2.462
 199   1 H      0.013  0.987  0.000  0.000     2.850     2.640
 200   1 H      0.043  0.957  0.000  0.000     2.411     2.428
 201   1 H      0.032  0.968  0.000  0.000     2.562     2.503
 202   1 H      0.050  0.950  0.000  0.000     2.314     2.379
 203   7 N     -0.188  1.253  3.936  0.000    25.080     7.438
 204   6 C      0.020  1.064  2.916  0.000    20.242     6.406
 205   6 C      0.272  1.046  2.682  0.000    22.399     7.750
 206   8 O     -0.502  1.760  4.742  0.000    23.833     6.545
 207   6 C     -0.101  1.063  3.038  0.000    22.419     6.741
 208   6 C     -0.074  1.049  3.025  0.000    21.909     6.664
 209   6 C     -0.098  1.055  3.043  0.000    22.369     6.734
 210   6 C     -0.058  1.062  2.996  0.000    21.725     6.654
 211   7 N     -0.139  1.228  3.911  0.000    24.003     7.276
 212   1 H      0.224  0.776  0.000  0.000     0.992     1.560
 213   1 H      0.071  0.929  0.000  0.000     2.077     2.254
 214   1 H      0.079  0.921  0.000  0.000     1.994     2.208
 215   1 H      0.090  0.910  0.000  0.000     1.881     2.144
 216   1 H      0.044  0.956  0.000  0.000     2.396     2.421
 217   1 H      0.054  0.946  0.000  0.000     2.265     2.354
 218   1 H      0.094  0.906  0.000  0.000     1.839     2.121
 219   1 H      0.093  0.907  0.000  0.000     1.851     2.127
 220   1 H      0.134  0.866  0.000  0.000     1.504     1.918
 221   1 H      0.118  0.882  0.000  0.000     1.633     1.999
 222   1 H      0.301  0.699  0.000  0.000     0.710     1.320
 223   1 H      0.274  0.726  0.000  0.000     0.797     1.399
 224   1 H      0.306  0.694  0.000  0.000     0.695     1.306
 225   7 N     -0.191  1.254  3.937  0.000    25.153     7.449
 226   6 C      0.019  1.061  2.920  0.000    20.259     6.409
 227   6 C      0.281  1.042  2.677  0.000    22.242     7.723
 228   8 O     -0.490  1.747  4.743  0.000    23.571     6.509
 229   6 C     -0.136  1.044  3.092  0.000    23.169     6.863
 230   1 H      0.232  0.768  0.000  0.000     0.955     1.531
 231   1 H      0.089  0.911  0.000  0.000     1.890     2.150
 232   1 H      0.073  0.927  0.000  0.000     2.053     2.241
 233   1 H      0.099  0.901  0.000  0.000     1.792     2.094
 234   1 H      0.055  0.945  0.000  0.000     2.261     2.351
 235   7 N     -0.190  1.248  3.942  0.000    25.115     7.443
 236   6 C      0.031  1.058  2.911  0.000    20.062     6.378
 237   6 C      0.258  1.048  2.695  0.000    22.663     7.796
 238   8 O     -0.525  1.752  4.773  0.000    24.340     6.615
 239   6 C     -0.054  1.045  3.009  0.000    21.534     6.606
 240   6 C     -0.098  1.058  3.040  0.000    22.355     6.731
 241   6 C      0.290  1.036  2.674  0.000    22.081     7.694
 242   8 O     -0.493  1.748  4.745  0.000    23.631     6.518
 243   7 N     -0.292  1.267  4.024  0.000    27.519     7.791
 244   1 H      0.210  0.790  0.000  0.000     1.054     1.609
 245   1 H      0.063  0.937  0.000  0.000     2.170     2.304
 246   1 H      0.069  0.931  0.000  0.000     2.097     2.264
 247   1 H      0.033  0.967  0.000  0.000     2.539     2.492
 248   1 H      0.059  0.941  0.000  0.000     2.212     2.326
 249   1 H      0.076  0.924  0.000  0.000     2.017     2.221
 250   1 H      0.230  0.770  0.000  0.000     0.964     1.538
 251   1 H      0.245  0.755  0.000  0.000     0.902     1.488
 252   7 N     -0.087  1.241  3.846  0.000    22.944     7.114
 253   6 C      0.034  1.059  2.907  0.000    19.977     6.359
 254   6 C      0.284  1.041  2.675  0.000    22.198     7.715
 255   8 O     -0.517  1.751  4.766  0.000    24.155     6.589
 256   6 C     -0.065  1.053  3.012  0.000    21.723     6.631
 257   6 C     -0.071  1.052  3.019  0.000    21.835     6.649
 258   6 C     -0.002  1.051  2.951  0.000    20.648     6.476
 259   1 H      0.063  0.937  0.000  0.000     2.165     2.301
 260   1 H      0.050  0.950  0.000  0.000     2.324     2.384
 261   1 H      0.071  0.929  0.000  0.000     2.071     2.251
 262   1 H      0.057  0.943  0.000  0.000     2.238     2.340
 263   1 H      0.085  0.915  0.000  0.000     1.925     2.170
 264   1 H      0.063  0.937  0.000  0.000     2.163     2.300
 265   1 H      0.076  0.924  0.000  0.000     2.020     2.222
 266   7 N     -0.187  1.254  3.933  0.000    25.047     7.433
 267   6 C      0.041  1.057  2.902  0.000    19.884     6.349
 268   6 C      0.283  1.042  2.675  0.000    22.202     7.716
 269   8 O     -0.503  1.751  4.751  0.000    23.840     6.546
 270   6 C     -0.104  1.071  3.033  0.000    22.486     6.751
 271   6 C      0.376  1.021  2.603  0.000    20.633     7.433
 272   8 O     -0.627  1.766  4.861  0.000    26.794     6.940
 273   8 O     -0.628  1.768  4.859  0.000    26.811     6.942
 274   1 H      0.218  0.782  0.000  0.000     1.019     1.581
 275   1 H      0.045  0.955  0.000  0.000     2.389     2.417
 276   1 H      0.037  0.963  0.000  0.000     2.483     2.464
 277   1 H      0.045  0.955  0.000  0.000     2.389     2.417
 278   7 N     -0.185  1.242  3.942  0.000    25.008     7.427
 279   6 C      0.032  1.060  2.908  0.000    20.045     6.377
 280   6 C      0.197  1.086  2.717  0.000    23.794     7.989
 281   8 O     -0.360  1.756  4.604  0.000    20.904     6.130
 282   6 C     -0.055  1.055  3.000  0.000    21.556     6.609
 283   6 C     -0.014  1.059  2.955  0.000    20.798     6.487
 284   6 C     -0.120  1.041  3.079  0.000    22.853     6.816
 285   6 C     -0.109  1.039  3.070  0.000    22.625     6.781
 286   1 H      0.210  0.790  0.000  0.000     1.054     1.608
 287   1 H      0.087  0.913  0.000  0.000     1.908     2.160
 288   1 H      0.046  0.954  0.000  0.000     2.367     2.406
 289   1 H      0.043  0.957  0.000  0.000     2.405     2.425
 290   1 H      0.054  0.946  0.000  0.000     2.271     2.357
 291   1 H      0.071  0.929  0.000  0.000     2.080     2.255
 292   1 H      0.044  0.956  0.000  0.000     2.396     2.420
 293   1 H      0.031  0.969  0.000  0.000     2.577     2.510
 294   1 H      0.060  0.940  0.000  0.000     2.204     2.321
 295   1 H      0.026  0.974  0.000  0.000     2.648     2.545
 296   1 H      0.035  0.965  0.000  0.000     2.523     2.484
 297   1 H      0.171  0.829  0.000  0.000     1.264     1.761
 298   1 H      0.062  0.938  0.000  0.000     2.177     2.307
 299   1 H      0.191  0.809  0.000  0.000     1.152     1.681
 300   1 H      0.063  0.937  0.000  0.000     2.166     2.301
 301   1 H      0.176  0.824  0.000  0.000     1.237     1.742
 302   1 H      0.078  0.922  0.000  0.000     2.001     2.212
 303   1 H      0.198  0.802  0.000  0.000     1.114     1.653
 304   1 H      0.104  0.896  0.000  0.000     1.747     2.067

 Mol. C6AA /au·bohr⁶  :     903307.053427
 Mol. C8AA /au·bohr⁸  :   20316190.776106
 Mol. α(0) /au        :       1429.559839

 
molecular dipole:
                 x           y           z       tot (Debye)
 q only:     -324.833     -96.420    -210.768
   full:     -324.775     -96.851    -212.509    1016.781
molecular quadrupole (traceless):
                xx          xy          yy          xz          yz          zz
 q only:   -79238.658  -47769.853   65513.254 -102464.818  -30691.008   13725.404
  q+dip:   -78745.184  -47965.309   65815.552 -103268.664  -31128.785   12929.632
   full:   -78747.782  -47966.057   65816.012 -103270.100  -31126.802   12931.770
speedup 12.95
cpu  time for grad   32.12 s
wall time for grad    2.48 s

SCC energy    :    -490.2255315
rep           :       5.9021226
ES            :       1.8907243
AES           :      -0.0956606
AXC           :       0.1522494
disp          :      -0.4102618
XB            :       0.0000000
fix           :       0.0000000
Gborn         :       0.0000000
Gsasa         :       0.0000000
Ghb           :       0.0000000
Gshift        :       0.0000000
Gsolv         :      -0.6249978     -392.19
Etot ala COSMO:    -490.2255315
grad norm     :       0.4463366
total E       :    -484.2834255
atomizationE  :      88.3552493    55443.76
(atE without considering molecular charge,
 total energy contains solvation terms)
H-L gap (eV)  :          1.5293

------------------------------------------------------------------------
 * finished run on 2019/02/13 at 00:18:34.736     
------------------------------------------------------------------------
 total:
 * wall-time:     0 d,  0 h,  0 min,  2.779 sec
 *  cpu-time:     0 d,  0 h,  0 min, 36.328 sec
 * ratio c/w:    13.073 speedup
 SCF:
 * wall-time:     0 d,  0 h,  0 min,  2.601 sec
 *  cpu-time:     0 d,  0 h,  0 min, 34.048 sec
 * ratio c/w:    13.089 speedup

