      -----------------------------------------------------------      
     |                   =====================                   |     
     |                           x T B                           |     
     |                   =====================                   |     
     |                         S. Grimme                         |     
     |          Mulliken Center for Theoretical Chemistry        |     
     |                    University of Bonn                     |     
     |                 Version 6.0.1 (SAW181210)                 |     
      -----------------------------------------------------------      

   This program is distributed in the hope that it will be useful,
   but WITHOUT ANY WARRANTY; without even the implied warranty of
   MERCHANTABILITY or FITNESS FOR A PARTICULAR PURPOSE.
   
   FOR NON-COMMERCIAL, ACADEMIA USE ONLY.
   
   Cite this work as:
   S. Grimme, C. Bannwarth, P. Shushkov, J. Comput. Theory Chem., 2017,
   13, 1989-2009.
   C. Bannwarth, S. Ehlert and S. Grimme., ChemRxiv, 2018, preprint.
   http://doi.org/10.26434/chemrxiv.7246238.v1
   
   for sTDA-xTB:
   S. Grimme and C. Bannwarth, J. Chem. Phys., 2016, 145, 054103.
   
   in the mass-spec context:
   V. Asgeirsson, C. Bauer and S. Grimme, Chem. Sci., 2017, 8, 4879.
   
   if GBSA is used:
   P. Shushkov, F. März and S. Grimme, unpublished.
   
   for ANC optimizer:
   S. Grimme, unpublished.
   Rational Function algorithm used in ANCopt:
   F. Eckert, P. Pulay, H.-J. Werner, J. Comput. Chem., 1997, 18, 1473.
   
   with help from (in alphabetical order)
   C. Bannwarth, F. Bohle, G. Brandenburg, E. Caldeweyher, M. Checinski,
   S. Dohm, S. Ehlert, S. Ehrlich, F. März, H. Neugebauer, J. Pisarek,
   P. Pracht, P. Shushkov, and S. Spicher.
   
 * started run on 2019/03/14 at 15:08:19.423     
========================================================================
 # omp threads = 1
========================================================================
number of atoms            : 292
number of electrons        : 776
charge                     : 0
spin                       : .0
first test random number   : .4551
           ------------------------------------------------- 
          |                 G F N 2 - x T B                 |
          | Geometry, Frequencies, Noncovalent interactions |
          |            JCTC 2018 parametrisation            |
           ------------------------------------------------- 
 
      method parameters     
 k(s)        :  1.8500
 k(p)        :  2.2300
 k(d)        :  2.2300
 k(f)        :  2.0000
 kEN (H0ij)  : -2.0000
 D4 a1       :  0.5200
 D4 a2       :  5.0000
 D4 s6       :  1.0000
 D4 s8       :  2.7000
 D4 s9       :  5.0000
 alphaj      :  2.0000

 Solvent             : h2o
 Using internal parameter file: .param_gbsa2_h2o
 Gsolv ref. state (COSMO-RS): gsolv [1 M gas/solution]
 temperature (mdtemp)       :    298.150000000000     
 dielectric constant        :    80.2000000000000     
 rho                        :    1.00000000000000     
 mass                       :    18.0000000000000     
 surface tension            :    15.5689454083859     
 probe radius               :   0.975313790000000     
 vdW radii scaling          :    1.00000000000000     
 Gshift (Eh)                :   1.857443126794793E-003
 c1                         :    1.55243817000000     
 soset                      :   0.130326360000000     
 HB correction              :  T

            Z     q(EN)     CN     RAES       Cart. coordinates
     1  N   5.0   -0.21    3.25    1.97    50.50677   115.84814    79.84627
     2  C   4.0    0.03    4.26    4.11    51.41621   117.31578    77.71349
     3  C   4.0    0.08    3.21    3.04    53.51043   115.86051    76.37633
     4  O   6.0   -0.31    1.15    1.80    53.64397   115.68289    74.07441
     5  C   4.0   -0.04    4.31    4.21    52.30639   119.94533    78.51553
     6  C   4.0   -0.02    3.57    3.15    50.43186   121.25433    80.22078
     7  C   4.0   -0.04    3.47    3.10    51.30282   123.14563    81.82307
     8  C   4.0   -0.04    3.51    3.12    47.88281   120.61504    80.29562
     9  C   4.0   -0.04    3.37    3.07    49.69337   124.29628    83.53147
    10  C   4.0   -0.04    3.38    3.07    46.27986   121.74071    82.02850
    11  C   4.0   -0.04    3.37    3.07    47.18674   123.55642    83.67353
    12  H   1.0    0.08    1.03    1.43    50.66568   116.62871    81.57897
    13  H   1.0    0.05    1.06    1.44    49.88017   117.52042    76.34326
    14  H   1.0    0.04    1.03    1.43    54.11939   119.82064    79.49844
    15  H   1.0    0.05    1.03    1.43    52.61754   121.04892    76.79422
    16  H   1.0    0.05    1.03    1.43    53.25874   123.72334    81.72337
    17  H   1.0    0.05    1.03    1.43    47.10958   119.23182    79.01094
    18  H   1.0    0.04    1.03    1.43    50.41928   125.76755    84.74249
    19  H   1.0    0.05    1.03    1.43    44.31795   121.18131    82.07934
    20  H   1.0    0.05    1.03    1.43    45.93787   124.40962    85.03859
    21  N   5.0   -0.20    3.23    1.96    52.61420   113.66680    69.07061
    22  C   4.0    0.03    4.23    4.05    54.44954   114.35789    67.15554
    23  C   4.0    0.08    3.29    3.05    55.61395   111.91620    66.20440
    24  O   6.0   -0.29    1.13    1.80    55.39992   111.34440    63.95313
    25  C   4.0   -0.03    4.30    4.20    56.33945   116.25660    68.22562
    26  C   4.0   -0.02    3.53    3.13    58.91004   116.46898    66.99871
    27  C   4.0   -0.04    3.48    3.11    60.71497   117.91640    68.25388
    28  C   4.0   -0.03    3.50    3.12    59.60046   115.30410    64.74990
    29  C   4.0   -0.04    3.38    3.07    63.16315   118.05776    67.36446
    30  C   4.0   -0.04    3.37    3.07    62.08204   115.35827    63.90734
    31  C   4.0   -0.04    3.37    3.07    63.87432   116.70351    65.24037
    32  H   1.0    0.11    1.05    1.44    53.03509   114.00127    70.91441
    33  H   1.0    0.05    1.05    1.44    53.41999   115.13915    65.52814
    34  H   1.0    0.05    1.03    1.43    55.41181   118.10016    68.19222
    35  H   1.0    0.06    1.04    1.43    56.66106   115.75662    70.20460
    36  H   1.0    0.05    1.03    1.43    60.19941   118.96376    69.92988
    37  H   1.0    0.07    1.06    1.44    58.19406   114.37596    63.61807
    38  H   1.0    0.05    1.03    1.43    64.50112   119.21018    68.38037
    39  H   1.0    0.05    1.03    1.43    62.65457   114.36288    62.21510
    40  H   1.0    0.05    1.03    1.43    65.79544   116.69332    64.56086
    41  N   5.0   -0.22    3.24    1.97    53.64509   124.50578    52.38659
    42  C   4.0    0.02    4.39    4.37    55.50714   124.36553    54.39580
    43  C   4.0    0.14    3.50    3.12    55.99551   127.02034    55.41373
    44  O   6.0   -0.32    1.37    1.80    56.19623   127.44503    57.68841
    45  C   4.0   -0.03    4.32    4.23    57.97376   123.06261    53.55551
    46  C   4.0   -0.05    4.19    3.98    57.44473   120.30146    52.84776
    47  C   4.0   -0.07    4.14    3.89    59.91398   123.20954    55.69094
    48  C   4.0   -0.08    4.02    3.65    59.76702   118.93891    51.81893
    49  H   1.0    0.07    1.02    1.43    54.22013   124.22165    50.58004
    50  H   1.0    0.04    1.05    1.44    54.69296   123.28231    55.96995
    51  H   1.0    0.04    1.05    1.44    58.68722   124.06119    51.88791
    52  H   1.0    0.04    1.03    1.43    56.74993   119.30469    54.51260
    53  H   1.0    0.04    1.03    1.43    55.96689   120.27656    51.41246
    54  H   1.0    0.04    1.00    1.43    61.70525   122.40261    55.10484
    55  H   1.0    0.05    1.01    1.43    60.24777   125.15214    56.26504
    56  H   1.0    0.04    1.00    1.43    59.22647   122.17068    57.32469
    57  H   1.0    0.04    1.00    1.43    59.23470   117.08116    51.12298
    58  H   1.0    0.04    1.00    1.43    60.57434   120.01453    50.26756
    59  H   1.0    0.04    1.00    1.43    61.19825   118.68615    53.26549
    60  N   5.0   -0.15    3.50    2.08    56.17434   128.87001    53.71636
    61  C   4.0    0.04    4.51    4.55    56.30825   131.44393    54.62097
    62  C   4.0    0.16    3.53    3.13    54.09838   131.94610    56.41058
    63  O   6.0   -0.32    1.36    1.80    54.46578   133.13720    58.36361
    64  C   4.0   -0.05    4.12    3.85    56.15868   133.49204    52.60255
    65  S   6.0   -0.07    2.27    3.10    59.03127   133.78599    50.73717
    66  H   1.0    0.07    1.06    1.44    55.96575   128.54379    51.83973
    67  H   1.0    0.06    1.06    1.44    58.06587   131.69510    55.70810
    68  H   1.0    0.04    1.07    1.44    54.64535   133.11213    51.26521
    69  H   1.0    0.05    1.07    1.44    55.85595   135.30441    53.53858
    70  H   1.0    0.04    0.99    1.43    58.50708   131.68850    49.46452
    71  N   5.0   -0.15    3.48    2.06    51.81181   131.16384    55.70834
    72  C   4.0    0.03    4.52    4.57    49.61148   131.74721    57.24782
    73  C   4.0    0.15    3.53    3.13    49.61242   130.11409    59.61996
    74  O   6.0   -0.33    1.41    1.80    49.51914   131.11666    61.71118
    75  C   4.0   -0.03    4.33    4.26    47.11371   131.48237    55.79194
    76  C   4.0   -0.05    4.19    3.98    46.90994   133.60679    53.83573
    77  C   4.0   -0.08    4.15    3.90    44.89585   131.55343    57.64093
    78  C   4.0   -0.08    4.01    3.64    44.80111   133.16324    51.92763
    79  H   1.0    0.07    1.06    1.44    51.51500   130.35353    53.99219
    80  H   1.0    0.05    1.06    1.44    49.78437   133.69550    57.95082
    81  H   1.0    0.04    1.05    1.44    47.13251   129.66271    54.81225
    82  H   1.0    0.04    1.03    1.43    46.60749   135.39512    54.81856
    83  H   1.0    0.04    1.03    1.43    48.69562   133.71741    52.81461
    84  H   1.0    0.03    1.00    1.43    43.11405   131.33796    56.64883
    85  H   1.0    0.04    1.01    1.43    45.03908   130.04323    59.02414
    86  H   1.0    0.04    1.00    1.43    44.87769   133.34666    58.64443
    87  H   1.0    0.04    1.00    1.43    44.76845   134.67660    50.53949
    88  H   1.0    0.04    1.00    1.43    45.13099   131.39047    50.94218
    89  H   1.0    0.04    1.00    1.43    42.96558   133.08593    52.84142
    90  N   5.0   -0.15    3.51    2.09    49.66983   127.62976    59.34731
    91  C   4.0    0.03    4.53    4.58    49.69303   125.99260    61.54063
    92  C   4.0    0.16    3.51    3.12    51.83149   126.77627    63.30608
    93  O   6.0   -0.33    1.33    1.80    51.53074   126.82212    65.61227
    94  C   4.0   -0.03    4.34    4.27    49.99963   123.22592    60.71031
    95  C   4.0   -0.05    4.18    3.97    47.73567   122.29669    59.15206
    96  C   4.0   -0.07    4.13    3.86    50.47453   121.49347    62.96302
    97  C   4.0   -0.08    4.02    3.65    45.17144   122.49763    60.43995
    98  H   1.0    0.07    1.06    1.44    49.85905   126.81472    57.62080
    99  H   1.0    0.05    1.05    1.44    47.93305   126.26091    62.61149
   100  H   1.0    0.04    1.06    1.44    51.65832   123.17226    59.47364
   101  H   1.0    0.03    1.03    1.43    47.66852   123.36796    57.39892
   102  H   1.0    0.04    1.03    1.43    48.09331   120.32337    58.67015
   103  H   1.0    0.04    1.00    1.43    50.62326   119.55465    62.30138
   104  H   1.0    0.05    1.00    1.43    52.21686   121.99206    63.92794
   105  H   1.0    0.04    1.00    1.43    48.92962   121.64193    64.30403
   106  H   1.0    0.04    1.00    1.43    43.72825   121.80266    59.15571
   107  H   1.0    0.04    1.00    1.43    45.09290   121.38763    62.16382
   108  H   1.0    0.04    1.00    1.43    44.72888   124.45130    60.88825
   109  N   5.0   -0.14    3.45    2.05    54.01072   127.31936    62.18302
   110  C   4.0    0.02    4.25    4.10    56.21285   128.27234    63.46872
   111  C   4.0    0.16    3.35    3.06    55.75388   130.84695    64.67954
   112  O   6.0   -0.33    1.35    1.80    56.54863   131.24204    66.82057
   113  H   1.0    0.12    1.13    1.45    54.22035   127.21654    60.27859
   114  H   1.0    0.05    1.02    1.43    56.80604   126.98831    64.98274
   115  H   1.0    0.05    1.03    1.43    57.73339   128.43156    62.08491
   116  N   5.0   -0.13    3.53    2.10    54.45080   132.54082    63.35523
   117  C   4.0    0.05    4.47    4.49    53.87829   135.02442    64.36062
   118  C   4.0    0.16    3.48    3.11    51.99639   134.78126    66.53293
   119  O   6.0   -0.33    1.35    1.80    52.07966   136.24928    68.32131
   120  C   4.0    0.06    4.22    4.03    52.92471   136.88857    62.30477
   121  O   6.0   -0.25    2.10    1.84    54.21048   139.20589    62.66863
   122  C   4.0   -0.07    4.11    3.81    50.06053   137.24053    62.34416
   123  H   1.0    0.12    1.13    1.45    54.10051   132.27307    61.48767
   124  H   1.0    0.06    1.06    1.44    55.59482   135.87298    65.16324
   125  H   1.0    0.07    1.07    1.44    53.48914   136.10197    60.47643
   126  H   1.0    0.12    1.03    1.43    53.55791   140.41921    61.46922
   127  H   1.0    0.04    1.00    1.43    49.45941   138.42785    60.77670
   128  H   1.0    0.05    1.01    1.43    49.16870   135.40458    62.17901
   129  H   1.0    0.05    1.00    1.43    49.47552   138.12340    64.10538
   130  N   5.0   -0.14    3.57    2.13    50.30805   132.92756    66.32948
   131  C   4.0    0.03    4.50    4.54    48.38342   132.39054    68.19093
   132  C   4.0    0.15    3.48    3.10    49.55977   131.13351    70.49503
   133  O   6.0   -0.33    1.35    1.80    48.78430   131.61386    72.62357
   134  C   4.0   -0.02    4.27    4.14    46.29473   130.67298    67.10879
   135  C   4.0   -0.07    4.14    3.88    44.42434   129.94924    69.18301
   136  C   4.0   -0.08    4.12    3.85    44.89374   131.99345    64.96635
   137  H   1.0    0.12    1.15    1.45    50.33697   131.79803    64.78183
   138  H   1.0    0.05    1.05    1.44    47.53928   134.16464    68.85849
   139  H   1.0    0.06    1.05    1.44    47.21241   128.96508    66.38439
   140  H   1.0    0.04    1.00    1.43    42.91668   128.78997    68.41013
   141  H   1.0    0.05    1.00    1.43    45.33951   128.90525    70.69468
   142  H   1.0    0.04    1.00    1.43    43.59180   131.64269    69.99556
   143  H   1.0    0.04    1.00    1.43    43.39559   130.77083    64.27692
   144  H   1.0    0.04    1.00    1.43    44.05610   133.74463    65.63091
   145  H   1.0    0.06    1.02    1.43    46.17092   132.41537    63.42413
   146  N   5.0   -0.14    3.54    2.11    51.42818   129.50999    70.02856
   147  C   4.0    0.04    4.39    4.36    52.73193   128.17353    72.03015
   148  C   4.0    0.15    3.44    3.09    54.54605   129.98093    73.36657
   149  O   6.0   -0.31    1.28    1.80    54.75098   129.99989    75.67733
   150  C   4.0    0.04    4.16    3.91    54.19422   125.89873    70.96499
   151  O   6.0   -0.25    2.04    1.83    52.61243   124.03867    69.96204
   152  H   1.0    0.11    1.12    1.45    51.82308   129.01066    68.21565
   153  H   1.0    0.06    1.05    1.44    51.35823   127.51538    73.43754
   154  H   1.0    0.05    1.01    1.43    55.54286   126.59581    69.54826
   155  H   1.0    0.05    1.02    1.43    55.25213   125.00793    72.49947
   156  H   1.0    0.15    1.06    1.44    51.80287   124.72219    68.45893
   157  N   5.0   -0.14    3.55    2.11    55.81466   131.50203    71.82179
   158  C   4.0    0.04    4.51    4.56    57.41409   133.51047    72.74981
   159  C   4.0    0.16    3.51    3.12    55.76110   135.41986    74.13212
   160  O   6.0   -0.33    1.41    1.80    56.47698   136.16132    76.21039
   161  C   4.0   -0.02    4.26    4.13    59.00248   134.73365    70.65160
   162  C   4.0   -0.07    4.14    3.89    60.02810   137.28377    71.52229
   163  C   4.0   -0.07    4.11    3.83    61.17938   132.99455    69.91719
   164  H   1.0    0.12    1.14    1.45    55.69345   131.32527    69.91170
   165  H   1.0    0.06    1.06    1.44    58.67068   132.75016    74.22168
   166  H   1.0    0.06    1.06    1.44    57.77721   135.01928    69.01402
   167  H   1.0    0.04    1.00    1.43    61.32389   138.02563    70.11491
   168  H   1.0    0.05    1.00    1.43    58.50418   138.63249    71.78918
   169  H   1.0    0.05    1.00    1.43    61.04023   137.06464    73.29680
   170  H   1.0    0.04    1.00    1.43    62.29572   133.86245    68.42890
   171  H   1.0    0.04    1.00    1.43    62.39556   132.66662    71.54018
   172  H   1.0    0.06    1.00    1.43    60.46333   131.19728    69.23892
   173  N   5.0   -0.14    3.51    2.08    53.59915   136.14094    73.07453
   174  C   4.0    0.04    4.41    4.40    51.73645   137.63395    74.44694
   175  C   4.0    0.16    3.60    3.16    51.14948   136.26567    76.90113
   176  O   6.0   -0.32    1.50    1.80    51.56592   137.33865    78.91813
   177  C   4.0   -0.03    4.32    4.24    49.41512   138.10904    72.78806
   178  C   4.0   -0.01    3.52    3.13    46.95936   138.91893    74.00198
   179  C   4.0   -0.04    3.49    3.11    44.80817   138.85122    72.48128
   180  C   4.0   -0.04    3.48    3.11    46.65699   139.61187    76.50837
   181  C   4.0   -0.04    3.38    3.07    42.43306   139.27705    73.47123
   182  C   4.0   -0.04    3.39    3.07    44.26181   139.98242    77.51783
   183  C   4.0   -0.04    3.36    3.07    42.13353   139.77770    76.02042
   184  H   1.0    0.12    1.15    1.45    53.19539   135.80262    71.22057
   185  H   1.0    0.05    1.06    1.44    52.57517   139.43298    75.04817
   186  H   1.0    0.05    1.03    1.43    49.96797   139.48641    71.35303
   187  H   1.0    0.06    1.05    1.44    48.97973   136.33908    71.82841
   188  H   1.0    0.05    1.03    1.43    44.98745   138.47209    70.48415
   189  H   1.0    0.06    1.05    1.44    48.29459   139.87514    77.68648
   190  H   1.0    0.05    1.03    1.43    40.80561   139.16129    72.25256
   191  H   1.0    0.04    1.04    1.43    44.05845   140.38587    79.50072
   192  H   1.0    0.05    1.03    1.43    40.26097   140.02261    76.79936
   193  N   5.0   -0.14    3.54    2.11    50.23842   133.94429    76.81707
   194  C   4.0    0.04    4.38    4.34    49.58107   132.69597    79.16234
   195  C   4.0    0.17    3.56    3.14    51.69725   133.25957    81.06082
   196  O   6.0   -0.32    1.29    1.80    51.26314   134.14892    83.15258
   197  C   4.0   -0.07    4.11    3.83    49.25173   129.88577    78.66108
   198  H   1.0    0.12    1.15    1.45    49.82978   132.99152    75.19632
   199  H   1.0    0.05    1.05    1.44    47.84098   133.55514    79.91599
   200  H   1.0    0.04    1.00    1.43    48.69087   128.90219    80.37016
   201  H   1.0    0.05    1.00    1.43    47.82756   129.58492    77.20865
   202  H   1.0    0.06    1.01    1.43    51.03604   129.11738    77.99755
   203  N   5.0   -0.13    3.43    2.03    54.01951   132.67785    80.25197
   204  C   4.0    0.03    4.25    4.10    56.23156   133.29182    81.72088
   205  C   4.0    0.17    3.33    3.06    56.31572   136.05766    82.59107
   206  O   6.0   -0.31    1.34    1.80    56.75803   136.51907    84.82743
   207  H   1.0    0.12    1.10    1.44    54.29590   131.92807    78.50743
   208  H   1.0    0.06    1.02    1.43    56.33544   132.12258    83.43487
   209  H   1.0    0.05    1.03    1.43    57.90277   132.93660    80.57313
   210  N   5.0   -0.13    3.52    2.09    55.97368   137.81467    80.82963
   211  C   4.0    0.04    4.40    4.38    56.18702   140.52213    81.17781
   212  C   4.0    0.15    3.45    3.10    54.20161   141.64511    82.95155
   213  O   6.0   -0.30    1.22    1.80    54.68555   143.56918    84.17073
   214  C   4.0   -0.04    4.32    4.23    55.80887   141.94989    78.67616
   215  C   4.0   -0.05    4.16    3.92    57.99322   141.80259    76.79085
   216  C   4.0   -0.01    4.19    3.98    60.52105   142.76190    77.82476
   217  N   5.0   -0.14    3.41    2.03    60.20309   145.16546    79.12203
   218  C   4.0    0.09    3.34    3.06    61.27394   145.88620    81.27324
   219  N   5.0   -0.18    3.25    1.97    63.23617   144.64718    82.25253
   220  N   5.0   -0.18    3.24    1.97    60.57457   148.04476    82.37509
   221  H   1.0    0.13    1.18    1.46    55.79491   137.24411    78.98782
   222  H   1.0    0.05    1.06    1.44    58.02483   140.98689    82.00725
   223  H   1.0    0.05    1.04    1.43    54.11523   141.17194    77.80570
   224  H   1.0    0.05    1.04    1.43    55.40472   143.91149    79.16173
   225  H   1.0    0.06    1.04    1.43    58.24020   139.83735    76.23402
   226  H   1.0    0.04    1.03    1.43    57.46425   142.89376    75.12389
   227  H   1.0    0.04    1.03    1.43    61.27456   141.36410    79.13792
   228  H   1.0    0.04    1.02    1.43    61.85939   142.99893    76.26737
   229  H   1.0    0.08    1.07    1.44    58.91569   146.34433    78.34166
   230  H   1.0    0.08    1.03    1.43    63.75448   142.94014    81.59543
   231  H   1.0    0.08    1.04    1.43    63.76176   145.10958    84.02756
   232  H   1.0    0.09    1.03    1.43    58.98903   148.92666    81.80627
   233  H   1.0    0.09    1.03    1.43    61.08818   148.34133    84.20366
   234  N   5.0   -0.14    3.56    2.12    51.93023   140.59152    82.83608
   235  C   4.0    0.03    4.41    4.40    49.81155   141.39030    84.37488
   236  C   4.0    0.15    3.55    3.14    50.19151   140.33274    87.02302
   237  O   6.0   -0.28    1.24    1.80    49.95790   141.62640    88.93393
   238  C   4.0   -0.05    4.35    4.29    47.36067   140.39399    83.18691
   239  C   4.0   -0.02    4.20    4.00    45.15537   140.04940    85.04944
   240  C   4.0   -0.07    4.10    3.81    43.83305   142.56274    85.52938
   241  C   4.0   -0.08    4.09    3.78    43.25266   138.07110    84.13755
   242  H   1.0    0.12    1.14    1.45    51.67492   139.06795    81.69176
   243  H   1.0    0.06    1.05    1.44    49.89407   143.45476    84.55273
   244  H   1.0    0.04    1.03    1.43    46.81958   141.68608    81.68043
   245  H   1.0    0.05    1.04    1.43    47.80505   138.55600    82.36213
   246  H   1.0    0.05    1.08    1.44    45.93545   139.37588    86.84106
   247  H   1.0    0.04    1.00    1.43    42.35430   142.35388    86.93866
   248  H   1.0    0.05    1.00    1.43    45.19384   143.92975    86.22656
   249  H   1.0    0.04    1.00    1.43    42.99284   143.29374    83.80204
   250  H   1.0    0.04    1.00    1.43    42.10754   137.46981    85.73103
   251  H   1.0    0.04    1.00    1.43    41.99018   138.84398    82.71530
   252  H   1.0    0.04    1.00    1.43    44.20752   136.42872    83.35838
   253  N   5.0   -0.15    3.59    2.14    50.75459   137.87906    87.08001
   254  C   4.0    0.04    4.55    4.61    51.61377   136.75110    89.40573
   255  C   4.0    0.17    3.49    3.11    53.81377   138.33075    90.43986
   256  O   6.0   -0.27    1.22    1.80    53.91668   138.77579    92.71984
   257  C   4.0   -0.02    4.33    4.25    52.12068   133.93437    88.95039
   258  C   4.0   -0.04    4.20    4.01    49.53666   132.63967    88.65106
   259  C   4.0   -0.06    4.11    3.83    53.70561   132.83464    91.08528
   260  C   4.0   -0.07    4.01    3.63    49.65349   130.06801    87.36459
   261  H   1.0    0.11    1.11    1.44    51.02079   136.86062    85.47481
   262  H   1.0    0.06    1.06    1.44    50.11739   136.93683    90.83992
   263  H   1.0    0.07    1.06    1.44    53.19170   133.77236    87.19285
   264  H   1.0    0.04    1.03    1.43    48.67964   132.48691    90.51903
   265  H   1.0    0.05    1.04    1.43    48.35233   133.86950    87.49816
   266  H   1.0    0.04    1.00    1.43    53.91700   130.80466    90.86878
   267  H   1.0    0.06    1.00    1.43    55.58650   133.67580    91.06800
   268  H   1.0    0.05    1.00    1.43    52.87030   133.25793    92.91388
   269  H   1.0    0.04    1.00    1.43    47.81520   129.15603    87.46154
   270  H   1.0    0.05    1.01    1.43    50.15293   130.32259    85.39411
   271  H   1.0    0.04    1.00    1.43    51.07269   128.87160    88.23090
   272  N   5.0   -0.12    3.52    2.09    55.35593   139.33837    88.71227
   273  C   4.0    0.05    4.34    4.26    57.49666   140.90557    89.40673
   274  C   4.0    0.10    3.24    3.04    56.48765   143.36722    90.51254
   275  O   6.0   -0.26    1.12    1.80    57.18591   144.07935    92.60824
   276  C   4.0   -0.03    4.25    4.10    59.29720   141.38538    87.19081
   277  C   4.0   -0.03    4.17    3.93    61.98604   140.54859    87.82207
   278  C   4.0    0.26    3.10    3.02    62.19612   137.59631    87.76364
   279  O   6.0   -0.28    1.16    1.80    61.43804   136.38650    89.63145
   280  O   6.0   -0.28    1.16    1.80    63.11846   136.69122    85.78787
   281  H   1.0    0.12    1.16    1.46    55.59394   138.38063    87.05100
   282  H   1.0    0.08    1.06    1.44    58.58080   139.98308    90.91834
   283  H   1.0    0.07    1.05    1.44    58.64838   140.26247    85.59637
   284  H   1.0    0.05    1.02    1.43    59.26795   143.38781    86.67064
   285  H   1.0    0.05    1.02    1.43    63.31248   141.26909    86.41648
   286  H   1.0    0.05    1.02    1.43    62.53924   141.25624    89.68174
   287  H   1.0    0.09    1.07    1.44    48.84883   115.52518    79.64750
   288  H   1.0    0.05    1.05    1.44    54.85479   114.99779    77.38603
   289  H   1.0    0.10    1.07    1.44    51.16442   114.51363    68.79938
   290  H   1.0    0.06    1.04    1.43    56.54526   110.78561    67.39834
   291  H   1.0    0.09    1.07    1.44    52.44083   123.33311    52.64574
   292  H   1.0    0.08    1.04    1.44    55.25304   144.40798    89.53090

  Z AO/shell   Hii/eV     exponent
  1     Wed Apr 25 08:07:45 CEST 2018   EN: 2.200 GM2: 0.406  GM3: 0.0800  RAES: 1.40
     1s    -10.707211    1.230000
  6     Wed Apr 25 08:07:45 CEST 2018   EN: 2.550 GM2: 0.538  GM3: 0.1500  RAES: 3.00
     2s    -13.970922    2.096432
     2p    -10.063292    1.800000
  7     Wed Apr 25 08:07:45 CEST 2018   EN: 3.040 GM2: 0.461  GM3:-0.0640  RAES: 1.90
     2s    -16.686243    2.339881
     2p    -12.523956    2.014332
  8     Wed Apr 25 08:07:45 CEST 2018   EN: 3.440 GM2: 0.452  GM3:-0.0517  RAES: 1.80
     2s    -20.229985    2.439742
     2p    -15.503117    2.137023
 16     Tue Apr 24 11:44:34 CEST 2018   EN: 2.580 GM2: 0.340  GM3:-0.0502  RAES: 3.10
     3s    -20.029654    1.981333
     3p    -11.377694    2.025643
     3d     -0.420282    1.702555
 no old-style atom pair restraining (fixing) potential

molecular fragmentation (1/2 indicates fragments):
111111111111111111112222222222222222222222222222222222222222222222222222
222222222222222222222222222222222222222222222222222222222222222222222222
222222222222222222222222222222222222222222222222222222222222222222222222
222222222222222222222222222222222222222222222222222222222222222222222211
2222
# atoms in fragment 1/2:    22   270
 fragment masses (1/2) :      149.19     1824.25
CMA distance (Bohr)    :  15.415
constraining FC (au)   :  0.0500
           ------------------------------------------------- 
          |        Self-Consistent Charge Iterations        |
           ------------------------------------------------- 

 Ncao       : 715
 Nao        : 714
 Nshell     : 432
 Nel        : 776
 T(el)      :   500.0
 intcut     :    35.0
 scfconv/Eh :  0.100E-06
   qconv/e  :  0.100E-04
 intneglect :  0.100E-08
 broydamp   :      0.400
 iter      E             dE          RMSdq      gap      omega  full diag
   1   -440.4185288 -0.440419E+03  0.440E+00    3.04       0.0  T
   2   -441.3296731 -0.911144E+00  0.211E+00    1.95       1.0  T
   3   -441.3770671 -0.473941E-01  0.116E+00    2.27       1.0  T
   4   -441.4445229 -0.674558E-01  0.224E-01    1.58       1.0  T
   5   -441.4477509 -0.322793E-02  0.106E-01    1.66       1.0  T
   6   -441.4482698 -0.518916E-03  0.444E-02    1.66       1.0  T
   7   -441.4484598 -0.189982E-03  0.183E-02    1.66       1.0  T
   8   -441.4484744 -0.146311E-04  0.850E-03    1.68       1.0  T
   9   -441.4484790 -0.462744E-05  0.360E-03    1.68       1.6  T
  10   -441.4484797 -0.733236E-06  0.167E-03    1.68       3.5  T
  11   -441.4484799 -0.135438E-06  0.720E-04    1.68       8.1  T
  12   -441.4484799 -0.275118E-07  0.313E-04    1.68      18.7  T
  13   -441.4484799 -0.913190E-08  0.155E-04    1.68      37.8  T
  14   -441.4484799 -0.117609E-08  0.701E-05    1.68      83.5  T
  15   -441.4484799 -0.288367E-09  0.272E-05    1.68     215.4  T
speedup  1.00
cpu  time for SCC    3.76 s
wall time for SCC    3.76 s

   *** convergence criteria satisfied after 15 iterations ***

          eigenvalues
 #    :         376        377        378        379        380        381        382        383
 occ. :        2.000      2.000      2.000      2.000      2.000      2.000      2.000      2.000
 eps  :       -10.763    -10.704    -10.688    -10.663    -10.605    -10.557    -10.529    -10.495
 #    :         384        385        386        387        388        389        390        391
 occ. :        2.000      2.000      2.000      2.000      2.000      0.000      0.000      0.000
 eps  :       -10.474    -10.101    -10.039     -9.852     -9.532     -7.857     -7.783     -7.704
 #    :         392        393        394        395        396        397        398        399
 occ. :        0.000      0.000      0.000      0.000      0.000      0.000      0.000      0.000
 eps  :        -7.120     -6.957     -6.753     -6.712     -6.649     -6.577     -6.514     -6.425


   #   Z            q   n(s)   n(p)   n(d)      C6AA      α(0)
   1   7 N     -0.387  1.310  4.077  0.000    30.009     8.136
   2   6 C      0.041  1.053  2.906  0.000    19.899     6.354
   3   6 C      0.199  1.094  2.707  0.000    23.763     7.983
   4   8 O     -0.373  1.745  4.628  0.000    21.158     6.167
   5   6 C     -0.070  1.054  3.016  0.000    21.830     6.651
   6   6 C      0.014  1.081  2.905  0.000    27.694     8.632
   7   6 C     -0.042  1.081  2.961  0.000    29.047     8.838
   8   6 C     -0.042  1.077  2.964  0.000    29.036     8.837
   9   6 C     -0.035  1.081  2.954  0.000    28.860     8.810
  10   6 C     -0.035  1.081  2.954  0.000    28.875     8.812
  11   6 C     -0.035  1.079  2.956  0.000    28.866     8.811
  12   1 H      0.166  0.834  0.000  0.000     1.299     1.785
  13   1 H      0.058  0.942  0.000  0.000     2.224     2.332
  14   1 H      0.053  0.947  0.000  0.000     2.284     2.364
  15   1 H      0.058  0.942  0.000  0.000     2.224     2.332
  16   1 H      0.028  0.972  0.000  0.000     2.610     2.526
  17   1 H      0.045  0.955  0.000  0.000     2.389     2.417
  18   1 H      0.030  0.970  0.000  0.000     2.580     2.512
  19   1 H      0.042  0.958  0.000  0.000     2.424     2.435
  20   1 H      0.033  0.967  0.000  0.000     2.540     2.492
  21   7 N     -0.398  1.316  4.082  0.000    30.323     8.178
  22   6 C      0.044  1.053  2.902  0.000    19.852     6.347
  23   6 C      0.210  1.090  2.700  0.000    23.556     7.949
  24   8 O     -0.391  1.760  4.631  0.000    21.498     6.216
  25   6 C     -0.081  1.059  3.022  0.000    22.035     6.682
  26   6 C      0.009  1.086  2.905  0.000    27.812     8.650
  27   6 C     -0.044  1.081  2.963  0.000    29.081     8.844
  28   6 C     -0.048  1.079  2.969  0.000    29.186     8.860
  29   6 C     -0.034  1.079  2.955  0.000    28.849     8.808
  30   6 C     -0.034  1.081  2.953  0.000    28.840     8.806
  31   6 C     -0.038  1.078  2.960  0.000    28.936     8.821
  32   1 H      0.184  0.816  0.000  0.000     1.193     1.711
  33   1 H      0.053  0.947  0.000  0.000     2.286     2.364
  34   1 H      0.066  0.934  0.000  0.000     2.125     2.280
  35   1 H      0.068  0.932  0.000  0.000     2.104     2.268
  36   1 H      0.032  0.968  0.000  0.000     2.557     2.501
  37   1 H      0.037  0.963  0.000  0.000     2.495     2.470
  38   1 H      0.033  0.967  0.000  0.000     2.539     2.492
  39   1 H      0.034  0.966  0.000  0.000     2.533     2.489
  40   1 H      0.033  0.967  0.000  0.000     2.541     2.493
  41   7 N     -0.391  1.308  4.083  0.000    30.128     8.152
  42   6 C      0.021  1.064  2.915  0.000    20.231     6.406
  43   6 C      0.266  1.051  2.683  0.000    22.511     7.770
  44   8 O     -0.494  1.743  4.752  0.000    23.661     6.522
  45   6 C     -0.025  1.069  2.955  0.000    20.979     6.515
  46   6 C     -0.060  1.050  3.010  0.000    21.648     6.624
  47   6 C     -0.114  1.037  3.076  0.000    22.734     6.798
  48   6 C     -0.111  1.036  3.074  0.000    22.675     6.791
  49   1 H      0.166  0.834  0.000  0.000     1.297     1.784
  50   1 H      0.048  0.952  0.000  0.000     2.344     2.394
  51   1 H      0.041  0.959  0.000  0.000     2.436     2.441
  52   1 H      0.038  0.962  0.000  0.000     2.478     2.462
  53   1 H      0.040  0.960  0.000  0.000     2.444     2.445
  54   1 H      0.048  0.952  0.000  0.000     2.348     2.396
  55   1 H      0.034  0.966  0.000  0.000     2.535     2.490
  56   1 H      0.043  0.957  0.000  0.000     2.414     2.430
  57   1 H      0.038  0.962  0.000  0.000     2.469     2.457
  58   1 H      0.040  0.960  0.000  0.000     2.454     2.450
  59   1 H      0.039  0.961  0.000  0.000     2.466     2.456
  60   7 N     -0.164  1.239  3.925  0.000    24.547     7.358
  61   6 C      0.018  1.059  2.922  0.000    20.244     6.402
  62   6 C      0.273  1.043  2.685  0.000    22.393     7.750
  63   8 O     -0.476  1.739  4.737  0.000    23.263     6.467
  64   6 C     -0.023  1.066  2.957  0.000    20.978     6.520
  65  16 S     -0.297  1.951  4.303  0.043   153.899    20.880
  66   1 H      0.223  0.777  0.000  0.000     0.994     1.562
  67   1 H      0.093  0.907  0.000  0.000     1.848     2.126
  68   1 H      0.085  0.915  0.000  0.000     1.930     2.173
  69   1 H      0.079  0.921  0.000  0.000     1.992     2.207
  70   1 H      0.201  0.799  0.000  0.000     1.094     1.635
  71   7 N     -0.174  1.244  3.930  0.000    24.766     7.391
  72   6 C      0.006  1.068  2.926  0.000    20.478     6.442
  73   6 C      0.270  1.042  2.688  0.000    22.437     7.757
  74   8 O     -0.480  1.736  4.744  0.000    23.339     6.477
  75   6 C     -0.031  1.069  2.962  0.000    21.097     6.533
  76   6 C     -0.067  1.052  3.015  0.000    21.785     6.645
  77   6 C     -0.120  1.038  3.082  0.000    22.860     6.817
  78   6 C     -0.116  1.037  3.078  0.000    22.777     6.806
  79   1 H      0.221  0.779  0.000  0.000     1.004     1.569
  80   1 H      0.091  0.909  0.000  0.000     1.870     2.138
  81   1 H      0.061  0.939  0.000  0.000     2.192     2.315
  82   1 H      0.049  0.951  0.000  0.000     2.334     2.389
  83   1 H      0.043  0.957  0.000  0.000     2.411     2.428
  84   1 H      0.066  0.934  0.000  0.000     2.125     2.280
  85   1 H      0.042  0.958  0.000  0.000     2.428     2.437
  86   1 H      0.052  0.948  0.000  0.000     2.299     2.371
  87   1 H      0.044  0.956  0.000  0.000     2.398     2.422
  88   1 H      0.046  0.954  0.000  0.000     2.371     2.408
  89   1 H      0.046  0.954  0.000  0.000     2.376     2.410
  90   7 N     -0.165  1.240  3.925  0.000    24.566     7.361
  91   6 C      0.013  1.066  2.921  0.000    20.361     6.424
  92   6 C      0.276  1.041  2.683  0.000    22.335     7.739
  93   8 O     -0.502  1.735  4.767  0.000    23.826     6.544
  94   6 C     -0.025  1.067  2.959  0.000    20.987     6.516
  95   6 C     -0.069  1.052  3.017  0.000    21.821     6.650
  96   6 C     -0.117  1.037  3.080  0.000    22.789     6.807
  97   6 C     -0.117  1.035  3.082  0.000    22.802     6.810
  98   1 H      0.212  0.788  0.000  0.000     1.045     1.601
  99   1 H      0.090  0.910  0.000  0.000     1.880     2.145
 100   1 H      0.043  0.957  0.000  0.000     2.413     2.429
 101   1 H      0.047  0.953  0.000  0.000     2.362     2.403
 102   1 H      0.056  0.944  0.000  0.000     2.242     2.342
 103   1 H      0.057  0.943  0.000  0.000     2.236     2.338
 104   1 H      0.037  0.963  0.000  0.000     2.488     2.466
 105   1 H      0.056  0.944  0.000  0.000     2.243     2.342
 106   1 H      0.050  0.950  0.000  0.000     2.320     2.382
 107   1 H      0.045  0.955  0.000  0.000     2.388     2.416
 108   1 H      0.041  0.959  0.000  0.000     2.431     2.438
 109   7 N     -0.174  1.243  3.931  0.000    24.766     7.391
 110   6 C     -0.032  1.050  2.981  0.000    21.210     6.570
 111   6 C      0.271  1.040  2.689  0.000    22.418     7.753
 112   8 O     -0.493  1.736  4.758  0.000    23.634     6.518
 113   1 H      0.236  0.764  0.000  0.000     0.940     1.519
 114   1 H      0.084  0.916  0.000  0.000     1.934     2.175
 115   1 H      0.104  0.896  0.000  0.000     1.748     2.067
 116   7 N     -0.187  1.255  3.932  0.000    25.061     7.435
 117   6 C      0.016  1.066  2.918  0.000    20.306     6.417
 118   6 C      0.273  1.042  2.685  0.000    22.380     7.747
 119   8 O     -0.486  1.734  4.752  0.000    23.484     6.497
 120   6 C      0.106  1.051  2.843  0.000    18.932     6.213
 121   8 O     -0.493  1.733  4.760  0.000    22.733     6.436
 122   6 C     -0.141  1.045  3.097  0.000    23.287     6.882
 123   1 H      0.239  0.761  0.000  0.000     0.928     1.509
 124   1 H      0.086  0.914  0.000  0.000     1.917     2.165
 125   1 H      0.064  0.936  0.000  0.000     2.150     2.293
 126   1 H      0.344  0.656  0.000  0.000     0.602     1.219
 127   1 H      0.060  0.940  0.000  0.000     2.200     2.319
 128   1 H      0.069  0.931  0.000  0.000     2.098     2.265
 129   1 H      0.051  0.949  0.000  0.000     2.311     2.377
 130   7 N     -0.189  1.249  3.940  0.000    25.101     7.441
 131   6 C      0.018  1.064  2.918  0.000    20.271     6.411
 132   6 C      0.271  1.043  2.686  0.000    22.426     7.755
 133   8 O     -0.484  1.735  4.749  0.000    23.431     6.490
 134   6 C     -0.017  1.062  2.954  0.000    20.840     6.493
 135   6 C     -0.119  1.039  3.080  0.000    22.832     6.813
 136   6 C     -0.128  1.042  3.086  0.000    23.016     6.840
 137   1 H      0.241  0.759  0.000  0.000     0.917     1.500
 138   1 H      0.075  0.925  0.000  0.000     2.031     2.229
 139   1 H      0.048  0.952  0.000  0.000     2.339     2.392
 140   1 H      0.060  0.940  0.000  0.000     2.196     2.318
 141   1 H      0.035  0.965  0.000  0.000     2.515     2.480
 142   1 H      0.050  0.950  0.000  0.000     2.314     2.379
 143   1 H      0.058  0.942  0.000  0.000     2.222     2.331
 144   1 H      0.049  0.951  0.000  0.000     2.332     2.388
 145   1 H      0.067  0.933  0.000  0.000     2.123     2.279
 146   7 N     -0.191  1.251  3.940  0.000    25.147     7.448
 147   6 C      0.008  1.065  2.927  0.000    20.454     6.440
 148   6 C      0.266  1.042  2.692  0.000    22.514     7.770
 149   8 O     -0.501  1.743  4.758  0.000    23.798     6.541
 150   6 C      0.077  1.035  2.889  0.000    19.513     6.328
 151   8 O     -0.460  1.712  4.748  0.000    22.054     6.340
 152   1 H      0.232  0.768  0.000  0.000     0.958     1.534
 153   1 H      0.082  0.918  0.000  0.000     1.955     2.187
 154   1 H      0.037  0.963  0.000  0.000     2.494     2.470
 155   1 H      0.057  0.943  0.000  0.000     2.232     2.336
 156   1 H      0.339  0.661  0.000  0.000     0.614     1.231
 157   7 N     -0.193  1.255  3.937  0.000    25.178     7.452
 158   6 C      0.019  1.065  2.916  0.000    20.251     6.407
 159   6 C      0.274  1.043  2.683  0.000    22.371     7.745
 160   8 O     -0.489  1.732  4.757  0.000    23.546     6.506
 161   6 C     -0.019  1.061  2.958  0.000    20.878     6.499
 162   6 C     -0.126  1.042  3.084  0.000    22.979     6.835
 163   6 C     -0.124  1.042  3.082  0.000    22.926     6.827
 164   1 H      0.241  0.759  0.000  0.000     0.918     1.501
 165   1 H      0.071  0.929  0.000  0.000     2.075     2.253
 166   1 H      0.054  0.946  0.000  0.000     2.267     2.354
 167   1 H      0.068  0.932  0.000  0.000     2.107     2.270
 168   1 H      0.046  0.954  0.000  0.000     2.373     2.409
 169   1 H      0.050  0.950  0.000  0.000     2.323     2.384
 170   1 H      0.059  0.941  0.000  0.000     2.212     2.326
 171   1 H      0.045  0.955  0.000  0.000     2.384     2.414
 172   1 H      0.053  0.947  0.000  0.000     2.278     2.360
 173   7 N     -0.197  1.259  3.938  0.000    25.285     7.468
 174   6 C      0.025  1.061  2.914  0.000    20.157     6.393
 175   6 C      0.280  1.038  2.681  0.000    22.257     7.726
 176   8 O     -0.504  1.739  4.765  0.000    23.870     6.550
 177   6 C     -0.086  1.056  3.030  0.000    22.123     6.695
 178   6 C      0.010  1.082  2.908  0.000    27.798     8.648
 179   6 C     -0.043  1.080  2.964  0.000    29.072     8.843
 180   6 C     -0.047  1.079  2.969  0.000    29.174     8.858
 181   6 C     -0.035  1.080  2.955  0.000    28.864     8.810
 182   6 C     -0.039  1.083  2.956  0.000    28.964     8.826
 183   6 C     -0.036  1.079  2.957  0.000    28.906     8.817
 184   1 H      0.241  0.759  0.000  0.000     0.918     1.501
 185   1 H      0.072  0.928  0.000  0.000     2.060     2.244
 186   1 H      0.088  0.912  0.000  0.000     1.901     2.156
 187   1 H      0.073  0.927  0.000  0.000     2.048     2.238
 188   1 H      0.037  0.963  0.000  0.000     2.484     2.465
 189   1 H      0.032  0.968  0.000  0.000     2.559     2.502
 190   1 H      0.043  0.957  0.000  0.000     2.413     2.429
 191   1 H      0.045  0.955  0.000  0.000     2.384     2.415
 192   1 H      0.037  0.963  0.000  0.000     2.490     2.467
 193   7 N     -0.195  1.261  3.934  0.000    25.230     7.460
 194   6 C      0.031  1.060  2.909  0.000    20.042     6.373
 195   6 C      0.290  1.039  2.671  0.000    22.092     7.697
 196   8 O     -0.497  1.739  4.759  0.000    23.729     6.531
 197   6 C     -0.132  1.041  3.091  0.000    23.089     6.851
 198   1 H      0.248  0.752  0.000  0.000     0.891     1.479
 199   1 H      0.062  0.938  0.000  0.000     2.181     2.309
 200   1 H      0.061  0.939  0.000  0.000     2.184     2.311
 201   1 H      0.080  0.920  0.000  0.000     1.983     2.202
 202   1 H      0.066  0.934  0.000  0.000     2.133     2.284
 203   7 N     -0.182  1.243  3.939  0.000    24.952     7.419
 204   6 C     -0.013  1.048  2.965  0.000    20.874     6.517
 205   6 C      0.284  1.039  2.677  0.000    22.193     7.714
 206   8 O     -0.521  1.757  4.764  0.000    24.250     6.602
 207   1 H      0.229  0.771  0.000  0.000     0.968     1.542
 208   1 H      0.062  0.938  0.000  0.000     2.172     2.305
 209   1 H      0.077  0.923  0.000  0.000     2.008     2.216
 210   7 N     -0.194  1.257  3.936  0.000    25.207     7.457
 211   6 C      0.022  1.058  2.919  0.000    20.209     6.402
 212   6 C      0.267  1.043  2.690  0.000    22.497     7.768
 213   8 O     -0.513  1.748  4.765  0.000    24.065     6.577
 214   6 C     -0.082  1.057  3.025  0.000    22.062     6.685
 215   6 C     -0.092  1.054  3.038  0.000    22.245     6.715
 216   6 C     -0.027  1.054  2.973  0.000    21.149     6.563
 217   7 N     -0.134  1.207  3.927  0.000    23.896     7.260
 218   6 C      0.231  1.021  2.748  0.000    23.157     7.879
 219   7 N     -0.240  1.234  4.005  0.000    26.265     7.611
 220   7 N     -0.254  1.247  4.007  0.000    26.602     7.660
 221   1 H      0.266  0.734  0.000  0.000     0.825     1.422
 222   1 H      0.059  0.941  0.000  0.000     2.207     2.323
 223   1 H      0.071  0.929  0.000  0.000     2.071     2.251
 224   1 H      0.072  0.928  0.000  0.000     2.059     2.244
 225   1 H      0.084  0.916  0.000  0.000     1.935     2.176
 226   1 H      0.086  0.914  0.000  0.000     1.918     2.166
 227   1 H      0.068  0.932  0.000  0.000     2.108     2.270
 228   1 H      0.106  0.894  0.000  0.000     1.734     2.059
 229   1 H      0.243  0.757  0.000  0.000     0.912     1.496
 230   1 H      0.232  0.768  0.000  0.000     0.954     1.530
 231   1 H      0.232  0.768  0.000  0.000     0.956     1.532
 232   1 H      0.252  0.748  0.000  0.000     0.875     1.465
 233   1 H      0.243  0.757  0.000  0.000     0.910     1.494
 234   7 N     -0.199  1.256  3.943  0.000    25.324     7.474
 235   6 C      0.023  1.063  2.915  0.000    20.200     6.400
 236   6 C      0.284  1.039  2.676  0.000    22.188     7.714
 237   8 O     -0.518  1.759  4.760  0.000    24.197     6.595
 238   6 C     -0.081  1.064  3.017  0.000    22.041     6.683
 239   6 C     -0.009  1.054  2.954  0.000    20.701     6.472
 240   6 C     -0.115  1.040  3.075  0.000    22.757     6.802
 241   6 C     -0.116  1.043  3.073  0.000    22.778     6.805
 242   1 H      0.240  0.760  0.000  0.000     0.923     1.505
 243   1 H      0.074  0.926  0.000  0.000     2.048     2.238
 244   1 H      0.076  0.924  0.000  0.000     2.023     2.224
 245   1 H      0.057  0.943  0.000  0.000     2.233     2.337
 246   1 H      0.016  0.984  0.000  0.000     2.793     2.614
 247   1 H      0.045  0.955  0.000  0.000     2.389     2.417
 248   1 H      0.033  0.967  0.000  0.000     2.542     2.493
 249   1 H      0.053  0.947  0.000  0.000     2.281     2.362
 250   1 H      0.045  0.955  0.000  0.000     2.382     2.414
 251   1 H      0.056  0.944  0.000  0.000     2.243     2.342
 252   1 H      0.038  0.962  0.000  0.000     2.474     2.460
 253   7 N     -0.196  1.256  3.940  0.000    25.263     7.465
 254   6 C      0.032  1.065  2.903  0.000    20.025     6.370
 255   6 C      0.288  1.044  2.667  0.000    22.112     7.700
 256   8 O     -0.523  1.757  4.766  0.000    24.307     6.610
 257   6 C     -0.017  1.063  2.953  0.000    20.836     6.492
 258   6 C     -0.064  1.053  3.010  0.000    21.716     6.634
 259   6 C     -0.103  1.035  3.068  0.000    22.525     6.767
 260   6 C     -0.104  1.034  3.069  0.000    22.542     6.771
 261   1 H      0.230  0.770  0.000  0.000     0.966     1.539
 262   1 H      0.056  0.944  0.000  0.000     2.249     2.345
 263   1 H      0.047  0.953  0.000  0.000     2.353     2.399
 264   1 H      0.040  0.960  0.000  0.000     2.444     2.445
 265   1 H      0.048  0.952  0.000  0.000     2.348     2.396
 266   1 H      0.056  0.944  0.000  0.000     2.245     2.343
 267   1 H      0.014  0.986  0.000  0.000     2.829     2.630
 268   1 H      0.040  0.960  0.000  0.000     2.445     2.445
 269   1 H      0.053  0.947  0.000  0.000     2.286     2.365
 270   1 H      0.040  0.960  0.000  0.000     2.448     2.447
 271   1 H      0.036  0.964  0.000  0.000     2.501     2.473
 272   7 N     -0.221  1.281  3.940  0.000    25.825     7.548
 273   6 C      0.050  1.052  2.898  0.000    19.741     6.327
 274   6 C      0.211  1.087  2.702  0.000    23.540     7.946
 275   8 O     -0.371  1.753  4.618  0.000    21.103     6.159
 276   6 C     -0.055  1.055  3.000  0.000    21.567     6.611
 277   6 C     -0.101  1.073  3.028  0.000    22.422     6.742
 278   6 C      0.375  1.024  2.602  0.000    20.653     7.437
 279   8 O     -0.655  1.782  4.873  0.000    27.508     7.032
 280   8 O     -0.645  1.767  4.878  0.000    27.250     6.999
 281   1 H      0.237  0.763  0.000  0.000     0.934     1.514
 282   1 H      0.056  0.944  0.000  0.000     2.253     2.347
 283   1 H      0.062  0.938  0.000  0.000     2.175     2.306
 284   1 H      0.054  0.946  0.000  0.000     2.274     2.358
 285   1 H      0.041  0.959  0.000  0.000     2.431     2.438
 286   1 H      0.017  0.983  0.000  0.000     2.776     2.606
 287   1 H      0.184  0.816  0.000  0.000     1.188     1.708
 288   1 H      0.074  0.926  0.000  0.000     2.044     2.235
 289   1 H      0.187  0.813  0.000  0.000     1.172     1.696
 290   1 H      0.068  0.932  0.000  0.000     2.111     2.272
 291   1 H      0.185  0.815  0.000  0.000     1.186     1.706
 292   1 H      0.077  0.923  0.000  0.000     2.014     2.219

 Mol. C6AA /au·bohr⁶  :     799903.407139
 Mol. C8AA /au·bohr⁸  :   18103367.955110
 Mol. α(0) /au        :       1349.039468

 
molecular dipole:
                 x           y           z       tot (Debye)
 q only:       -6.218      -0.050     -33.751
   full:       -5.951      -0.967     -35.578      91.722
molecular quadrupole (traceless):
                xx          xy          yy          xz          yz          zz
 q only:     1856.392   -1134.208    2918.643   -3433.382   -6797.820   -4775.035
  q+dip:     2137.155   -1164.857    2757.354   -3548.044   -7257.828   -4894.509
   full:     2138.742   -1163.064    2761.205   -3547.980   -7263.026   -4899.948
speedup  1.00
cpu  time for grad    4.67 s
wall time for grad    4.67 s

SCC energy    :    -441.4671804
rep           :       5.5546955
ES            :       1.1520336
AES           :      -0.0320058
AXC           :       0.1556180
disp          :      -0.3928902
XB            :       0.0000000
fix           :       0.0000000
Gborn         :       0.0000000
Gsasa         :       0.0000000
Ghb           :       0.0000000
Gshift        :       0.0000000
Gsolv         :      -0.2727119     -171.13
Etot ala COSMO:    -441.4671804
grad norm     :       0.3875669
total E       :    -435.8807992
atomizationE  :      82.3680979    51686.76
(atE without considering molecular charge,
 total energy contains solvation terms)
H-L gap (eV)  :          1.6753

------------------------------------------------------------------------
 * finished run on 2019/03/14 at 15:08:24.718     
------------------------------------------------------------------------
 total:
 * wall-time:     0 d,  0 h,  0 min,  5.294 sec
 *  cpu-time:     0 d,  0 h,  0 min,  5.082 sec
 * ratio c/w:     0.960 speedup
 SCF:
 * wall-time:     0 d,  0 h,  0 min,  4.978 sec
 *  cpu-time:     0 d,  0 h,  0 min,  4.976 sec
 * ratio c/w:     1.000 speedup

