      -----------------------------------------------------------      
     |                   =====================                   |     
     |                           x T B                           |     
     |                   =====================                   |     
     |                         S. Grimme                         |     
     |          Mulliken Center for Theoretical Chemistry        |     
     |                    University of Bonn                     |     
     |                Version 6.1 RC1 (SAW190329)                |     
      -----------------------------------------------------------      

   This program is distributed in the hope that it will be useful,
   but WITHOUT ANY WARRANTY; without even the implied warranty of
   MERCHANTABILITY or FITNESS FOR A PARTICULAR PURPOSE.
   
   FOR NON-COMMERCIAL, ACADEMIA USE ONLY.
   
   Cite this work as:
   S. Grimme, C. Bannwarth, P. Shushkov, J. Comput. Theory Chem., 2017,
   13, 1989-2009. DOI: 10.1021/acs.jctc.7b00118
   C. Bannwarth, S. Ehlert and S. Grimme., J. Comput. Theory Chem., 2019,
   just accepted. DOI: 10.1021/acs.jctc.8b01176
   
   for sTDA-xTB:
   S. Grimme and C. Bannwarth, J. Chem. Phys., 2016, 145, 054103.
   DOI: 10.1063/1.4959605
   
   in the mass-spec context:
   V. Asgeirsson, C. Bauer and S. Grimme, Chem. Sci., 2017, 8, 4879.
   DOI: 10.1039/c7sc00601b
   
   for metadynamics refer to:
   S. Grimme, ChemRxiv, Preprint. DOI: 10.26434/chemrxiv.7660532.v1
   
   with help from (in alphabetical order)
   C. Bannwarth, F. Bohle, G. Brandenburg, E. Caldeweyher, M. Checinski,
   S. Dohm, S. Ehlert, S. Ehrlich, F. März, H. Neugebauer, J. Pisarek,
   P. Pracht, P. Shushkov, and S. Spicher.
   
 * started run on 2019/05/31 at 02:07:10.885     

           -------------------------------------------------
          |                Calculation Setup                |
           -------------------------------------------------

          program call               : /home/lum/qr/xtb-190329/bin/xtb xtb_tmp.xyz --chrg -1 --grad --gfn 2 --etemp 500 --acc 0.1 --gbsa h2o --parallel 4
          hostname                   : cu39
          coordinate file            : xtb_tmp.xyz
          omp threads                :                     4
          number of atoms            :                   416
          number of electrons        :                  1126
          charge                     :                    -1
          spin                       :                   0.0
          first test random number   :      0.50437594338877


molecular fragmentation (1/2 indicates fragments):
111111111111111111111111222222222222222222222222222222222222222222222222
222222222222222222222222222222222222222222222222222222222222222222222222
222222222222222222222222222222222222222222222222222222222222222222222222
222222222222222222222222222222222222222222222222222222222222222222222222
222222222222222222222222222222222222222222222222222222222222222222222222
22222222222222222222222222222222222222222222112222222222
# atoms in fragment 1/2:    26   390
 fragment masses (1/2) :      188.23     2659.13
CMA distance (Bohr)    :  16.300
constraining FC (au)   :  0.0500

########################################################################
# WARNING! Please study the warnings concerning your input carefully
#  - XTBPATH is not set, using XTBHOME instead
#  - Process number higher than OMP_NUM_THREADS, I hope you know what you are doing.
########################################################################

           ------------------------------------------------- 
          |                 G F N 2 - x T B                 |
          | Geometry, Frequencies, Noncovalent interactions |
          |            JCTC 2018 parametrisation            |
           ------------------------------------------------- 
 
             k(s)              :                1.8500
             k(p)              :                2.2300
             k(d)              :                2.2300
             k(f)              :                2.0000
             kEN (H0ij)        :               -2.0000
             D4 a1             :                0.5200
             D4 a2             :                5.0000
             D4 s6             :                1.0000
             D4 s8             :                2.7000
             D4 s9             :                5.0000
             alphaj            :                2.0000

  Z AO/shell   Hii/eV     exponent
  1     Wed Apr 25 08:07:45 CEST 2018   EN: 2.200 GM2: 0.406  GM3: 0.0800  RAES: 1.40
     1s    -10.707211    1.230000
  6     Wed Apr 25 08:07:45 CEST 2018   EN: 2.550 GM2: 0.538  GM3: 0.1500  RAES: 3.00
     2s    -13.970922    2.096432
     2p    -10.063292    1.800000
  7     Wed Apr 25 08:07:45 CEST 2018   EN: 3.040 GM2: 0.461  GM3:-0.0640  RAES: 1.90
     2s    -16.686243    2.339881
     2p    -12.523956    2.014332
  8     Wed Apr 25 08:07:45 CEST 2018   EN: 3.440 GM2: 0.452  GM3:-0.0517  RAES: 1.80
     2s    -20.229985    2.439742
     2p    -15.503117    2.137023

 Solvent             : h2o
 Using internal parameter file: .param_gbsa2_h2o
 Gsolv ref. state (COSMO-RS): gsolv [1 M gas/solution]
 temperature (mdtemp)       :    298.150000000000     
 dielectric constant        :    80.2000000000000     
 rho                        :    1.00000000000000     
 mass                       :    18.0000000000000     
 surface tension            :    15.5689454083859     
 probe radius               :   0.975313790000000     
 vdW radii scaling          :    1.00000000000000     
 Gshift (Eh)                :   1.857443126794793E-003
 c1                         :    1.55243817000000     
 soset                      :   0.130326360000000     
 HB correction              :  T
 Number of grid points      :          230

            Z     q(EN)     CN     RAES       Cart. coordinates
     1  N   5.0   -0.70    3.00    1.93    46.88674    50.14971    38.71339
     2  C   4.0    0.07    3.98    3.59    44.91987    48.94390    40.19816
     3  C   4.0    0.07    3.00    3.02    42.96595    47.75286    38.42353
     4  O   6.0   -0.41    1.00    1.80    41.30929    49.00736    37.38205
     5  C   4.0   -0.13    3.98    3.59    43.74489    50.84476    42.03190
     6  C   4.0   -0.05    3.12    3.03    45.60164    51.44629    44.07117
     7  C   4.0    0.00    3.21    3.04    46.40909    49.85139    45.94011
     8  C   4.0    0.01    3.18    3.03    47.02377    53.72547    44.34321
     9  N   5.0   -0.48    3.10    1.94    48.23951    50.99835    47.35976
    10  C   4.0    0.11    3.22    3.04    48.66173    53.36421    46.43179
    11  C   4.0   -0.12    3.02    3.02    47.05785    56.02646    43.05374
    12  C   4.0   -0.12    3.02    3.02    50.35183    55.22096    47.19880
    13  C   4.0   -0.12    3.03    3.02    48.70298    57.87138    43.85944
    14  C   4.0   -0.12    3.03    3.02    50.35108    57.46609    45.88427
    15  H   1.0    0.27    1.00    1.43    46.65026    51.97421    38.20659
    16  H   1.0    0.10    0.99    1.43    45.83964    47.41481    41.24949
    17  H   1.0    0.12    0.99    1.43    43.21742    52.54441    40.99244
    18  H   1.0    0.10    0.99    1.43    42.01511    50.02656    42.80126
    19  H   1.0    0.11    1.00    1.43    45.80831    47.96070    46.36156
    20  H   1.0    0.23    1.00    1.43    49.11363    50.23511    48.86435
    21  H   1.0    0.11    1.00    1.43    45.83534    56.33787    41.44987
    22  H   1.0    0.10    1.00    1.43    51.61592    54.91704    48.76754
    23  H   1.0    0.10    0.99    1.43    48.74979    59.67865    42.90796
    24  H   1.0    0.10    1.00    1.43    51.64449    58.95074    46.42178
    25  N   5.0   -0.69    3.00    1.93    51.32158    38.88379    51.39415
    26  C   4.0    0.08    3.99    3.60    51.05200    41.11817    52.96441
    27  C   4.0    0.28    3.01    3.02    48.45345    42.29065    52.46812
    28  O   6.0   -0.41    1.00    1.80    47.66866    42.54769    50.30592
    29  C   4.0   -0.09    3.98    3.59    53.09586    43.09402    52.36126
    30  C   4.0   -0.23    3.98    3.59    52.86396    45.32804    54.16536
    31  C   4.0   -0.23    3.98    3.59    55.71962    41.92064    52.53566
    32  H   1.0    0.26    1.00    1.43    51.81603    39.15399    49.55726
    33  H   1.0    0.13    0.99    1.43    51.20033    40.52998    54.93854
    34  H   1.0    0.12    0.99    1.43    52.78559    43.75722    50.42411
    35  H   1.0    0.09    0.99    1.43    54.34709    46.69452    53.78365
    36  H   1.0    0.12    0.99    1.43    51.05421    46.27515    53.95703
    37  H   1.0    0.12    0.99    1.43    53.05768    44.68914    56.10689
    38  H   1.0    0.10    0.99    1.43    57.14660    43.38128    52.31337
    39  H   1.0    0.11    0.99    1.43    55.98421    41.02214    54.36531
    40  H   1.0    0.10    0.99    1.43    55.98422    40.53072    51.04936
    41  N   5.0   -0.50    3.01    1.93    47.16489    42.97968    54.52070
    42  C   4.0    0.07    3.99    3.61    44.55361    43.80229    54.45842
    43  C   4.0    0.28    3.01    3.02    44.31910    46.67889    54.78780
    44  O   6.0   -0.45    1.00    1.80    44.92148    47.75838    56.75071
    45  C   4.0   -0.12    3.99    3.61    43.16449    42.49376    56.63241
    46  C   4.0   -0.04    3.03    3.02    40.38153    43.01647    56.79628
    47  C   4.0   -0.11    3.03    3.02    38.83267    43.09509    54.67517
    48  C   4.0   -0.09    3.04    3.02    39.28147    43.29804    59.16297
    49  C   4.0   -0.09    3.03    3.02    36.25294    43.43387    54.91937
    50  C   4.0   -0.09    3.03    3.02    36.71089    43.64949    59.42901
    51  C   4.0    0.09    3.03    3.02    35.17406    43.70067    57.30263
    52  O   6.0   -0.48    1.99    1.83    32.62665    44.00498    57.47894
    53  H   1.0    0.27    1.00    1.43    47.94869    42.70735    56.24439
    54  H   1.0    0.12    0.99    1.43    43.79755    43.26190    52.61357
    55  H   1.0    0.12    0.99    1.43    43.43666    40.45774    56.42742
    56  H   1.0    0.12    0.99    1.43    44.06084    43.09652    58.38964
    57  H   1.0    0.11    1.00    1.43    39.63071    42.85584    52.81568
    58  H   1.0    0.12    1.00    1.43    40.44471    43.20908    60.83407
    59  H   1.0    0.12    1.00    1.43    35.03927    43.48421    53.28065
    60  H   1.0    0.12    1.00    1.43    35.88588    43.88513    61.28066
    61  H   1.0    0.25    0.99    1.43    32.15372    44.23350    59.22771
    62  N   5.0   -0.50    3.01    1.93    43.32541    47.85119    52.78546
    63  C   4.0    0.07    3.99    3.60    42.92982    50.56049    52.61981
    64  C   4.0    0.29    3.01    3.02    41.58593    51.63610    54.93377
    65  O   6.0   -0.47    1.00    1.80    42.00551    53.78466    55.67677
    66  C   4.0   -0.16    3.98    3.59    41.34754    51.11251    50.24231
    67  C   4.0   -0.14    3.98    3.58    40.44055    53.84094    49.98803
    68  C   4.0   -0.04    3.99    3.59    42.61646    55.74996    49.90126
    69  N   5.0   -0.49    3.02    1.93    41.70689    58.31593    49.62883
    70  C   4.0    0.38    3.00    3.02    40.93928    59.80207    51.52662
    71  N   5.0   -0.64    3.01    1.93    40.96645    59.02007    53.89656
    72  N   5.0   -0.64    3.02    1.93    40.15367    62.13103    50.98881
    73  H   1.0    0.22    1.00    1.43    42.87265    46.81415    51.21919
    74  H   1.0    0.12    0.99    1.43    44.76001    51.52590    52.50344
    75  H   1.0    0.10    0.99    1.43    42.48839    50.62460    48.59564
    76  H   1.0    0.11    0.99    1.43    39.68488    49.89615    50.29298
    77  H   1.0    0.11    0.99    1.43    39.35547    53.99270    48.24347
    78  H   1.0    0.15    0.99    1.43    39.17380    54.30959    51.54470
    79  H   1.0    0.12    0.99    1.43    43.73701    55.64230    51.62826
    80  H   1.0    0.11    0.99    1.43    43.84553    55.34609    48.29363
    81  H   1.0    0.23    1.00    1.43    41.42242    58.94217    47.85176
    82  H   1.0    0.30    1.00    1.43    41.38232    57.21050    54.34682
    83  H   1.0    0.32    1.00    1.43    40.29434    60.15120    55.32624
    84  H   1.0    0.25    1.00    1.43    40.29725    62.80979    49.21506
    85  H   1.0    0.31    1.00    1.43    39.89645    63.39535    52.40583
    86  N   5.0   -0.47    3.01    1.93    39.84715    50.12426    55.98501
    87  C   4.0    0.08    4.00    3.61    38.24971    50.96785    58.02169
    88  C   4.0    0.28    3.02    3.02    38.92536    49.82332    60.58103
    89  O   6.0   -0.42    1.00    1.80    37.46964    49.93436    62.37410
    90  C   4.0   -0.12    3.99    3.60    35.45268    50.60944    57.35123
    91  C   4.0   -0.03    3.03    3.02    34.79201    52.16042    55.06428
    92  C   4.0   -0.10    3.03    3.02    34.75387    54.78677    55.20026
    93  C   4.0   -0.10    3.03    3.02    34.29886    51.01707    52.75798
    94  C   4.0   -0.07    3.03    3.02    34.25326    56.23418    53.08971
    95  C   4.0   -0.11    3.02    3.02    33.76642    52.44350    50.63246
    96  C   4.0    0.10    3.03    3.02    33.75259    55.06692    50.78120
    97  O   6.0   -0.47    1.99    1.83    33.28258    56.56384    48.75149
    98  H   1.0    0.25    1.00    1.43    39.53413    48.37693    55.28096
    99  H   1.0    0.14    0.99    1.43    38.62324    52.99940    58.25117
   100  H   1.0    0.13    0.99    1.43    35.09161    48.61265    56.99549
   101  H   1.0    0.12    0.99    1.43    34.34644    51.20205    58.98564
   102  H   1.0    0.12    0.99    1.43    35.11903    55.72351    56.98019
   103  H   1.0    0.11    1.00    1.43    34.29759    48.98250    52.61458
   104  H   1.0    0.14    1.00    1.43    34.23421    58.26908    53.19832
   105  H   1.0    0.11    1.00    1.43    33.35119    51.50702    48.86694
   106  H   1.0    0.25    0.99    1.43    32.92933    55.54250    47.27944
   107  N   5.0   -0.48    3.01    1.93    41.21400    48.74345    60.76760
   108  C   4.0    0.08    4.00    3.63    42.14399    48.17347    63.27870
   109  C   4.0    0.32    3.01    3.02    42.03337    50.62412    64.86056
   110  O   6.0   -0.41    1.00    1.80    42.69261    52.66060    63.99061
   111  C   4.0   -0.11    3.99    3.60    44.84651    47.13961    63.14962
   112  C   4.0    0.27    3.00    3.02    45.98477    47.17583    65.78530
   113  O   6.0   -0.48    1.00    1.80    46.99516    49.08505    66.63789
   114  N   5.0   -0.67    3.00    1.93    45.72637    45.05496    67.11809
   115  H   1.0    0.30    1.00    1.43    42.49101    48.82922    59.33656
   116  H   1.0    0.12    0.99    1.43    40.86337    46.78589    64.13153
   117  H   1.0    0.10    0.99    1.43    44.81153    45.23783    62.36619
   118  H   1.0    0.12    0.99    1.43    45.96688    48.35650    61.91894
   119  H   1.0    0.27    1.00    1.43    46.40583    44.99466    68.89863
   120  H   1.0    0.28    1.00    1.43    44.85062    43.49485    66.43068
   121  N   5.0   -0.48    3.01    1.93    41.23650    50.31441    67.24319
   122  C   4.0    0.07    3.99    3.60    40.65264    52.43248    68.89146
   123  C   4.0    0.30    3.01    3.02    42.77946    54.39165    68.98360
   124  O   6.0   -0.43    1.00    1.80    42.30183    56.64964    69.03014
   125  C   4.0   -0.22    3.99    3.60    40.16639    51.47443    71.56667
   126  H   1.0    0.23    1.00    1.43    40.44959    48.65416    67.76338
   127  H   1.0    0.13    0.99    1.43    38.97818    53.42776    68.17139
   128  H   1.0    0.11    0.99    1.43    39.78853    53.07210    72.79959
   129  H   1.0    0.10    0.99    1.43    38.53835    50.22273    71.58546
   130  H   1.0    0.11    0.99    1.43    41.81847    50.48210    72.27311
   131  N   5.0   -0.48    3.01    1.93    45.11709    53.44540    69.27939
   132  C   4.0    0.08    4.00    3.62    47.28679    55.10323    69.46370
   133  C   4.0    0.28    3.02    3.02    48.00803    56.16960    66.88175
   134  O   6.0   -0.45    1.00    1.80    48.44915    58.42021    66.53393
   135  C   4.0   -0.09    3.98    3.59    49.55153    53.69163    70.61746
   136  C   4.0   -0.22    3.98    3.59    51.84007    55.43961    70.76972
   137  C   4.0   -0.22    3.98    3.59    48.90275    52.67536    73.23486
   138  H   1.0    0.29    1.00    1.43    45.49799    51.62764    68.80425
   139  H   1.0    0.13    0.99    1.43    46.75044    56.70891    70.65760
   140  H   1.0    0.12    0.99    1.43    50.00650    52.10355    69.37356
   141  H   1.0    0.12    0.99    1.43    53.51134    54.41561    71.39628
   142  H   1.0    0.11    0.99    1.43    52.26712    56.26920    68.93730
   143  H   1.0    0.11    0.99    1.43    51.48898    56.97504    72.09064
   144  H   1.0    0.10    0.99    1.43    50.53597    51.69065    73.99732
   145  H   1.0    0.10    0.99    1.43    48.41616    54.22266    74.49504
   146  H   1.0    0.11    0.99    1.43    47.31834    51.37795    73.14552
   147  N   5.0   -0.48    3.01    1.93    48.14255    54.48137    65.00588
   148  C   4.0    0.07    4.00    3.62    49.07718    55.31045    62.57803
   149  C   4.0    0.29    3.02    3.02    47.43572    57.39904    61.45608
   150  O   6.0   -0.47    1.00    1.80    48.42324    59.21988    60.40511
   151  C   4.0   -0.14    3.99    3.60    49.25614    53.16937    60.65371
   152  C   4.0   -0.10    3.98    3.58    51.09210    51.04385    61.38275
   153  C   4.0   -0.22    3.99    3.60    51.28001    49.19107    59.17718
   154  C   4.0   -0.23    3.98    3.59    53.72857    52.02277    62.02840
   155  H   1.0    0.28    1.00    1.43    47.80577    52.62086    65.31423
   156  H   1.0    0.11    0.99    1.43    50.94850    56.16797    62.85252
   157  H   1.0    0.13    0.99    1.43    47.36528    52.39798    60.35666
   158  H   1.0    0.10    0.99    1.43    49.87838    54.00112    58.87048
   159  H   1.0    0.13    0.99    1.43    50.36766    50.05558    63.05096
   160  H   1.0    0.12    0.99    1.43    52.58057    47.67772    59.65965
   161  H   1.0    0.12    0.99    1.43    49.44230    48.41230    58.68780
   162  H   1.0    0.10    0.99    1.43    52.02861    50.16150    57.53097
   163  H   1.0    0.12    0.99    1.43    55.00010    50.42859    62.29410
   164  H   1.0    0.09    0.99    1.43    54.45926    53.19978    60.51200
   165  H   1.0    0.10    0.99    1.43    53.74278    53.11099    63.77462
   166  N   5.0   -0.48    3.00    1.93    44.94286    57.05865    61.50686
   167  C   4.0    0.09    4.00    3.62    43.31984    58.73808    60.07123
   168  C   4.0    0.30    3.02    3.02    43.89850    61.52220    60.56757
   169  O   6.0   -0.43    1.01    1.80    44.39168    62.92483    58.76628
   170  C   4.0   -0.10    3.98    3.58    40.50840    58.21549    60.45998
   171  C   4.0    0.32    2.99    3.02    39.03697    60.76684    60.13882
   172  O   6.0   -0.46    1.00    1.80    39.05631    61.71158    57.96690
   173  O   6.0   -0.40    1.00    1.80    38.02092    61.67888    62.03108
   174  H   1.0    0.30    1.00    1.43    44.16421    55.57529    62.43152
   175  H   1.0    0.14    0.99    1.43    43.77922    58.47834    58.06041
   176  H   1.0    0.12    0.99    1.43    39.86787    56.85808    59.05000
   177  H   1.0    0.13    0.99    1.43    40.14761    57.46679    62.34470
   178  N   5.0   -0.33    3.03    1.93    43.85198    62.42853    62.90477
   179  C   4.0    0.07    4.04    3.70    44.25486    65.12724    63.25025
   180  C   4.0    0.29    3.01    3.02    46.60446    66.04044    61.86504
   181  O   6.0   -0.47    1.00    1.80    46.65436    68.09862    60.79958
   182  C   4.0   -0.15    4.01    3.64    44.41798    65.44838    66.11772
   183  C   4.0   -0.14    4.02    3.65    42.64320    63.37624    67.04677
   184  C   4.0   -0.01    4.02    3.65    43.24844    61.18940    65.27195
   185  H   1.0    0.13    0.99    1.43    42.62625    66.16477    62.48200
   186  H   1.0    0.11    0.99    1.43    46.33950    65.06917    66.76103
   187  H   1.0    0.10    0.99    1.43    43.85241    67.33029    66.71173
   188  H   1.0    0.11    0.99    1.43    42.94673    62.85900    69.00932
   189  H   1.0    0.12    0.99    1.43    40.68176    63.94459    66.77753
   190  H   1.0    0.17    0.99    1.43    44.88498    60.12993    65.95341
   191  H   1.0    0.14    0.99    1.43    41.65307    59.91189    65.07181
   192  N   5.0   -0.48    3.01    1.93    48.62376    64.54112    62.06789
   193  C   4.0    0.07    3.99    3.61    51.03396    65.17409    60.94126
   194  C   4.0    0.29    3.01    3.02    50.90076    65.26914    58.05080
   195  O   6.0   -0.46    1.00    1.80    51.87032    67.01978    56.87757
   196  C   4.0   -0.14    3.99    3.60    53.03421    63.25032    61.74283
   197  C   4.0   -0.10    3.98    3.58    53.52847    63.19884    64.59883
   198  C   4.0   -0.23    3.98    3.59    55.37391    61.06152    65.20082
   199  C   4.0   -0.23    3.98    3.59    54.56500    65.72116    65.54079
   200  H   1.0    0.28    1.00    1.43    48.42174    62.75849    62.72118
   201  H   1.0    0.12    0.99    1.43    51.54613    67.08553    61.55433
   202  H   1.0    0.13    0.99    1.43    52.39172    61.38493    61.14252
   203  H   1.0    0.10    0.99    1.43    54.79057    63.67954    60.74990
   204  H   1.0    0.13    0.99    1.43    51.75752    62.77968    65.58398
   205  H   1.0    0.10    0.99    1.43    55.67815    60.90878    67.22849
   206  H   1.0    0.10    0.99    1.43    54.63074    59.25859    64.54851
   207  H   1.0    0.11    0.99    1.43    57.20099    61.37209    64.31073
   208  H   1.0    0.10    0.99    1.43    55.19356    65.53653    67.48803
   209  H   1.0    0.10    0.99    1.43    56.16030    66.28777    64.37769
   210  H   1.0    0.10    0.99    1.43    53.13195    67.18968    65.46914
   211  N   5.0   -0.49    3.01    1.93    49.79363    63.30489    56.94162
   212  C   4.0    0.08    4.00    3.63    49.51029    63.20432    54.21783
   213  C   4.0    0.30    3.01    3.02    48.08661    65.54732    53.30192
   214  O   6.0   -0.47    1.00    1.80    48.86135    66.86133    51.56454
   215  C   4.0   -0.09    3.98    3.59    48.13342    60.79074    53.38512
   216  C   4.0   -0.21    3.98    3.59    47.48883    60.97043    50.57726
   217  C   4.0   -0.23    3.98    3.59    49.76917    58.47520    53.91432
   218  H   1.0    0.30    1.00    1.43    48.93879    61.96197    58.00603
   219  H   1.0    0.11    0.99    1.43    51.39889    63.28131    53.35963
   220  H   1.0    0.14    0.99    1.43    46.38740    60.65309    54.48832
   221  H   1.0    0.11    0.99    1.43    46.80884    59.16585    49.88516
   222  H   1.0    0.13    0.99    1.43    46.05566    62.40270    50.25565
   223  H   1.0    0.10    0.99    1.43    49.16131    61.48792    49.50598
   224  H   1.0    0.10    0.99    1.43    48.75453    56.77371    53.37862
   225  H   1.0    0.09    0.99    1.43    51.51268    58.57555    52.83446
   226  H   1.0    0.12    0.99    1.43    50.22816    58.35215    55.91328
   227  N   5.0   -0.47    3.01    1.93    45.91097    65.95979    54.50439
   228  C   4.0    0.10    3.99    3.61    44.31864    68.10184    53.92306
   229  C   4.0    0.29    3.01    3.02    45.84378    70.55704    54.08649
   230  O   6.0   -0.44    1.00    1.80    45.84026    72.07882    52.33802
   231  C   4.0    0.04    3.98    3.58    41.97879    68.02023    55.65544
   232  O   6.0   -0.50    1.99    1.82    40.57675    65.84969    54.95589
   233  C   4.0   -0.20    3.98    3.59    40.36459    70.39194    55.34737
   234  H   1.0    0.31    1.00    1.43    45.37551    64.83837    55.96003
   235  H   1.0    0.13    0.99    1.43    43.66986    67.95804    51.95485
   236  H   1.0    0.14    0.99    1.43    42.63406    67.86511    57.61586
   237  H   1.0    0.32    0.99    1.43    40.12153    64.81303    56.40249
   238  H   1.0    0.11    0.99    1.43    38.71022    70.25937    56.55631
   239  H   1.0    0.11    0.99    1.43    41.44302    72.05929    55.86329
   240  H   1.0    0.12    0.99    1.43    39.76244    70.56755    53.39287
   241  N   5.0   -0.47    3.01    1.93    47.19756    70.87730    56.18921
   242  C   4.0    0.07    4.00    3.61    48.73890    73.12185    56.53305
   243  C   4.0    0.30    3.01    3.02    50.48478    73.49597    54.25108
   244  O   6.0   -0.39    1.00    1.80    50.63390    75.54015    53.16335
   245  C   4.0   -0.21    3.98    3.59    50.29128    72.87619    58.94308
   246  H   1.0    0.30    1.00    1.43    47.05443    69.71258    57.71206
   247  H   1.0    0.13    0.99    1.43    47.51892    74.79985    56.62714
   248  H   1.0    0.10    0.99    1.43    51.40654    74.57373    59.23767
   249  H   1.0    0.12    0.99    1.43    49.03762    72.60963    60.54764
   250  H   1.0    0.13    0.99    1.43    51.55510    71.26353    58.79630
   251  N   5.0   -0.47    3.01    1.93    51.83605    71.47012    53.62455
   252  C   4.0    0.07    3.99    3.61    53.71688    71.48734    51.62553
   253  C   4.0    0.30    3.01    3.02    52.53083    72.36274    49.13724
   254  O   6.0   -0.39    1.00    1.80    53.41623    74.10321    47.89695
   255  C   4.0   -0.14    3.99    3.60    54.82767    68.82804    51.40690
   256  C   4.0   -0.10    3.98    3.58    56.56294    68.41744    49.12642
   257  C   4.0   -0.22    3.98    3.59    58.72883    70.31707    49.05776
   258  C   4.0   -0.24    3.99    3.59    57.59643    65.72412    49.20286
   259  H   1.0    0.30    1.00    1.43    51.68756    69.86126    54.65998
   260  H   1.0    0.12    0.99    1.43    55.18828    72.87303    52.09096
   261  H   1.0    0.11    0.99    1.43    55.86406    68.42677    53.14734
   262  H   1.0    0.14    0.99    1.43    53.25010    67.50714    51.28784
   263  H   1.0    0.12    0.99    1.43    55.43996    68.64346    47.40289
   264  H   1.0    0.10    0.99    1.43    60.02650    69.83507    47.54273
   265  H   1.0    0.12    0.99    1.43    58.02844    72.21724    48.71211
   266  H   1.0    0.10    0.99    1.43    59.75275    70.29312    50.83767
   267  H   1.0    0.09    0.99    1.43    58.77407    65.35265    47.56312
   268  H   1.0    0.09    0.99    1.43    58.72495    65.45462    50.89885
   269  H   1.0    0.09    0.99    1.43    56.06887    64.35209    49.20679
   270  N   5.0   -0.48    3.01    1.93    50.49583    71.05523    48.41425
   271  C   4.0    0.07    4.00    3.62    49.22873    71.64527    46.06164
   272  C   4.0    0.30    3.01    3.02    48.64615    74.47253    45.90874
   273  O   6.0   -0.38    1.00    1.80    49.04984    75.70979    43.98742
   274  C   4.0   -0.14    3.99    3.60    46.79252    70.11699    45.79243
   275  C   4.0   -0.10    3.98    3.58    47.24009    67.27828    45.37931
   276  C   4.0   -0.23    3.98    3.59    44.71212    65.89268    45.54313
   277  C   4.0   -0.23    3.98    3.59    48.49308    66.74696    42.83416
   278  H   1.0    0.30    1.00    1.43    49.76503    69.68546    49.53638
   279  H   1.0    0.12    0.99    1.43    50.51431    71.23197    44.48734
   280  H   1.0    0.13    0.99    1.43    45.68173    70.40892    47.50707
   281  H   1.0    0.11    0.99    1.43    45.71914    70.88137    44.20369
   282  H   1.0    0.13    0.99    1.43    48.47045    66.58422    46.88753
   283  H   1.0    0.10    0.99    1.43    45.00532    63.87565    45.30502
   284  H   1.0    0.11    0.99    1.43    43.83811    66.24666    47.36784
   285  H   1.0    0.10    0.99    1.43    43.44597    66.55809    44.06798
   286  H   1.0    0.09    0.99    1.43    48.63645    64.72330    42.51951
   287  H   1.0    0.10    0.99    1.43    47.38868    67.56405    41.30513
   288  H   1.0    0.10    0.99    1.43    50.39122    67.52415    42.74740
   289  N   5.0   -0.47    3.00    1.93    47.58014    75.43076    47.98961
   290  C   4.0    0.03    3.99    3.60    46.87072    78.05907    48.16798
   291  C   4.0    0.10    2.99    3.02    49.11999    79.85324    47.89053
   292  O   6.0   -0.39    1.00    1.80    48.98247    81.76749    46.58218
   293  H   1.0    0.30    1.00    1.43    47.30419    74.31534    49.52048
   294  H   1.0    0.14    0.99    1.43    45.52823    78.54715    46.66892
   295  H   1.0    0.12    0.99    1.43    45.99416    78.38762    50.00282
   296  N   5.0   -0.71    3.00    1.93    65.84716    66.24850    62.06717
   297  C   4.0    0.08    3.99    3.59    64.09018    65.21501    63.89029
   298  C   4.0    0.27    3.01    3.02    63.16775    62.62675    62.97294
   299  O   6.0   -0.44    1.00    1.80    63.11785    60.75753    64.34006
   300  C   4.0   -0.11    3.99    3.60    61.83142    66.97307    64.22195
   301  C   4.0    0.26    3.00    3.02    62.52558    69.39576    65.62346
   302  O   6.0   -0.41    1.00    1.80    64.58141    69.76936    66.58662
   303  N   5.0   -0.66    3.00    1.93    60.64916    71.11015    65.67972
   304  H   1.0    0.27    1.00    1.43    65.73805    68.12718    61.69912
   305  H   1.0    0.13    0.99    1.43    65.04615    64.94504    65.71487
   306  H   1.0    0.10    0.99    1.43    61.06133    67.43630    62.36422
   307  H   1.0    0.10    0.99    1.43    60.39450    65.98959    65.33074
   308  H   1.0    0.28    1.00    1.43    60.89230    72.67722    66.74208
   309  H   1.0    0.24    1.00    1.43    58.89272    70.66730    65.10702
   310  N   5.0   -0.49    3.01    1.93    62.33626    62.59804    60.59254
   311  C   4.0    0.06    3.99    3.61    61.35187    60.28933    59.49082
   312  C   4.0    0.08    3.00    3.02    63.35629    58.20928    59.64260
   313  O   6.0   -0.47    1.00    1.80    62.87347    56.11086    60.51810
   314  C   4.0   -0.15    3.99    3.60    60.51367    60.80597    56.77852
   315  C   4.0   -0.10    3.98    3.58    59.46288    58.48556    55.39554
   316  C   4.0   -0.23    3.98    3.59    57.23697    57.30891    56.80823
   317  C   4.0   -0.24    3.98    3.59    58.64551    59.25404    52.73586
   318  H   1.0    0.23    1.00    1.43    62.40563    64.17530    59.50560
   319  H   1.0    0.12    0.99    1.43    59.75635    59.63897    60.64812
   320  H   1.0    0.10    0.99    1.43    59.07201    62.28296    56.84072
   321  H   1.0    0.10    0.99    1.43    62.14127    61.54484    55.74753
   322  H   1.0    0.11    0.99    1.43    60.96607    57.07110    55.25225
   323  H   1.0    0.09    0.99    1.43    56.36906    55.84344    55.66003
   324  H   1.0    0.10    0.99    1.43    57.85052    56.44686    58.57053
   325  H   1.0    0.10    0.99    1.43    55.81400    58.73090    57.23298
   326  H   1.0    0.09    0.99    1.43    58.03978    57.60826    51.66884
   327  H   1.0    0.09    0.99    1.43    57.08379    60.58410    52.83456
   328  H   1.0    0.09    0.99    1.43    60.19214    60.14460    51.72212
   329  N   5.0   -0.69    3.00    1.93    64.42363    54.54186    65.76266
   330  C   4.0    0.09    3.99    3.60    62.43219    52.75538    66.28885
   331  C   4.0    0.28    3.01    3.02    62.72850    50.38137    64.67755
   332  O   6.0   -0.40    1.00    1.80    62.49670    48.25537    65.58681
   333  C   4.0   -0.14    3.98    3.59    59.84511    53.97497    65.93081
   334  C   4.0   -0.12    3.98    3.58    59.24402    55.74781    68.12983
   335  C   4.0    0.30    2.99    3.02    59.58910    54.29003    70.66310
   336  O   6.0   -0.47    1.00    1.80    57.93102    52.69214    71.20620
   337  O   6.0   -0.39    1.00    1.80    61.51010    54.76724    71.93087
   338  H   1.0    0.31    1.00    1.43    63.95833    56.21487    64.97224
   339  H   1.0    0.15    0.99    1.43    62.61886    52.11702    68.25533
   340  H   1.0    0.12    0.99    1.43    59.81841    54.98969    64.13109
   341  H   1.0    0.11    0.99    1.43    58.41848    52.48612    65.86782
   342  H   1.0    0.13    0.99    1.43    60.50498    57.37907    68.10973
   343  H   1.0    0.09    0.99    1.43    57.29079    56.39377    68.00015
   344  N   5.0   -0.48    3.01    1.93    63.27582    50.77213    62.25618
   345  C   4.0    0.07    3.99    3.61    63.69409    48.64645    60.58609
   346  C   4.0    0.09    3.00    3.02    65.81224    46.96615    61.62615
   347  O   6.0   -0.39    1.00    1.80    65.57579    44.65364    61.68602
   348  C   4.0   -0.14    3.99    3.60    64.30729    49.52868    57.91220
   349  C   4.0   -0.10    3.98    3.58    62.16658    51.03738    56.66177
   350  C   4.0   -0.24    3.98    3.59    63.00958    51.84134    54.02049
   351  C   4.0   -0.23    3.98    3.59    59.71779    49.51947    56.50940
   352  H   1.0    0.29    1.00    1.43    63.44820    52.55483    61.58034
   353  H   1.0    0.15    0.99    1.43    61.99865    47.44925    60.59109
   354  H   1.0    0.11    0.99    1.43    66.00960    50.69177    58.00540
   355  H   1.0    0.11    0.99    1.43    64.71996    47.85047    56.78522
   356  H   1.0    0.13    0.99    1.43    61.80944    52.73599    57.78572
   357  H   1.0    0.09    0.99    1.43    61.55339    52.96392    53.10751
   358  H   1.0    0.10    0.99    1.43    64.72326    52.97101    54.11555
   359  H   1.0    0.10    0.99    1.43    63.38041    50.18675    52.86154
   360  H   1.0    0.09    0.99    1.43    58.31783    50.55894    55.42669
   361  H   1.0    0.10    0.99    1.43    60.04320    47.70828    55.59600
   362  H   1.0    0.11    0.99    1.43    58.92905    49.16517    58.37326
   363  N   5.0   -0.67    3.00    1.93    58.97639    43.83505    66.63832
   364  C   4.0    0.10    3.99    3.59    56.46936    44.72469    67.24923
   365  C   4.0    0.28    3.01    3.02    54.81488    44.60262    64.87868
   366  O   6.0   -0.43    1.00    1.80    55.32971    45.80529    62.98387
   367  C   4.0    0.05    3.98    3.59    56.57696    47.47773    68.16379
   368  O   6.0   -0.46    1.99    1.82    58.33607    47.63981    70.15139
   369  C   4.0   -0.22    3.98    3.59    53.96522    48.37189    68.99728
   370  H   1.0    0.33    1.00    1.43    60.44128    45.03124    66.91326
   371  H   1.0    0.10    0.99    1.43    55.69128    43.52748    68.75335
   372  H   1.0    0.13    0.99    1.43    57.22707    48.63914    66.55658
   373  H   1.0    0.31    0.99    1.43    58.28047    49.38870    70.76911
   374  H   1.0    0.12    0.99    1.43    54.13995    50.30279    69.67493
   375  H   1.0    0.12    0.99    1.43    52.63416    48.31850    67.43613
   376  H   1.0    0.11    0.99    1.43    53.29117    47.18801    70.53318
   377  N   5.0   -0.51    3.00    1.93    52.71994    43.18200    65.09854
   378  C   4.0    0.01    3.99    3.60    50.83303    43.08202    63.13885
   379  C   4.0    0.06    2.99    3.02    51.18898    41.10239    61.06552
   380  O   6.0   -0.49    1.00    1.80    49.91255    41.24247    59.13947
   381  H   1.0    0.23    1.00    1.43    52.52759    42.01103    66.58811
   382  H   1.0    0.12    0.99    1.43    48.99745    42.70472    64.00799
   383  H   1.0    0.13    0.99    1.43    50.76093    44.93016    62.21669
   384  N   5.0   -0.68    3.00    1.93    50.53671    33.38833    59.29050
   385  C   4.0    0.06    3.98    3.59    48.96749    31.25047    59.94606
   386  C   4.0    0.06    3.00    3.02    49.63150    28.98822    58.27254
   387  O   6.0   -0.39    1.00    1.80    50.48341    29.31902    56.14787
   388  C   4.0   -0.13    3.99    3.60    46.14199    31.86876    59.50403
   389  C   4.0   -0.04    3.03    3.02    45.29347    34.02489    61.14446
   390  C   4.0   -0.10    3.03    3.02    45.86485    36.50872    60.51026
   391  C   4.0   -0.11    3.03    3.02    43.97142    33.57625    63.36719
   392  C   4.0   -0.08    3.03    3.02    45.16432    38.48122    62.06614
   393  C   4.0   -0.10    3.02    3.02    43.23274    35.53959    64.92662
   394  C   4.0    0.10    3.03    3.02    43.85067    38.01114    64.28949
   395  O   6.0   -0.51    1.99    1.83    43.20610    40.02582    65.77777
   396  H   1.0    0.28    1.00    1.43    50.48890    33.95333    57.45531
   397  H   1.0    0.11    0.99    1.43    49.29955    30.84267    61.93973
   398  H   1.0    0.12    0.99    1.43    45.90308    32.34575    57.51066
   399  H   1.0    0.09    0.99    1.43    45.05433    30.17415    59.93856
   400  H   1.0    0.13    1.00    1.43    46.88864    36.93622    58.79941
   401  H   1.0    0.11    0.99    1.43    43.50907    31.65959    63.89628
   402  H   1.0    0.13    1.00    1.43    45.64360    40.39355    61.55570
   403  H   1.0    0.11    0.99    1.43    42.17503    35.13077    66.62646
   404  H   1.0    0.25    0.99    1.43    42.22273    39.43552    67.20163
   405  H   1.0    0.29    1.00    1.43    48.34916    50.12470    39.58130
   406  H   1.0    0.12    1.00    1.43    43.01094    45.89538    38.07883
   407  H   1.0    0.29    1.00    1.43    52.52717    37.87536    52.04389
   408  H   1.0    0.17    1.00    1.43    50.74297    79.47887    48.78320
   409  H   1.0    0.30    1.00    1.43    67.44012    65.98773    62.60291
   410  H   1.0    0.13    1.00    1.43    65.10994    58.53982    59.02089
   411  H   1.0    0.31    1.00    1.43    65.21641    54.95108    67.21062
   412  H   1.0    0.14    1.00    1.43    67.40958    47.74702    62.26632
   413  H   1.0    0.30    1.00    1.43    59.33881    42.46692    67.58142
   414  H   1.0    0.14    1.00    1.43    52.45181    39.71474    61.29083
   415  H   1.0    0.30    1.00    1.43    50.06412    34.74142    60.20612
   416  H   1.0    0.11    1.00    1.43    49.36993    27.22982    58.91336

           ------------------------------------------------- 
          |        Self-Consistent Charge Iterations        |
           ------------------------------------------------- 

          ...................................................
          :                      SETUP                      :
          :.................................................:
          :  # basis functions                1022          :
          :  # atomic orbitals                1022          :
          :  # shells                          618          :
          :  # electrons                      1126          :
          :  max. iterations                   250          :
          :  Hamiltonian                  GFN2-xTB          :
          :  restarted?                      false          :
          :  GBSA solvation                   true          :
          :  PC potential                    false          :
          :  electronic temp.          500.0000000     K    :
          :  accuracy                    0.1000000          :
          :  -> integral cutoff          0.3500000E+02      :
          :  -> integral neglect         0.1000000E-08      :
          :  -> SCF convergence          0.1000000E-06 Eh   :
          :  -> wf. convergence          0.1000000E-04 e    :
          :  Broyden damping             0.4000000          :
          ...................................................

 iter      E             dE          RMSdq      gap      omega  full diag
   1   -642.4758527 -0.642476E+03  0.417E+00    1.68       0.0  T
   2   -644.0811867 -0.160533E+01  0.221E+00    1.41       1.0  T
   3   -644.1423126 -0.611259E-01  0.118E+00    1.93       1.0  T
   4   -644.1656647 -0.233521E-01  0.291E-01    1.24       1.0  T
   5   -644.1875559 -0.218912E-01  0.113E-01    1.43       1.0  T
   6   -644.1883729 -0.817010E-03  0.626E-02    1.43       1.0  T
   7   -644.1888030 -0.430073E-03  0.288E-02    1.42       1.0  T
   8   -644.1888923 -0.893073E-04  0.113E-02    1.41       1.0  T
   9   -644.1889037 -0.114216E-04  0.592E-03    1.40       1.0  T
  10   -644.1889067 -0.298952E-05  0.288E-03    1.40       1.7  T
  11   -644.1889074 -0.665911E-06  0.121E-03    1.40       4.1  T
  12   -644.1889075 -0.180962E-06  0.499E-04    1.40       9.8  T
  13   -644.1889075 -0.167723E-07  0.240E-04    1.40      20.4  T
  14   -644.1889076 -0.529701E-08  0.102E-04    1.40      47.9  T
  15   -644.1889076 -0.107457E-08  0.473E-05    1.40     103.5  T
  16   -644.1889076 -0.238174E-09  0.208E-05    1.40     235.6  T

   *** convergence criteria satisfied after 16 iterations ***

         #    Occupation            Energy/Eh            Energy/eV
      -------------------------------------------------------------
         1        2.0000           -0.7448653             -20.2688
       ...           ...                  ...                  ...
       557        2.0000           -0.3685905             -10.0299
       558        2.0000           -0.3681399             -10.0176
       559        2.0000           -0.3654864              -9.9454
       560        2.0000           -0.3606446              -9.8136
       561        2.0000           -0.3594088              -9.7800
       562        2.0000           -0.3573352              -9.7236
       563        2.0000           -0.3534907              -9.6190 (HOMO)
       564        0.0000           -0.3021370              -8.2216 (LUMO)
       565                         -0.2954917              -8.0407
       566                         -0.2829692              -7.7000
       567                         -0.2826175              -7.6904
       568                         -0.2815044              -7.6601
       ...                                ...                  ...
      1022                          0.7222724              19.6540
      -------------------------------------------------------------
                  HL-Gap            0.0513537 Eh            1.3974 eV
             Fermi-level           -0.3277334 Eh           -8.9181 eV

 SCC (total)                   0 d,  0 h,  0 min,  6.829 sec
 SCC setup                      ...        0 min,  0.081 sec (  1.187%)
 Dispersion                     ...        0 min,  0.057 sec (  0.829%)
 integral evaluation            ...        0 min,  0.211 sec (  3.097%)
 zeroth order Hamiltonian       ...        0 min,  0.008 sec (  0.124%)
 iterations                     ...        0 min,  5.912 sec ( 86.570%)
 molecular gradient             ...        0 min,  0.543 sec (  7.950%)
 printout                       ...        0 min,  0.016 sec (  0.241%)

         :::::::::::::::::::::::::::::::::::::::::::::::::::::
         ::                     SUMMARY                     ::
         :::::::::::::::::::::::::::::::::::::::::::::::::::::
         :: total energy             -636.134086406105 Eh   ::
         :: total w/o Gsasa/hb       -636.071277182588 Eh   ::
         :: gradient norm               0.550703579204 Eh/α ::
         :: HOMO-LUMO gap               1.397405871701 eV   ::
         ::.................................................::
         :: SCC energy               -644.205654153830 Eh   ::
         :: -> isotropic ES             1.794946740079 Eh   ::
         :: -> anisotropic ES          -0.077956776718 Eh   ::
         :: -> anisotropic XC           0.207217280162 Eh   ::
         :: -> dispersion              -0.572733803184 Eh   ::
         :: -> Gsolv                   -0.399484958447 Eh   ::
         ::    -> Gborn                -0.336675734930 Eh   ::
         ::    -> Gsasa                -0.018604041390 Eh   ::
         ::    -> Ghb                  -0.046062625254 Eh   ::
         ::    -> Gshift                0.001857443127 Eh   ::
         :: repulsion energy            8.012374379961 Eh   ::
         :: add. restraining            0.000000000000 Eh   ::
         :::::::::::::::::::::::::::::::::::::::::::::::::::::

           -------------------------------------------------
          |                Property Printout                |
           -------------------------------------------------

    * Orbital Energies and Occupations

         #    Occupation            Energy/Eh            Energy/eV
      -------------------------------------------------------------
         1        2.0000           -0.7448653             -20.2688
       ...           ...                  ...                  ...
       551        2.0000           -0.3836754             -10.4403
       552        2.0000           -0.3835039             -10.4357
       553        2.0000           -0.3820067             -10.3949
       554        2.0000           -0.3795995             -10.3294
       555        2.0000           -0.3777227             -10.2784
       556        2.0000           -0.3776142             -10.2754
       557        2.0000           -0.3685905             -10.0299
       558        2.0000           -0.3681399             -10.0176
       559        2.0000           -0.3654864              -9.9454
       560        2.0000           -0.3606446              -9.8136
       561        2.0000           -0.3594088              -9.7800
       562        2.0000           -0.3573352              -9.7236
       563        2.0000           -0.3534907              -9.6190 (HOMO)
       564        0.0000           -0.3021370              -8.2216 (LUMO)
       565                         -0.2954917              -8.0407
       566                         -0.2829692              -7.7000
       567                         -0.2826175              -7.6904
       568                         -0.2815044              -7.6601
       569                         -0.2795495              -7.6069
       570                         -0.2522219              -6.8633
       571                         -0.2480115              -6.7487
       572                         -0.2457939              -6.6884
       573                         -0.2433834              -6.6228
       574                         -0.2411804              -6.5629
       ...                                ...                  ...
      1022                          0.7222724              19.6540
      -------------------------------------------------------------
                  HL-Gap            0.0513537 Eh            1.3974 eV
             Fermi-level           -0.3277334 Eh           -8.9181 eV

   #   Z        covCN         q      C6AA      α(0)
   1   7 N      2.636    -0.384    29.936     8.126
   2   6 C      3.787     0.040    19.912     6.356
   3   6 C      2.765     0.200    23.739     7.979
   4   8 O      0.856    -0.373    21.146     6.165
   5   6 C      3.808    -0.068    21.788     6.645
   6   6 C      3.058    -0.035    28.800     8.801
   7   6 C      3.032    -0.017    28.403     8.742
   8   6 C      3.115    -0.023    28.411     8.731
   9   7 N      2.776    -0.106    23.311     7.171
  10   6 C      3.088     0.038    27.044     8.524
  11   6 C      2.911    -0.042    29.033     8.835
  12   6 C      2.909    -0.058    29.429     8.895
  13   6 C      2.920    -0.045    29.116     8.849
  14   6 C      2.925    -0.039    28.978     8.828
  15   1 H      0.860     0.164     1.312     1.794
  16   1 H      0.924     0.051     2.305     2.374
  17   1 H      0.924     0.059     2.209     2.324
  18   1 H      0.924     0.046     2.374     2.410
  19   1 H      0.926     0.044     2.393     2.419
  20   1 H      0.860     0.180     1.212     1.724
  21   1 H      0.926     0.030     2.581     2.512
  22   1 H      0.926     0.035     2.523     2.484
  23   1 H      0.926     0.024     2.670     2.555
  24   1 H      0.926     0.030     2.582     2.513
  25   7 N      2.636    -0.384    29.929     8.125
  26   6 C      3.791     0.023    20.191     6.399
  27   6 C      2.757     0.272    22.410     7.752
  28   8 O      0.858    -0.491    23.581     6.511
  29   6 C      3.854    -0.019    20.871     6.498
  30   6 C      3.757    -0.119    22.829     6.812
  31   6 C      3.756    -0.111    22.679     6.790
  32   1 H      0.860     0.156     1.362     1.828
  33   1 H      0.924     0.045     2.377     2.411
  34   1 H      0.924     0.035     2.516     2.481
  35   1 H      0.925     0.049     2.331     2.387
  36   1 H      0.925     0.033     2.543     2.494
  37   1 H      0.925     0.039     2.460     2.453
  38   1 H      0.925     0.043     2.410     2.427
  39   1 H      0.925     0.036     2.501     2.473
  40   1 H      0.925     0.040     2.452     2.449
  41   7 N      2.692    -0.179    24.879     7.408
  42   6 C      3.795     0.015    20.336     6.421
  43   6 C      2.752     0.263    22.558     7.777
  44   8 O      0.858    -0.479    23.332     6.476
  45   6 C      3.817    -0.081    22.023     6.679
  46   6 C      2.967    -0.008    28.206     8.711
  47   6 C      2.923    -0.053    29.306     8.878
  48   6 C      2.928    -0.046    29.139     8.853
  49   6 C      2.918    -0.063    29.566     8.917
  50   6 C      2.917    -0.075    29.879     8.964
  51   6 C      2.847     0.142    24.903     8.179
  52   8 O      1.659    -0.433    21.497     6.259
  53   1 H      0.860     0.221     1.007     1.572
  54   1 H      0.924     0.077     2.010     2.217
  55   1 H      0.924     0.079     1.985     2.203
  56   1 H      0.924     0.068     2.112     2.273
  57   1 H      0.926     0.052     2.293     2.368
  58   1 H      0.926     0.047     2.352     2.398
  59   1 H      0.926     0.059     2.211     2.325
  60   1 H      0.926     0.041     2.439     2.442
  61   1 H      0.805     0.344     0.602     1.218
  62   7 N      2.690    -0.175    24.799     7.396
  63   6 C      3.792     0.007    20.467     6.443
  64   6 C      2.757     0.281    22.251     7.725
  65   8 O      0.859    -0.484    23.429     6.490
  66   6 C      3.807    -0.092    22.241     6.713
  67   6 C      3.801    -0.083    22.087     6.691
  68   6 C      3.738    -0.028    21.154     6.563
  69   7 N      2.700    -0.155    24.347     7.328
  70   6 C      2.736     0.234    23.086     7.867
  71   7 N      2.650    -0.260    26.757     7.682
  72   7 N      2.654    -0.262    26.788     7.687
  73   1 H      0.859     0.221     1.006     1.571
  74   1 H      0.924     0.087     1.907     2.159
  75   1 H      0.924     0.090     1.879     2.144
  76   1 H      0.924     0.078     2.001     2.212
  77   1 H      0.925     0.085     1.930     2.173
  78   1 H      0.924     0.048     2.347     2.396
  79   1 H      0.924     0.073     2.055     2.242
  80   1 H      0.924     0.095     1.836     2.119
  81   1 H      0.860     0.236     0.938     1.517
  82   1 H      0.860     0.230     0.965     1.539
  83   1 H      0.859     0.237     0.936     1.515
  84   1 H      0.860     0.239     0.928     1.509
  85   1 H      0.860     0.244     0.907     1.492
  86   7 N      2.689    -0.172    24.717     7.384
  87   6 C      3.800     0.022    20.211     6.401
  88   6 C      2.763     0.271    22.423     7.755
  89   8 O      0.859    -0.490    23.567     6.509
  90   6 C      3.811    -0.073    21.896     6.661
  91   6 C      2.970    -0.004    28.130     8.700
  92   6 C      2.925    -0.038    28.945     8.823
  93   6 C      2.925    -0.045    29.105     8.847
  94   6 C      2.917    -0.060    29.489     8.905
  95   6 C      2.917    -0.078    29.950     8.974
  96   6 C      2.846     0.146    24.818     8.165
  97   8 O      1.660    -0.429    21.414     6.247
  98   1 H      0.860     0.204     1.087     1.633
  99   1 H      0.923     0.077     2.012     2.218
 100   1 H      0.925     0.062     2.176     2.307
 101   1 H      0.924     0.065     2.139     2.287
 102   1 H      0.925     0.013     2.839     2.635
 103   1 H      0.926     0.055     2.262     2.352
 104   1 H      0.926     0.045     2.379     2.412
 105   1 H      0.926     0.062     2.176     2.307
 106   1 H      0.805     0.357     0.571     1.187
 107   7 N      2.691    -0.178    24.859     7.405
 108   6 C      3.807     0.026    20.126     6.386
 109   6 C      2.754     0.283    22.209     7.717
 110   8 O      0.858    -0.493    23.629     6.517
 111   6 C      3.809    -0.111    22.615     6.769
 112   6 C      2.746     0.278    22.299     7.732
 113   8 O      0.859    -0.507    23.942     6.560
 114   7 N      2.638    -0.266    26.888     7.701
 115   1 H      0.860     0.223     0.997     1.564
 116   1 H      0.924     0.081     1.964     2.192
 117   1 H      0.925     0.094     1.840     2.121
 118   1 H      0.924     0.091     1.866     2.136
 119   1 H      0.860     0.242     0.915     1.499
 120   1 H      0.860     0.249     0.889     1.477
 121   7 N      2.689    -0.192    25.155     7.449
 122   6 C      3.793     0.025    20.155     6.393
 123   6 C      2.758     0.283    22.201     7.716
 124   8 O      0.858    -0.498    23.743     6.533
 125   6 C      3.759    -0.139    23.236     6.872
 126   1 H      0.860     0.230     0.965     1.539
 127   1 H      0.923     0.062     2.172     2.305
 128   1 H      0.925     0.071     2.073     2.251
 129   1 H      0.925     0.088     1.901     2.156
 130   1 H      0.925     0.076     2.021     2.223
 131   7 N      2.689    -0.187    25.061     7.435
 132   6 C      3.802     0.021    20.226     6.403
 133   6 C      2.765     0.276    22.336     7.740
 134   8 O      0.859    -0.506    23.921     6.557
 135   6 C      3.854    -0.017    20.841     6.493
 136   6 C      3.756    -0.099    22.437     6.754
 137   6 C      3.757    -0.124    22.922     6.826
 138   1 H      0.860     0.222     1.002     1.568
 139   1 H      0.924     0.069     2.093     2.262
 140   1 H      0.924     0.051     2.307     2.375
 141   1 H      0.925     0.043     2.415     2.430
 142   1 H      0.925     0.016     2.789     2.611
 143   1 H      0.925     0.039     2.458     2.452
 144   1 H      0.925     0.054     2.265     2.353
 145   1 H      0.925     0.049     2.327     2.386
 146   1 H      0.925     0.062     2.171     2.304
 147   7 N      2.689    -0.191    25.143     7.447
 148   6 C      3.805     0.037    19.951     6.359
 149   6 C      2.764     0.280    22.261     7.727
 150   8 O      0.859    -0.500    23.784     6.539
 151   6 C      3.812    -0.074    21.908     6.662
 152   6 C      3.849    -0.006    20.650     6.464
 153   6 C      3.759    -0.125    22.955     6.830
 154   6 C      3.756    -0.106    22.587     6.776
 155   1 H      0.860     0.223     0.994     1.562
 156   1 H      0.923     0.057     2.234     2.337
 157   1 H      0.924     0.053     2.277     2.360
 158   1 H      0.924     0.066     2.127     2.280
 159   1 H      0.924     0.026     2.651     2.546
 160   1 H      0.925     0.058     2.220     2.330
 161   1 H      0.925     0.055     2.262     2.352
 162   1 H      0.925     0.054     2.273     2.358
 163   1 H      0.925     0.045     2.379     2.412
 164   1 H      0.925     0.047     2.361     2.403
 165   1 H      0.925     0.008     2.930     2.677
 166   7 N      2.687    -0.189    25.107     7.442
 167   6 C      3.802     0.047    19.784     6.333
 168   6 C      2.769     0.273    22.378     7.747
 169   8 O      0.860    -0.516    24.131     6.586
 170   6 C      3.800    -0.099    22.399     6.738
 171   6 C      2.685     0.371    20.719     7.449
 172   8 O      0.856    -0.598    26.078     6.847
 173   8 O      0.856    -0.610    26.377     6.886
 174   1 H      0.860     0.222     1.000     1.567
 175   1 H      0.923     0.075     2.034     2.230
 176   1 H      0.925     0.050     2.322     2.383
 177   1 H      0.925     0.023     2.684     2.562
 178   7 N      2.760    -0.088    22.949     7.115
 179   6 C      3.846     0.034    19.977     6.358
 180   6 C      2.755     0.280    22.255     7.725
 181   8 O      0.859    -0.491    23.594     6.512
 182   6 C      3.835    -0.071    21.829     6.647
 183   6 C      3.839    -0.064    21.702     6.627
 184   6 C      3.772     0.007    20.497     6.451
 185   1 H      0.923     0.053     2.288     2.365
 186   1 H      0.924     0.057     2.235     2.338
 187   1 H      0.925     0.073     2.054     2.241
 188   1 H      0.925     0.068     2.102     2.267
 189   1 H      0.925     0.058     2.226     2.333
 190   1 H      0.924     0.060     2.196     2.317
 191   1 H      0.925     0.056     2.242     2.341
 192   7 N      2.691    -0.172    24.725     7.385
 193   6 C      3.796     0.021    20.223     6.403
 194   6 C      2.759     0.269    22.456     7.760
 195   8 O      0.859    -0.490    23.567     6.509
 196   6 C      3.812    -0.077    21.957     6.670
 197   6 C      3.849    -0.010    20.715     6.474
 198   6 C      3.757    -0.095    22.363     6.742
 199   6 C      3.755    -0.121    22.882     6.821
 200   1 H      0.860     0.203     1.093     1.638
 201   1 H      0.924     0.079     1.992     2.207
 202   1 H      0.924     0.061     2.190     2.314
 203   1 H      0.924     0.064     2.156     2.296
 204   1 H      0.924     0.034     2.537     2.491
 205   1 H      0.925     0.025     2.660     2.551
 206   1 H      0.925     0.023     2.684     2.562
 207   1 H      0.925     0.038     2.482     2.464
 208   1 H      0.925     0.043     2.413     2.429
 209   1 H      0.925     0.048     2.342     2.393
 210   1 H      0.925     0.047     2.355     2.400
 211   7 N      2.690    -0.177    24.833     7.401
 212   6 C      3.806     0.017    20.285     6.412
 213   6 C      2.758     0.279    22.277     7.729
 214   8 O      0.858    -0.477    23.281     6.469
 215   6 C      3.853    -0.025    20.980     6.515
 216   6 C      3.757    -0.131    23.072     6.848
 217   6 C      3.756    -0.122    22.893     6.822
 218   1 H      0.860     0.224     0.992     1.560
 219   1 H      0.923     0.080     1.982     2.202
 220   1 H      0.924     0.040     2.444     2.445
 221   1 H      0.925     0.074     2.043     2.235
 222   1 H      0.925     0.044     2.393     2.419
 223   1 H      0.925     0.062     2.181     2.309
 224   1 H      0.925     0.059     2.212     2.326
 225   1 H      0.925     0.063     2.160     2.298
 226   1 H      0.925     0.038     2.482     2.464
 227   7 N      2.693    -0.188    25.085     7.439
 228   6 C      3.797     0.015    20.323     6.419
 229   6 C      2.757     0.275    22.348     7.741
 230   8 O      0.859    -0.491    23.585     6.511
 231   6 C      3.726     0.118    18.749     6.182
 232   8 O      1.655    -0.457    21.991     6.330
 233   6 C      3.753    -0.132    23.105     6.855
 234   1 H      0.860     0.225     0.985     1.555
 235   1 H      0.923     0.083     1.945     2.181
 236   1 H      0.924     0.016     2.795     2.614
 237   1 H      0.804     0.325     0.651     1.268
 238   1 H      0.925     0.064     2.151     2.293
 239   1 H      0.925     0.042     2.422     2.434
 240   1 H      0.925     0.075     2.036     2.231
 241   7 N      2.690    -0.190    25.129     7.445
 242   6 C      3.798     0.027    20.120     6.387
 243   6 C      2.755     0.280    22.255     7.725
 244   8 O      0.858    -0.510    24.006     6.569
 245   6 C      3.757    -0.135    23.145     6.859
 246   1 H      0.860     0.224     0.990     1.559
 247   1 H      0.923     0.060     2.199     2.319
 248   1 H      0.925     0.068     2.108     2.270
 249   1 H      0.925     0.072     2.059     2.244
 250   1 H      0.925     0.069     2.095     2.263
 251   7 N      2.692    -0.187    25.055     7.434
 252   6 C      3.795     0.026    20.147     6.392
 253   6 C      2.758     0.287    22.140     7.705
 254   8 O      0.859    -0.513    24.085     6.580
 255   6 C      3.812    -0.084    22.085     6.689
 256   6 C      3.849    -0.007    20.674     6.467
 257   6 C      3.756    -0.117    22.794     6.807
 258   6 C      3.758    -0.121    22.874     6.819
 259   1 H      0.860     0.229     0.970     1.543
 260   1 H      0.924     0.058     2.218     2.329
 261   1 H      0.924     0.062     2.176     2.307
 262   1 H      0.924     0.066     2.133     2.284
 263   1 H      0.924     0.022     2.697     2.568
 264   1 H      0.925     0.048     2.348     2.396
 265   1 H      0.925     0.028     2.616     2.530
 266   1 H      0.925     0.046     2.376     2.411
 267   1 H      0.925     0.052     2.299     2.371
 268   1 H      0.925     0.051     2.311     2.377
 269   1 H      0.925     0.046     2.369     2.407
 270   7 N      2.691    -0.190    25.124     7.444
 271   6 C      3.800     0.027    20.121     6.387
 272   6 C      2.758     0.283    22.207     7.717
 273   8 O      0.858    -0.504    23.878     6.551
 274   6 C      3.810    -0.077    21.968     6.672
 275   6 C      3.849    -0.015    20.815     6.489
 276   6 C      3.758    -0.123    22.906     6.824
 277   6 C      3.755    -0.116    22.776     6.805
 278   1 H      0.860     0.233     0.952     1.528
 279   1 H      0.924     0.066     2.134     2.284
 280   1 H      0.924     0.054     2.274     2.358
 281   1 H      0.924     0.054     2.268     2.355
 282   1 H      0.924     0.048     2.343     2.394
 283   1 H      0.925     0.061     2.184     2.311
 284   1 H      0.925     0.033     2.538     2.491
 285   1 H      0.925     0.052     2.300     2.372
 286   1 H      0.925     0.055     2.259     2.350
 287   1 H      0.925     0.042     2.416     2.431
 288   1 H      0.925     0.029     2.602     2.523
 289   7 N      2.687    -0.166    24.592     7.365
 290   6 C      3.742    -0.022    21.036     6.543
 291   6 C      2.761     0.216    23.434     7.928
 292   8 O      0.856    -0.369    21.064     6.153
 293   1 H      0.860     0.218     1.020     1.582
 294   1 H      0.924     0.102     1.771     2.081
 295   1 H      0.925     0.112     1.681     2.027
 296   7 N      2.637    -0.388    30.034     8.139
 297   6 C      3.788     0.042    19.876     6.350
 298   6 C      2.761     0.270    22.446     7.759
 299   8 O      0.859    -0.513    24.072     6.578
 300   6 C      3.812    -0.107    22.525     6.755
 301   6 C      2.743     0.293    22.026     7.684
 302   8 O      0.859    -0.492    23.611     6.515
 303   7 N      2.639    -0.292    27.533     7.793
 304   1 H      0.860     0.173     1.257     1.756
 305   1 H      0.923     0.030     2.592     2.518
 306   1 H      0.924     0.084     1.942     2.179
 307   1 H      0.924     0.065     2.138     2.287
 308   1 H      0.860     0.236     0.941     1.519
 309   1 H      0.860     0.226     0.981     1.551
 310   7 N      2.693    -0.171    24.704     7.382
 311   6 C      3.795     0.031    20.062     6.378
 312   6 C      2.765     0.206    23.623     7.960
 313   8 O      0.856    -0.364    20.979     6.141
 314   6 C      3.810    -0.084    22.088     6.690
 315   6 C      3.849    -0.013    20.773     6.483
 316   6 C      3.755    -0.114    22.741     6.800
 317   6 C      3.758    -0.123    22.913     6.825
 318   1 H      0.860     0.230     0.965     1.539
 319   1 H      0.923     0.074     2.044     2.236
 320   1 H      0.924     0.070     2.081     2.256
 321   1 H      0.924     0.072     2.068     2.249
 322   1 H      0.924     0.040     2.446     2.446
 323   1 H      0.925     0.053     2.286     2.364
 324   1 H      0.925     0.026     2.643     2.543
 325   1 H      0.925     0.040     2.449     2.447
 326   1 H      0.925     0.055     2.263     2.352
 327   1 H      0.925     0.049     2.338     2.391
 328   1 H      0.925     0.051     2.308     2.376
 329   7 N      2.636    -0.390    30.105     8.149
 330   6 C      3.790     0.055    19.667     6.316
 331   6 C      2.761     0.267    22.489     7.766
 332   8 O      0.859    -0.518    24.196     6.595
 333   6 C      3.807    -0.039    21.263     6.564
 334   6 C      3.800    -0.082    22.063     6.688
 335   6 C      2.685     0.375    20.649     7.436
 336   8 O      0.856    -0.637    27.051     6.973
 337   8 O      0.856    -0.646    27.288     7.004
 338   1 H      0.860     0.167     1.289     1.778
 339   1 H      0.923     0.008     2.927     2.675
 340   1 H      0.924     0.044     2.395     2.420
 341   1 H      0.924     0.017     2.772     2.603
 342   1 H      0.924     0.016     2.798     2.616
 343   1 H      0.924     0.015     2.813     2.623
 344   7 N      2.691    -0.173    24.740     7.387
 345   6 C      3.798     0.032    20.043     6.375
 346   6 C      2.765     0.207    23.605     7.957
 347   8 O      0.856    -0.371    21.120     6.161
 348   6 C      3.810    -0.076    21.949     6.669
 349   6 C      3.849    -0.013    20.765     6.482
 350   6 C      3.758    -0.120    22.854     6.816
 351   6 C      3.755    -0.116    22.777     6.805
 352   1 H      0.860     0.237     0.935     1.515
 353   1 H      0.923     0.086     1.921     2.167
 354   1 H      0.924     0.059     2.212     2.326
 355   1 H      0.924     0.068     2.105     2.269
 356   1 H      0.924     0.041     2.433     2.439
 357   1 H      0.925     0.056     2.244     2.342
 358   1 H      0.925     0.041     2.435     2.440
 359   1 H      0.925     0.051     2.304     2.374
 360   1 H      0.925     0.054     2.275     2.359
 361   1 H      0.925     0.046     2.368     2.407
 362   1 H      0.925     0.032     2.564     2.504
 363   7 N      2.637    -0.387    30.006     8.136
 364   6 C      3.788     0.032    20.054     6.378
 365   6 C      2.759     0.268    22.482     7.765
 366   8 O      0.858    -0.467    23.058     6.438
 367   6 C      3.729     0.145    18.333     6.112
 368   8 O      1.654    -0.499    22.865     6.455
 369   6 C      3.753    -0.128    23.018     6.841
 370   1 H      0.860     0.162     1.324     1.803
 371   1 H      0.924     0.025     2.661     2.551
 372   1 H      0.923    -0.008     3.196     2.796
 373   1 H      0.803     0.311     0.690     1.305
 374   1 H      0.925     0.048     2.340     2.392
 375   1 H      0.925     0.044     2.400     2.422
 376   1 H      0.925     0.057     2.238     2.339
 377   7 N      2.685    -0.180    24.910     7.413
 378   6 C      3.742    -0.034    21.254     6.577
 379   6 C      2.760     0.201    23.720     7.976
 380   8 O      0.856    -0.348    20.661     6.094
 381   1 H      0.860     0.221     1.007     1.572
 382   1 H      0.924     0.122     1.601     1.979
 383   1 H      0.924     0.116     1.644     2.005
 384   7 N      2.635    -0.378    29.769     8.103
 385   6 C      3.783     0.038    19.950     6.362
 386   6 C      2.768     0.199    23.765     7.984
 387   8 O      0.856    -0.371    21.115     6.161
 388   6 C      3.812    -0.071    21.857     6.655
 389   6 C      2.968     0.004    27.936     8.670
 390   6 C      2.925    -0.045    29.114     8.849
 391   6 C      2.926    -0.040    29.005     8.832
 392   6 C      2.919    -0.067    29.670     8.932
 393   6 C      2.917    -0.073    29.811     8.953
 394   6 C      2.847     0.136    25.025     8.199
 395   8 O      1.659    -0.437    21.578     6.271
 396   1 H      0.860     0.161     1.330     1.806
 397   1 H      0.924     0.064     2.153     2.295
 398   1 H      0.924     0.054     2.276     2.359
 399   1 H      0.925     0.049     2.333     2.388
 400   1 H      0.926     0.049     2.333     2.388
 401   1 H      0.926     0.045     2.380     2.413
 402   1 H      0.926     0.048     2.343     2.394
 403   1 H      0.925     0.049     2.328     2.386
 404   1 H      0.805     0.354     0.580     1.196
 405   1 H      0.862     0.186     1.179     1.701
 406   1 H      0.930     0.069     2.101     2.267
 407   1 H      0.862     0.179     1.219     1.729
 408   1 H      0.930     0.069     2.093     2.262
 409   1 H      0.862     0.180     1.213     1.725
 410   1 H      0.930     0.081     1.966     2.192
 411   1 H      0.862     0.167     1.289     1.778
 412   1 H      0.930     0.066     2.133     2.284
 413   1 H      0.862     0.187     1.177     1.699
 414   1 H      0.930     0.086     1.917     2.165
 415   1 H      0.862     0.180     1.211     1.724
 416   1 H      0.930     0.067     2.119     2.276

 Mol. C6AA /au·bohr⁶  :    1626600.990286
 Mol. C8AA /au·bohr⁸  :   36356484.094985
 Mol. α(0) /au        :       1918.488632


Wiberg/Mayer (AO) data.
largest (>0.10) Wiberg bond orders for each atom
          total WBO             WBO to atom ...
     1  N   3.002        C    2 1.003    H   15 0.954    H  405 0.951
     2  C   3.981        N    1 1.003    C    3 0.969    H   16 0.965    C    5 0.960
     3  C   3.888        O    4 1.904    C    2 0.969    H  406 0.956
     4  O   2.031        C    3 1.904
     5  C   3.993        C    6 1.016    H   17 0.970    H   18 0.966    C    2 0.960
     6  C   3.975        C    7 1.566    C    8 1.208    C    5 1.016
     7  C   3.950        C    6 1.566    N    9 1.202    H   19 0.967
     8  C   3.983        C   11 1.326    C   10 1.243    C    6 1.208
     9  N   3.551        C    7 1.202    C   10 1.184    H   20 0.940
    10  C   3.960        C   12 1.335    C    8 1.243    N    9 1.184
    11  C   3.992        C   13 1.509    C    8 1.326    H   21 0.968    C   12 0.114
    12  C   3.989        C   14 1.497    C   10 1.335    H   22 0.967    C   11 0.114
    13  C   3.990        C   11 1.509    C   14 1.367    H   23 0.971
    14  C   3.991        C   12 1.497    C   13 1.367    H   24 0.970
    15  H   0.973        N    1 0.954
    16  H   0.997        C    2 0.965
    17  H   0.996        C    5 0.970
    18  H   0.997        C    5 0.966
    19  H   0.997        C    7 0.967
    20  H   0.967        N    9 0.940
    21  H   0.999        C   11 0.968
    22  H   0.998        C   12 0.967
    23  H   0.999        C   13 0.971
    24  H   0.999        C   14 0.970
    25  N   2.999        C   26 1.016    H   32 0.958    H  407 0.954
    26  C   3.983        N   25 1.016    H   33 0.958    C   29 0.957    C   27 0.941
    27  C   3.945        O   28 1.640    N   41 1.292    C   26 0.941
    28  O   1.946        C   27 1.640    N   41 0.193
    29  C   3.995        C   30 1.009    C   31 1.008    H   34 0.967    C   26 0.957
    30  C   3.995        C   29 1.009    H   36 0.985    H   37 0.984    H   35 0.984
    31  C   3.995        C   29 1.008    H   39 0.986    H   40 0.984    H   38 0.984
    32  H   0.976        N   25 0.958
    33  H   0.998        C   26 0.958
    34  H   0.999        C   29 0.967
    35  H   0.998        C   30 0.984
    36  H   0.999        C   30 0.985
    37  H   0.998        C   30 0.984
    38  H   0.998        C   31 0.984
    39  H   0.999        C   31 0.986
    40  H   0.998        C   31 0.984
    41  N   3.462        C   27 1.292    C   42 0.980    H   53 0.902    O   28 0.193
    42  C   3.966        N   41 0.980    C   45 0.973    H   54 0.950    C   43 0.930
    43  C   3.946        O   44 1.621    N   62 1.307    C   42 0.930
    44  O   1.969        C   43 1.621    N   62 0.196
    45  C   3.987        C   46 1.010    C   42 0.973    H   56 0.962    H   55 0.951
    46  C   3.988        C   48 1.406    C   47 1.402    C   45 1.010
    47  C   3.990        C   49 1.457    C   46 1.402    H   57 0.965    C   50 0.105
    48  C   3.990        C   50 1.453    C   46 1.406    H   58 0.965    C   49 0.107
    49  C   3.987        C   47 1.457    C   51 1.361    H   59 0.967    C   48 0.107
    50  C   3.988        C   48 1.453    C   51 1.369    H   60 0.965    C   47 0.105
    51  C   3.938        C   50 1.369    C   49 1.361    O   52 1.073
    52  O   2.096        C   51 1.073    H   61 0.861
    53  H   0.951        N   41 0.902
    54  H   0.994        C   42 0.950
    55  H   0.992        C   45 0.951
    56  H   0.995        C   45 0.962
    57  H   0.997        C   47 0.965
    58  H   0.998        C   48 0.965
    59  H   0.996        C   49 0.967
    60  H   0.998        C   50 0.965
    61  H   0.881        O   52 0.861
    62  N   3.474        C   43 1.307    C   63 0.978    H   73 0.914    O   44 0.196
    63  C   3.962        N   62 0.978    C   66 0.970    H   74 0.945    C   64 0.945
    64  C   3.944        O   65 1.622    N   86 1.289    C   63 0.945
    65  O   1.972        C   64 1.622    N   86 0.189
    66  C   3.979        C   67 1.008    C   63 0.970    H   76 0.969    H   75 0.960
    67  C   3.989        C   66 1.008    C   68 0.994    H   78 0.972    H   77 0.969
    68  C   3.954        C   67 0.994    N   69 0.988    H   80 0.963    H   79 0.960
    69  N   3.438        C   70 1.283    C   68 0.988    H   81 0.915    N   71 0.102
    70  C   3.975        N   71 1.351    N   72 1.310    N   69 1.283
    71  N   3.419        C   70 1.351    H   82 0.898    H   83 0.861    N   72 0.108    N   69 0.102
    72  N   3.382        C   70 1.310    H   84 0.922    H   85 0.894    N   71 0.108
    73  H   0.951        N   62 0.914
    74  H   0.992        C   63 0.945
    75  H   0.991        C   66 0.960
    76  H   0.993        C   66 0.969
    77  H   0.992        C   67 0.969
    78  H   0.997        C   67 0.972
    79  H   0.995        C   68 0.960
    80  H   0.991        C   68 0.963
    81  H   0.944        N   69 0.915
    82  H   0.947        N   71 0.898
    83  H   0.944        N   71 0.861
    84  H   0.943        N   72 0.922
    85  H   0.940        N   72 0.894
    86  N   3.474        C   64 1.289    C   87 0.990    H   98 0.921    O   65 0.189
    87  C   3.964        N   86 0.990    C   90 0.966    C   88 0.941    H   99 0.923
    88  C   3.946        O   89 1.638    N  107 1.285    C   87 0.941
    89  O   1.954        C   88 1.638    N  107 0.190
    90  C   3.986        C   91 1.008    H  100 0.968    C   87 0.966    H  101 0.961
    91  C   3.986        C   93 1.416    C   92 1.396    C   90 1.008
    92  C   3.992        C   94 1.468    C   91 1.396    H  102 0.969    C   95 0.105
    93  C   3.988        C   95 1.444    C   91 1.416    H  103 0.966    C   94 0.106
    94  C   3.990        C   92 1.468    C   96 1.355    H  104 0.969    C   93 0.106
    95  C   3.985        C   93 1.444    C   96 1.373    H  105 0.964    C   92 0.105
    96  C   3.942        C   95 1.373    C   94 1.355    O   97 1.084
    97  O   2.100        C   96 1.084    H  106 0.852
    98  H   0.958        N   86 0.921
    99  H   0.994        C   87 0.923
   100  H   0.996        C   90 0.968
   101  H   0.994        C   90 0.961
   102  H   1.000        C   92 0.969
   103  H   0.997        C   93 0.966
   104  H   0.998        C   94 0.969
   105  H   0.996        C   95 0.964
   106  H   0.872        O   97 0.852
   107  N   3.446        C   88 1.285    C  108 0.985    H  115 0.890    O   89 0.190
   108  C   3.970        N  107 0.985    C  111 0.969    H  116 0.951    C  109 0.924
   109  C   3.940        O  110 1.631    N  121 1.299    C  108 0.924
   110  O   1.979        C  109 1.631    N  121 0.191
   111  C   3.983        C  108 0.969    C  112 0.965    H  117 0.960    H  118 0.957
   112  C   3.947        O  113 1.591    N  114 1.355    C  111 0.965
   113  O   1.961        C  112 1.591    N  114 0.201
   114  N   3.432        C  112 1.355    H  119 0.920    H  120 0.900    O  113 0.201
   115  H   0.950        N  107 0.890
   116  H   0.993        C  108 0.951
   117  H   0.991        C  111 0.960
   118  H   0.992        C  111 0.957
   119  H   0.941        N  114 0.920
   120  H   0.938        N  114 0.900
   121  N   3.451        C  109 1.299    C  122 0.973    H  126 0.913    O  110 0.191
   122  C   3.964        C  125 0.991    N  121 0.973    H  127 0.953    C  123 0.939
   123  C   3.945        O  124 1.646    N  131 1.283    C  122 0.939
   124  O   1.955        C  123 1.646    N  131 0.191
   125  C   3.979        C  122 0.991    H  130 0.982    H  128 0.980    H  129 0.976
   126  H   0.947        N  121 0.913
   127  H   0.996        C  122 0.953
   128  H   0.994        C  125 0.980
   129  H   0.992        C  125 0.976
   130  H   0.994        C  125 0.982
   131  N   3.446        C  123 1.283    C  132 0.984    H  138 0.890    O  124 0.191
   132  C   3.967        N  131 0.984    C  135 0.963    H  139 0.956    C  133 0.937
   133  C   3.945        O  134 1.610    N  147 1.311    C  132 0.937
   134  O   1.942        C  133 1.610    N  147 0.193
   135  C   3.989        C  136 1.008    C  137 1.007    C  132 0.963    H  140 0.961
   136  C   3.994        C  135 1.008    H  143 0.986    H  142 0.983    H  141 0.980
   137  C   3.991        C  135 1.007    H  145 0.986    H  144 0.983    H  146 0.983
   138  H   0.951        N  131 0.890
   139  H   0.994        C  132 0.956
   140  H   0.997        C  135 0.961
   141  H   0.998        C  136 0.980
   142  H   1.000        C  136 0.983
   143  H   0.998        C  136 0.986
   144  H   0.996        C  137 0.983
   145  H   0.998        C  137 0.986
   146  H   0.996        C  137 0.983
   147  N   3.467        C  133 1.311    C  148 0.978    H  155 0.893    O  134 0.193
   148  C   3.964        N  147 0.978    C  151 0.976    H  156 0.948    C  149 0.941
   149  C   3.945        O  150 1.582    N  166 1.328    C  148 0.941
   150  O   1.943        C  149 1.582    N  166 0.189
   151  C   3.984        C  152 0.990    C  148 0.976    H  157 0.971    H  158 0.969
   152  C   3.993        C  154 1.009    C  153 1.005    C  151 0.990    H  159 0.964
   153  C   3.989        C  152 1.005    H  162 0.984    H  161 0.982    H  160 0.975
   154  C   3.994        C  152 1.009    H  164 0.985    H  165 0.984    H  163 0.980
   155  H   0.950        N  147 0.893
   156  H   0.996        C  148 0.948
   157  H   0.997        C  151 0.971
   158  H   0.995        C  151 0.969
   159  H   0.999        C  152 0.964
   160  H   0.996        C  153 0.975
   161  H   0.997        C  153 0.982
   162  H   0.997        C  153 0.984
   163  H   0.998        C  154 0.980
   164  H   0.998        C  154 0.985
   165  H   1.000        C  154 0.984
   166  N   3.477        C  149 1.328    C  167 0.972    H  174 0.894    O  150 0.189
   167  C   3.964        C  170 0.979    N  166 0.972    H  175 0.948    C  168 0.940
   168  C   3.948        O  169 1.551    N  178 1.333    C  167 0.940
   169  O   1.924        C  168 1.551    N  178 0.185
   170  C   3.982        C  167 0.979    H  177 0.973    H  176 0.964    C  171 0.903
   171  C   3.937        O  173 1.548    O  172 1.452    C  170 0.903
   172  O   1.864        C  171 1.452    O  173 0.213
   173  O   1.846        C  171 1.548    O  172 0.213
   174  H   0.950        N  166 0.894
   175  H   0.994        C  167 0.948
   176  H   0.997        C  170 0.964
   177  H   0.999        C  170 0.973
   178  N   3.541        C  168 1.333    C  184 0.973    C  179 0.960    O  169 0.185
   179  C   3.967        C  182 0.977    N  178 0.960    H  185 0.955    C  180 0.947
   180  C   3.952        O  181 1.597    N  192 1.312    C  179 0.947
   181  O   1.949        C  180 1.597    N  192 0.189
   182  C   3.989        C  183 1.003    C  179 0.977    H  186 0.976    H  187 0.975
   183  C   3.991        C  184 1.004    C  182 1.003    H  189 0.978    H  188 0.974
   184  C   3.961        C  183 1.004    N  178 0.973    H  191 0.962    H  190 0.952
   185  H   0.997        C  179 0.955
   186  H   0.997        C  182 0.976
   187  H   0.994        C  182 0.975
   188  H   0.994        C  183 0.974
   189  H   0.996        C  183 0.978
   190  H   0.996        C  184 0.952
   191  H   0.997        C  184 0.962
   192  N   3.477        C  180 1.312    C  193 0.974    H  200 0.914    O  181 0.189
   193  C   3.958        C  196 0.982    N  192 0.974    H  201 0.949    C  194 0.931
   194  C   3.953        O  195 1.598    N  211 1.336    C  193 0.931
   195  O   1.954        C  194 1.598    N  211 0.199
   196  C   3.987        C  197 0.993    C  193 0.982    H  203 0.970    H  202 0.967
   197  C   3.994        C  199 1.010    C  198 1.006    C  196 0.993    H  204 0.966
   198  C   3.995        C  197 1.006    H  205 0.985    H  206 0.985    H  207 0.984
   199  C   3.995        C  197 1.010    H  208 0.985    H  210 0.984    H  209 0.981
   200  H   0.959        N  192 0.914
   201  H   0.993        C  193 0.949
   202  H   0.996        C  196 0.967
   203  H   0.995        C  196 0.970
   204  H   0.999        C  197 0.966
   205  H   0.999        C  198 0.985
   206  H   0.999        C  198 0.985
   207  H   0.999        C  198 0.984
   208  H   0.998        C  199 0.985
   209  H   0.998        C  199 0.981
   210  H   0.998        C  199 0.984
   211  N   3.489        C  194 1.336    C  212 0.971    H  218 0.892    O  195 0.199
   212  C   3.955        N  211 0.971    C  215 0.966    H  219 0.950    C  213 0.934
   213  C   3.946        O  214 1.612    N  227 1.310    C  212 0.934
   214  O   1.974        C  213 1.612    N  227 0.195
   215  C   3.985        C  217 1.008    C  216 1.006    C  212 0.966    H  220 0.962
   216  C   3.988        C  215 1.006    H  222 0.983    H  223 0.982    H  221 0.979
   217  C   3.992        C  215 1.008    H  225 0.983    H  224 0.982    H  226 0.982
   218  H   0.950        N  211 0.892
   219  H   0.993        C  212 0.950
   220  H   0.998        C  215 0.962
   221  H   0.994        C  216 0.979
   222  H   0.998        C  216 0.983
   223  H   0.996        C  216 0.982
   224  H   0.996        C  217 0.982
   225  H   0.996        C  217 0.983
   226  H   0.999        C  217 0.982
   227  N   3.471        C  213 1.310    C  228 0.983    H  234 0.889    O  214 0.195
   228  C   3.967        N  227 0.983    C  231 0.961    H  235 0.948    C  229 0.934
   229  C   3.950        O  230 1.610    N  241 1.321    C  228 0.934
   230  O   1.955        C  229 1.610    N  241 0.199
   231  C   3.961        C  233 1.000    O  232 0.987    H  236 0.963    C  228 0.961
   232  O   1.971        C  231 0.987    H  237 0.854
   233  C   3.990        C  231 1.000    H  239 0.983    H  238 0.983    H  240 0.983
   234  H   0.949        N  227 0.889
   235  H   0.993        C  228 0.948
   236  H   1.000        C  231 0.963
   237  H   0.894        O  232 0.854
   238  H   0.996        C  233 0.983
   239  H   0.998        C  233 0.983
   240  H   0.994        C  233 0.983
   241  N   3.475        C  229 1.321    C  242 0.974    H  246 0.885    O  230 0.199
   242  C   3.965        C  245 0.998    N  241 0.974    H  247 0.955    C  243 0.932
   243  C   3.950        O  244 1.618    N  251 1.324    C  242 0.932
   244  O   1.935        C  243 1.618    N  251 0.200
   245  C   3.985        C  242 0.998    H  248 0.982    H  249 0.979    H  250 0.978
   246  H   0.950        N  241 0.885
   247  H   0.996        C  242 0.955
   248  H   0.995        C  245 0.982
   249  H   0.994        C  245 0.979
   250  H   0.995        C  245 0.978
   251  N   3.474        C  243 1.324    C  252 0.972    H  259 0.887    O  244 0.200
   252  C   3.962        C  255 0.981    N  251 0.972    H  260 0.955    C  253 0.935
   253  C   3.946        O  254 1.623    N  270 1.312    C  252 0.935
   254  O   1.943        C  253 1.623    N  270 0.198
   255  C   3.984        C  256 0.994    C  252 0.981    H  261 0.971    H  262 0.964
   256  C   3.993        C  257 1.010    C  258 1.007    C  255 0.994    H  263 0.968
   257  C   3.995        C  256 1.010    H  266 0.986    H  265 0.985    H  264 0.985
   258  C   3.994        C  256 1.007    H  269 0.986    H  267 0.985    H  268 0.985
   259  H   0.948        N  251 0.887
   260  H   0.996        C  252 0.955
   261  H   0.996        C  255 0.971
   262  H   0.996        C  255 0.964
   263  H   0.999        C  256 0.968
   264  H   0.998        C  257 0.985
   265  H   0.999        C  257 0.985
   266  H   0.998        C  257 0.986
   267  H   0.997        C  258 0.985
   268  H   0.997        C  258 0.985
   269  H   0.998        C  258 0.986
   270  N   3.467        C  253 1.312    C  271 0.979    H  278 0.886    O  254 0.198
   271  C   3.964        C  274 0.979    N  270 0.979    H  279 0.948    C  272 0.935
   272  C   3.943        O  273 1.630    N  289 1.297    C  271 0.935
   273  O   1.942        C  272 1.630    N  289 0.192
   274  C   3.984        C  275 0.990    C  271 0.979    H  281 0.971    H  280 0.970
   275  C   3.992        C  277 1.010    C  276 1.007    C  274 0.990    H  282 0.963
   276  C   3.993        C  275 1.007    H  285 0.986    H  284 0.984    H  283 0.984
   277  C   3.995        C  275 1.010    H  287 0.986    H  288 0.983    H  286 0.983
   278  H   0.946        N  270 0.886
   279  H   0.995        C  271 0.948
   280  H   0.997        C  274 0.970
   281  H   0.996        C  274 0.971
   282  H   0.998        C  275 0.963
   283  H   0.996        C  276 0.984
   284  H   0.999        C  276 0.984
   285  H   0.997        C  276 0.986
   286  H   0.997        C  277 0.983
   287  H   0.998        C  277 0.986
   288  H   0.999        C  277 0.983
   289  N   3.471        C  272 1.297    C  290 0.997    H  293 0.907    O  273 0.192
   290  C   3.968        N  289 0.997    C  291 0.991    H  294 0.954    H  295 0.936
   291  C   3.900        O  292 1.894    C  290 0.991    H  408 0.956
   292  O   2.032        C  291 1.894
   293  H   0.953        N  289 0.907
   294  H   0.990        C  290 0.954
   295  H   0.987        C  290 0.936
   296  N   2.991        C  297 1.017    H  409 0.956    H  304 0.951
   297  C   3.988        N  296 1.017    C  300 0.986    H  305 0.962    C  298 0.931
   298  C   3.942        O  299 1.627    N  310 1.306    C  297 0.931
   299  O   1.950        C  298 1.627    N  310 0.198
   300  C   3.994        C  297 0.986    C  301 0.961    H  306 0.957    H  307 0.952
   301  C   3.946        O  302 1.659    N  303 1.296    C  300 0.961
   302  O   1.962        C  301 1.659    N  303 0.198
   303  N   3.380        C  301 1.296    H  309 0.930    H  308 0.923    O  302 0.198
   304  H   0.970        N  296 0.951
   305  H   0.999        C  297 0.962
   306  H   0.993        C  300 0.957
   307  H   0.996        C  300 0.952
   308  H   0.943        N  303 0.923
   309  H   0.949        N  303 0.930
   310  N   3.469        C  298 1.306    C  311 0.971    H  318 0.911    O  299 0.198
   311  C   3.960        C  312 0.973    N  310 0.971    C  314 0.967    H  319 0.947
   312  C   3.893        O  313 1.877    C  311 0.973    H  410 0.953
   313  O   2.058        C  312 1.877
   314  C   3.979        C  315 0.993    H  321 0.970    H  320 0.967    C  311 0.967
   315  C   3.992        C  316 1.009    C  317 1.008    C  314 0.993    H  322 0.965
   316  C   3.995        C  315 1.009    H  325 0.986    H  324 0.984    H  323 0.984
   317  C   3.992        C  315 1.008    H  328 0.985    H  327 0.985    H  326 0.984
   318  H   0.947        N  310 0.911
   319  H   0.994        C  311 0.947
   320  H   0.995        C  314 0.967
   321  H   0.995        C  314 0.970
   322  H   0.998        C  315 0.965
   323  H   0.997        C  316 0.984
   324  H   0.999        C  316 0.984
   325  H   0.998        C  316 0.986
   326  H   0.997        C  317 0.984
   327  H   0.997        C  317 0.985
   328  H   0.997        C  317 0.985
   329  N   2.993        C  330 1.014    H  411 0.960    H  338 0.946
   330  C   3.985        N  329 1.014    C  333 0.977    H  339 0.959    C  331 0.938
   331  C   3.948        O  332 1.605    N  344 1.324    C  330 0.938
   332  O   1.937        C  331 1.605    N  344 0.197
   333  C   3.997        C  334 0.998    C  330 0.977    H  341 0.970    H  340 0.970
   334  C   3.992        C  333 0.998    H  342 0.981    H  343 0.972    C  335 0.921
   335  C   3.928        O  337 1.513    O  336 1.460    C  334 0.921
   336  O   1.802        C  335 1.460    O  337 0.206
   337  O   1.802        C  335 1.513    O  336 0.206
   338  H   0.972        N  329 0.946
   339  H   0.999        C  330 0.959
   340  H   0.998        C  333 0.970
   341  H   1.000        C  333 0.970
   342  H   1.000        C  334 0.981
   343  H   0.999        C  334 0.972
   344  N   3.476        C  331 1.324    C  345 0.974    H  352 0.890    O  332 0.197
   345  C   3.959        N  344 0.974    C  346 0.972    C  348 0.966    H  353 0.944
   346  C   3.899        O  347 1.890    C  345 0.972    H  412 0.955
   347  O   2.032        C  346 1.890
   348  C   3.980        C  349 0.988    H  354 0.972    H  355 0.970    C  345 0.966
   349  C   3.992        C  351 1.010    C  350 1.006    C  348 0.988    H  356 0.959
   350  C   3.992        C  349 1.006    H  358 0.986    H  359 0.985    H  357 0.982
   351  C   3.995        C  349 1.010    H  361 0.986    H  362 0.984    H  360 0.984
   352  H   0.944        N  344 0.890
   353  H   0.993        C  345 0.944
   354  H   0.997        C  348 0.972
   355  H   0.994        C  348 0.970
   356  H   0.998        C  349 0.959
   357  H   0.996        C  350 0.982
   358  H   0.998        C  350 0.986
   359  H   0.997        C  350 0.985
   360  H   0.997        C  351 0.984
   361  H   0.998        C  351 0.986
   362  H   0.999        C  351 0.984
   363  N   2.996        C  364 1.017    H  413 0.955    H  370 0.945
   364  C   3.986        N  363 1.017    H  371 0.963    C  367 0.960    C  365 0.935
   365  C   3.950        O  366 1.667    N  377 1.269    C  364 0.935
   366  O   1.979        C  365 1.667    N  377 0.193
   367  C   3.953        C  369 0.998    O  368 0.990    C  364 0.960    H  372 0.952
   368  O   1.929        C  367 0.990    H  373 0.839
   369  C   3.994        C  367 0.998    H  376 0.985    H  375 0.983    H  374 0.978
   370  H   0.973        N  363 0.945
   371  H   0.999        C  364 0.963
   372  H   1.000        C  367 0.952
   373  H   0.903        O  368 0.839
   374  H   0.998        C  369 0.978
   375  H   0.998        C  369 0.983
   376  H   0.997        C  369 0.985
   377  N   3.443        C  365 1.269    C  378 1.000    H  381 0.922    O  366 0.193
   378  C   3.961        N  377 1.000    C  379 0.999    H  383 0.931    H  382 0.923
   379  C   3.902        O  380 1.881    C  378 0.999    H  414 0.952
   380  O   2.062        C  379 1.881
   381  H   0.951        N  377 0.922
   382  H   0.985        C  378 0.923
   383  H   0.986        C  378 0.931
   384  N   3.009        C  385 1.030    H  396 0.955    H  415 0.946
   385  C   3.986        N  384 1.030    C  386 0.986    H  397 0.953    C  388 0.922
   386  C   3.900        O  387 1.891    C  385 0.986    H  416 0.955
   387  O   2.038        C  386 1.891
   388  C   3.992        C  389 1.013    H  399 0.972    H  398 0.969    C  385 0.922
   389  C   3.988        C  391 1.406    C  390 1.401    C  388 1.013
   390  C   3.991        C  392 1.451    C  389 1.401    H  400 0.964    C  393 0.105
   391  C   3.989        C  393 1.452    C  389 1.406    H  401 0.968    C  392 0.107
   392  C   3.987        C  390 1.451    C  394 1.374    H  402 0.962    C  391 0.107
   393  C   3.986        C  391 1.452    C  394 1.375    H  403 0.965    C  390 0.105
   394  C   3.939        C  393 1.375    C  392 1.374    O  395 1.057
   395  O   2.089        C  394 1.057    H  404 0.855
   396  H   0.974        N  384 0.955
   397  H   0.996        C  385 0.953
   398  H   0.997        C  388 0.969
   399  H   0.997        C  388 0.972
   400  H   0.998        C  390 0.964
   401  H   0.998        C  391 0.968
   402  H   0.997        C  392 0.962
   403  H   0.997        C  393 0.965
   404  H   0.875        O  395 0.855
   405  H   0.965        N    1 0.951
   406  H   0.995        C    3 0.956
   407  H   0.967        N   25 0.954
   408  H   0.995        C  291 0.956
   409  H   0.968        N  296 0.956
   410  H   0.993        C  312 0.953
   411  H   0.972        N  329 0.960
   412  H   0.996        C  346 0.955
   413  H   0.965        N  363 0.955
   414  H   0.992        C  379 0.952
   415  H   0.967        N  384 0.946
   416  H   0.995        C  386 0.955
 
molecular dipole:
                 x           y           z       tot (Debye)
 q only:      -64.735     -74.164     -69.855
   full:      -64.675     -75.461     -65.264     302.214
molecular quadrupole (traceless):
                xx          xy          yy          xz          yz          zz
 q only:     1038.749   -6557.484    -846.481   -6758.061   -7328.469    -192.268
  q+dip:      870.996   -6618.315   -1279.274   -6412.318   -7032.254     408.278
   full:      878.613   -6619.895   -1282.997   -6413.824   -7028.491     404.383


           -------------------------------------------------
          | TOTAL ENERGY             -636.134086406105 Eh   |
          | GRADIENT NORM               0.550703579204 Eh/α |
          | HOMO-LUMO GAP               1.397405871701 eV   |
           -------------------------------------------------

------------------------------------------------------------------------
 * finished run on 2019/05/31 at 02:07:18.086     
------------------------------------------------------------------------
 total:
 * wall-time:     0 d,  0 h,  0 min,  7.200 sec
 *  cpu-time:     0 d,  0 h,  0 min, 28.159 sec
 * ratio c/w:     3.911 speedup
 SCF:
 * wall-time:     0 d,  0 h,  0 min,  6.831 sec
 *  cpu-time:     0 d,  0 h,  0 min, 26.948 sec
 * ratio c/w:     3.945 speedup

