      -----------------------------------------------------------      
     |                   =====================                   |     
     |                           x T B                           |     
     |                   =====================                   |     
     |                         S. Grimme                         |     
     |          Mulliken Center for Theoretical Chemistry        |     
     |                    University of Bonn                     |     
     |                Version 6.1 RC1 (SAW190329)                |     
      -----------------------------------------------------------      

   This program is distributed in the hope that it will be useful,
   but WITHOUT ANY WARRANTY; without even the implied warranty of
   MERCHANTABILITY or FITNESS FOR A PARTICULAR PURPOSE.
   
   FOR NON-COMMERCIAL, ACADEMIA USE ONLY.
   
   Cite this work as:
   S. Grimme, C. Bannwarth, P. Shushkov, J. Comput. Theory Chem., 2017,
   13, 1989-2009. DOI: 10.1021/acs.jctc.7b00118
   C. Bannwarth, S. Ehlert and S. Grimme., J. Comput. Theory Chem., 2019,
   just accepted. DOI: 10.1021/acs.jctc.8b01176
   
   for sTDA-xTB:
   S. Grimme and C. Bannwarth, J. Chem. Phys., 2016, 145, 054103.
   DOI: 10.1063/1.4959605
   
   in the mass-spec context:
   V. Asgeirsson, C. Bauer and S. Grimme, Chem. Sci., 2017, 8, 4879.
   DOI: 10.1039/c7sc00601b
   
   for metadynamics refer to:
   S. Grimme, ChemRxiv, Preprint. DOI: 10.26434/chemrxiv.7660532.v1
   
   with help from (in alphabetical order)
   C. Bannwarth, F. Bohle, G. Brandenburg, E. Caldeweyher, M. Checinski,
   S. Dohm, S. Ehlert, S. Ehrlich, F. März, H. Neugebauer, J. Pisarek,
   P. Pracht, P. Shushkov, and S. Spicher.
   
 * started run on 2019/05/31 at 06:33:26.145     

           -------------------------------------------------
          |                Calculation Setup                |
           -------------------------------------------------

          program call               : /home/lum/qr/xtb-190329/bin/xtb xtb_tmp.xyz --chrg -1 --grad --gfn 2 --etemp 500 --acc 0.1 --gbsa h2o --parallel 2
          hostname                   : cu39
          coordinate file            : xtb_tmp.xyz
          omp threads                :                     2
          number of atoms            :                   379
          number of electrons        :                  1050
          charge                     :                    -1
          spin                       :                   0.0
          first test random number   :      0.92677282205582


molecular fragmentation (1/2 indicates fragments):
111111111111111111111111111111111111111111111111122222222222222222222222
222222222222222222222222222222222222222222222222222222222222222222222222
222222222222222222222222222222222222222222222222222222222222222222222222
222222222222222222222222222222222222222222222222222222222222222222222222
222222222222222222222222222222222222222222222222222222222222222222222222
2222222221122222222
# atoms in fragment 1/2:    51   328
 fragment masses (1/2) :      380.40     2286.63
CMA distance (Bohr)    :  15.118
constraining FC (au)   :  0.0500

########################################################################
# WARNING! Please study the warnings concerning your input carefully
#  - XTBPATH is not set, using XTBHOME instead
#  - Process number higher than OMP_NUM_THREADS, I hope you know what you are doing.
########################################################################

           ------------------------------------------------- 
          |                 G F N 2 - x T B                 |
          | Geometry, Frequencies, Noncovalent interactions |
          |            JCTC 2018 parametrisation            |
           ------------------------------------------------- 
 
             k(s)              :                1.8500
             k(p)              :                2.2300
             k(d)              :                2.2300
             k(f)              :                2.0000
             kEN (H0ij)        :               -2.0000
             D4 a1             :                0.5200
             D4 a2             :                5.0000
             D4 s6             :                1.0000
             D4 s8             :                2.7000
             D4 s9             :                5.0000
             alphaj            :                2.0000

  Z AO/shell   Hii/eV     exponent
  1     Wed Apr 25 08:07:45 CEST 2018   EN: 2.200 GM2: 0.406  GM3: 0.0800  RAES: 1.40
     1s    -10.707211    1.230000
  6     Wed Apr 25 08:07:45 CEST 2018   EN: 2.550 GM2: 0.538  GM3: 0.1500  RAES: 3.00
     2s    -13.970922    2.096432
     2p    -10.063292    1.800000
  7     Wed Apr 25 08:07:45 CEST 2018   EN: 3.040 GM2: 0.461  GM3:-0.0640  RAES: 1.90
     2s    -16.686243    2.339881
     2p    -12.523956    2.014332
  8     Wed Apr 25 08:07:45 CEST 2018   EN: 3.440 GM2: 0.452  GM3:-0.0517  RAES: 1.80
     2s    -20.229985    2.439742
     2p    -15.503117    2.137023

 Solvent             : h2o
 Using internal parameter file: .param_gbsa2_h2o
 Gsolv ref. state (COSMO-RS): gsolv [1 M gas/solution]
 temperature (mdtemp)       :    298.150000000000     
 dielectric constant        :    80.2000000000000     
 rho                        :    1.00000000000000     
 mass                       :    18.0000000000000     
 surface tension            :    15.5689454083859     
 probe radius               :   0.975313790000000     
 vdW radii scaling          :    1.00000000000000     
 Gshift (Eh)                :   1.857443126794793E-003
 c1                         :    1.55243817000000     
 soset                      :   0.130326360000000     
 HB correction              :  T
 Number of grid points      :          230

            Z     q(EN)     CN     RAES       Cart. coordinates
     1  N   5.0   -0.70    3.00    1.93    72.95756    76.42676   146.94685
     2  C   4.0    0.08    3.98    3.58    71.00403    75.61215   148.69791
     3  C   4.0    0.29    3.00    3.02    71.58306    72.88718   149.56763
     4  O   6.0   -0.45    1.00    1.80    70.48045    71.05664   148.67845
     5  C   4.0   -0.02    3.98    3.58    68.35252    75.76163   147.48112
     6  O   6.0   -0.46    1.99    1.82    68.12780    74.29638   145.28680
     7  H   1.0    0.33    1.00    1.43    73.29668    75.23173   145.48282
     8  H   1.0    0.10    0.99    1.43    71.04396    76.90897   150.30799
     9  H   1.0    0.11    0.99    1.43    66.94691    75.17212   148.89327
    10  H   1.0    0.11    0.99    1.43    67.97282    77.71288   146.91359
    11  H   1.0    0.29    0.99    1.43    68.53666    72.57142   145.76543
    12  N   5.0   -0.47    3.01    1.93    73.35829    72.69451   151.34848
    13  C   4.0    0.03    3.99    3.60    74.11520    70.34375   152.53820
    14  C   4.0    0.25    3.01    3.02    75.07920    70.93940   155.19828
    15  O   6.0   -0.41    1.00    1.80    75.85862    73.05990   155.70367
    16  H   1.0    0.27    1.00    1.43    74.18802    74.25433   152.09467
    17  H   1.0    0.16    0.99    1.43    72.52347    69.03285   152.55316
    18  H   1.0    0.14    0.99    1.43    75.66160    69.45991   151.47315
    19  N   5.0   -0.49    3.00    1.93    75.03352    69.03496   156.86511
    20  C   4.0    0.07    3.99    3.60    75.70513    69.38037   159.50303
    21  C   4.0    0.27    3.01    3.02    78.51233    68.82120   160.00804
    22  O   6.0   -0.45    1.00    1.80    79.21767    67.51201   161.76534
    23  C   4.0   -0.21    3.98    3.59    74.04400    67.77637   161.21509
    24  H   1.0    0.24    1.00    1.43    74.50270    67.30099   156.27503
    25  H   1.0    0.14    0.99    1.43    75.41678    71.39655   159.89962
    26  H   1.0    0.11    0.99    1.43    74.66001    68.02342   163.15736
    27  H   1.0    0.10    0.99    1.43    72.07755    68.32749   161.04040
    28  H   1.0    0.11    0.99    1.43    74.24672    65.79383   160.72226
    29  N   5.0   -0.46    3.01    1.93    80.10653    69.88425   158.34056
    30  C   4.0    0.06    3.99    3.60    82.80813    69.67776   158.62074
    31  C   4.0    0.05    3.00    3.02    84.05116    72.22399   158.09496
    32  O   6.0   -0.39    1.00    1.80    82.91639    73.95733   157.07998
    33  C   4.0   -0.12    3.99    3.60    83.93787    67.70429   156.79575
    34  C   4.0   -0.00    3.03    3.02    83.13942    68.07054   154.09846
    35  C   4.0   -0.09    3.04    3.02    84.40823    69.71554   152.49560
    36  C   4.0   -0.06    3.04    3.02    81.19412    66.63546   153.09796
    37  C   4.0   -0.07    3.03    3.02    83.85224    69.82792   149.95113
    38  C   4.0   -0.06    3.03    3.02    80.61082    66.71071   150.56134
    39  C   4.0    0.12    3.03    3.02    82.00258    68.24787   148.96158
    40  O   6.0   -0.49    1.99    1.83    81.63336    68.25233   146.42417
    41  H   1.0    0.30    1.00    1.43    79.48548    71.25276   157.15770
    42  H   1.0    0.13    0.99    1.43    83.18963    69.06178   160.56251
    43  H   1.0    0.09    0.99    1.43    85.99459    67.79268   156.92269
    44  H   1.0    0.11    0.99    1.43    83.38190    65.82070   157.42774
    45  H   1.0    0.11    1.00    1.43    85.89793    70.88233   153.25820
    46  H   1.0    0.14    1.00    1.43    80.14364    65.37263   154.29841
    47  H   1.0    0.12    1.00    1.43    84.91065    71.03758   148.69565
    48  H   1.0    0.15    0.99    1.43    79.17014    65.46742   149.81853
    49  H   1.0    0.26    0.99    1.43    80.48865    66.90803   145.96176
    50  N   5.0   -0.68    3.00    1.93    95.24655    67.11237   148.69970
    51  C   4.0    0.06    3.98    3.59    93.59346    67.10203   150.87654
    52  C   4.0    0.07    3.00    3.02    95.03440    66.20744   153.19979
    53  O   6.0   -0.41    1.00    1.80    96.44020    64.37135   153.09164
    54  C   4.0   -0.14    3.99    3.60    91.35883    65.28388   150.50523
    55  C   4.0   -0.13    3.97    3.58    89.37283    65.56415   152.57708
    56  C   4.0    0.30    2.99    3.02    87.33276    63.43563   152.32049
    57  O   6.0   -0.40    1.00    1.80    85.60714    63.77106   150.77172
    58  O   6.0   -0.38    1.00    1.80    87.67902    61.53691   153.69611
    59  H   1.0    0.31    1.00    1.43    95.78773    65.42224   147.96055
    60  H   1.0    0.10    0.99    1.43    92.90141    69.02950   151.16391
    61  H   1.0    0.11    0.99    1.43    90.46137    65.66108   148.68543
    62  H   1.0    0.13    0.99    1.43    92.07402    63.34427   150.49724
    63  H   1.0    0.11    0.99    1.43    90.20618    65.40093   154.46510
    64  H   1.0    0.10    0.99    1.43    88.43146    67.38999   152.41030
    65  N   5.0   -0.69    3.01    1.93   100.45036    61.28180   150.13867
    66  C   4.0    0.06    3.98    3.58    99.81736    59.60216   148.05104
    67  C   4.0    0.07    3.01    3.02    99.38863    61.34683   145.78164
    68  O   6.0   -0.47    1.00    1.80    97.79392    63.02891   145.94678
    69  C   4.0   -0.13    3.98    3.59    97.38081    58.13467   148.67984
    70  C   4.0   -0.16    3.98    3.58    97.13416    55.56702   147.38672
    71  C   4.0   -0.04    3.99    3.59    94.59364    54.36092   148.10209
    72  N   5.0   -0.48    3.02    1.93    94.31721    54.10800   150.82292
    73  C   4.0    0.36    3.00    3.02    95.32854    52.32174   152.28783
    74  N   5.0   -0.64    3.02    1.93    95.23586    52.59299   154.77610
    75  N   5.0   -0.65    3.01    1.93    96.49151    50.30884   151.31121
    76  H   1.0    0.32    1.00    1.43    99.22968    62.74356   150.36399
    77  H   1.0    0.10    0.99    1.43   101.39805    58.30229   147.79098
    78  H   1.0    0.12    0.99    1.43    97.36979    57.83822   150.72180
    79  H   1.0    0.12    0.99    1.43    95.75159    59.31848   148.22165
    80  H   1.0    0.09    0.99    1.43    97.20927    55.77821   145.33926
    81  H   1.0    0.11    0.99    1.43    98.67605    54.34465   148.00213
    82  H   1.0    0.10    0.99    1.43    93.04975    55.56827   147.45947
    83  H   1.0    0.10    0.99    1.43    94.36992    52.52019   147.19941
    84  H   1.0    0.24    1.00    1.43    93.51991    55.59262   151.72720
    85  H   1.0    0.26    1.00    1.43    94.35125    54.10780   155.51025
    86  H   1.0    0.24    1.00    1.43    95.78187    51.20128   156.04537
    87  H   1.0    0.25    1.00    1.43    96.42643    49.95346   149.44244
    88  H   1.0    0.25    1.00    1.43    96.94967    48.88161   152.48646
    89  N   5.0   -0.70    3.00    1.93    95.91293    63.21715   140.14881
    90  C   4.0    0.08    3.99    3.60    93.39961    62.40424   139.43085
    91  C   4.0    0.27    3.01    3.02    92.72770    63.30592   136.77044
    92  O   6.0   -0.45    1.00    1.80    91.71635    61.89266   135.24705
    93  C   4.0   -0.10    3.98    3.58    91.43443    63.19819   141.42907
    94  C   4.0   -0.23    3.98    3.59    88.76088    62.55089   140.55854
    95  C   4.0   -0.23    3.98    3.59    92.01867    61.86068   143.92186
    96  H   1.0    0.27    1.00    1.43    96.13339    65.07017   140.60890
    97  H   1.0    0.12    0.99    1.43    93.43725    60.33406   139.32579
    98  H   1.0    0.11    0.99    1.43    91.57157    65.24411   141.70826
    99  H   1.0    0.10    0.99    1.43    87.43338    62.88413   142.09166
   100  H   1.0    0.11    0.99    1.43    88.19400    63.68038   138.93761
   101  H   1.0    0.11    0.99    1.43    88.63932    60.56716   140.03413
   102  H   1.0    0.10    0.99    1.43    90.67860    62.43419   145.37305
   103  H   1.0    0.10    0.99    1.43    91.84996    59.82508   143.67449
   104  H   1.0    0.13    0.99    1.43    93.91937    62.30722   144.56488
   105  N   5.0   -0.47    3.01    1.93    93.36872    65.69217   136.19660
   106  C   4.0    0.07    3.99    3.61    93.24370    66.52373   133.59002
   107  C   4.0    0.06    3.00    3.02    95.69087    67.91795   132.97845
   108  O   6.0   -0.41    1.00    1.80    96.66479    69.38713   134.47333
   109  C   4.0   -0.13    3.98    3.59    90.87786    68.15969   133.08471
   110  C   4.0   -0.05    3.03    3.02    89.80025    67.79504   130.47951
   111  C   4.0   -0.11    3.03    3.02    89.35636    69.84281   128.90617
   112  C   4.0   -0.11    3.03    3.02    89.12663    65.39686   129.62893
   113  C   4.0   -0.09    3.03    3.02    88.25115    69.52878   126.56171
   114  C   4.0   -0.08    3.03    3.02    88.05488    65.05397   127.27596
   115  C   4.0    0.11    3.03    3.02    87.58549    67.13009   125.72353
   116  O   6.0   -0.46    1.99    1.83    86.50901    66.74370   123.43603
   117  H   1.0    0.26    1.00    1.43    94.25849    66.85017   137.44591
   118  H   1.0    0.14    0.99    1.43    93.12254    64.81037   132.43553
   119  H   1.0    0.11    0.99    1.43    89.45077    67.58246   134.46169
   120  H   1.0    0.11    0.99    1.43    91.30944    70.14974   133.40395
   121  H   1.0    0.11    1.00    1.43    89.87416    71.71646   129.52094
   122  H   1.0    0.13    0.99    1.43    89.43256    63.77002   130.82785
   123  H   1.0    0.13    1.00    1.43    87.84622    71.13287   125.37073
   124  H   1.0    0.13    1.00    1.43    87.54149    63.19138   126.62056
   125  H   1.0    0.30    0.99    1.43    86.16647    68.38059   122.59616
   126  N   5.0   -0.69    3.01    1.93    79.58813    79.40211   127.59459
   127  C   4.0    0.08    3.99    3.61    80.30936    77.15967   129.00140
   128  C   4.0    0.29    3.01    3.02    78.94916    77.36777   131.54497
   129  O   6.0   -0.41    1.00    1.80    79.28860    79.12471   133.01725
   130  C   4.0   -0.09    3.98    3.58    83.19740    76.96334   129.22819
   131  C   4.0   -0.16    3.98    3.59    84.32772    76.38262   126.62111
   132  C   4.0   -0.22    3.98    3.59    83.87287    74.93775   131.16807
   133  C   4.0   -0.23    3.98    3.58    87.15149    76.93169   126.47996
   134  H   1.0    0.28    1.00    1.43    80.02664    81.07616   128.42486
   135  H   1.0    0.14    0.99    1.43    79.56500    75.51353   127.99758
   136  H   1.0    0.12    0.99    1.43    83.88875    78.79656   129.88910
   137  H   1.0    0.12    0.99    1.43    83.95695    74.39909   126.18236
   138  H   1.0    0.11    0.99    1.43    83.34229    77.53048   125.21524
   139  H   1.0    0.10    0.99    1.43    85.90590    74.80759   131.40291
   140  H   1.0    0.12    0.99    1.43    83.03899    75.40559   132.98890
   141  H   1.0    0.11    0.99    1.43    83.14632    73.10780   130.57371
   142  H   1.0    0.12    0.99    1.43    87.83810    76.57722   124.57981
   143  H   1.0    0.10    0.99    1.43    87.49925    78.89687   126.96581
   144  H   1.0    0.10    0.99    1.43    88.18167    75.74132   127.79223
   145  N   5.0   -0.47    3.01    1.93    77.27075    75.52006   131.94165
   146  C   4.0    0.09    4.00    3.61    75.69552    75.42549   134.15703
   147  C   4.0    0.25    3.01    3.02    76.06351    72.87598   135.45782
   148  O   6.0   -0.46    1.00    1.80    76.58931    70.95185   134.29432
   149  C   4.0   -0.00    3.98    3.58    72.89516    75.86387   133.54558
   150  O   6.0   -0.45    1.99    1.82    72.60621    78.38798   132.74168
   151  H   1.0    0.28    1.00    1.43    77.18316    74.02179   130.74785
   152  H   1.0    0.14    0.99    1.43    76.31009    76.95141   135.41336
   153  H   1.0    0.14    0.99    1.43    72.26857    74.56395   132.06326
   154  H   1.0    0.12    0.99    1.43    71.76473    75.48046   135.24380
   155  H   1.0    0.26    0.99    1.43    70.83132    78.78442   132.63059
   156  N   5.0   -0.49    3.01    1.93    75.83256    72.99142   137.96220
   157  C   4.0    0.08    4.00    3.61    76.36508    70.85530   139.58652
   158  C   4.0    0.27    3.01    3.02    74.33105    70.65552   141.62237
   159  O   6.0   -0.44    1.00    1.80    73.88773    72.37985   143.11958
   160  C   4.0   -0.07    3.98    3.58    79.05288    71.05984   140.74450
   161  C   4.0   -0.14    3.98    3.58    79.40568    73.51778   142.23668
   162  C   4.0   -0.21    3.98    3.59    81.01248    70.79018   138.64833
   163  C   4.0   -0.23    3.98    3.58    82.02264    73.79983   143.41380
   164  H   1.0    0.24    1.00    1.43    75.46732    74.66779   138.80775
   165  H   1.0    0.16    0.99    1.43    76.26672    69.16457   138.39814
   166  H   1.0    0.12    0.99    1.43    79.26085    69.46048   142.03828
   167  H   1.0    0.12    0.99    1.43    79.03336    75.12999   141.00354
   168  H   1.0    0.15    0.99    1.43    78.00118    73.55216   143.74507
   169  H   1.0    0.09    0.99    1.43    82.89610    70.64471   139.44622
   170  H   1.0    0.11    0.99    1.43    80.61349    69.10495   137.54516
   171  H   1.0    0.12    0.99    1.43    80.94034    72.41202   137.38500
   172  H   1.0    0.11    0.99    1.43    82.00401    75.40132   144.70453
   173  H   1.0    0.13    0.99    1.43    82.49210    72.10470   144.46932
   174  H   1.0    0.10    0.99    1.43    83.44751    74.12627   141.97115
   175  N   5.0   -0.48    3.01    1.93    73.10486    68.45185   141.66320
   176  C   4.0    0.08    3.99    3.61    71.39185    67.79164   143.68299
   177  C   4.0    0.28    3.01    3.02    72.28103    65.32993   144.87705
   178  O   6.0   -0.44    1.00    1.80    73.99923    64.07829   143.96258
   179  C   4.0   -0.13    3.98    3.59    68.60667    67.62666   142.79796
   180  C   4.0   -0.02    3.12    3.03    67.80921    65.16796   141.65830
   181  C   4.0    0.02    3.23    3.04    66.70051    63.21059   142.93335
   182  C   4.0    0.01    3.18    3.03    67.88497    64.42951   139.05918
   183  N   5.0   -0.47    3.10    1.94    66.06888    61.31293   141.30897
   184  C   4.0    0.12    3.23    3.04    66.77026    61.99357   138.93145
   185  C   4.0   -0.09    3.02    3.02    68.80931    65.52679   136.84568
   186  C   4.0   -0.09    3.02    3.02    66.51308    60.69218   136.66711
   187  C   4.0   -0.09    3.03    3.02    68.57009    64.21600   134.61171
   188  C   4.0   -0.11    3.03    3.02    67.42622    61.83485   134.51429
   189  H   1.0    0.29    1.00    1.43    73.63147    67.04787   140.46884
   190  H   1.0    0.17    0.99    1.43    71.55065    69.31022   145.08394
   191  H   1.0    0.11    0.99    1.43    67.40763    68.01475   144.42596
   192  H   1.0    0.13    0.99    1.43    68.31490    69.14492   141.43768
   193  H   1.0    0.11    1.00    1.43    66.27064    63.07417   144.90818
   194  H   1.0    0.26    1.00    1.43    65.41622    59.58967   141.78180
   195  H   1.0    0.14    0.99    1.43    69.67825    67.37550   136.86227
   196  H   1.0    0.13    1.00    1.43    65.62386    58.85907   136.61446
   197  H   1.0    0.13    0.99    1.43    69.27098    65.05488   132.88471
   198  H   1.0    0.12    1.00    1.43    67.26891    60.89006   132.71319
   199  N   5.0   -0.49    3.00    1.93    71.00219    64.62078   146.94024
   200  C   4.0    0.02    4.00    3.61    71.53195    62.28333   148.23777
   201  C   4.0    0.27    3.01    3.02    72.19464    62.66813   151.00993
   202  O   6.0   -0.42    1.00    1.80    72.23238    64.72354   152.05074
   203  H   1.0    0.26    1.00    1.43    69.89999    65.90578   147.82318
   204  H   1.0    0.10    0.99    1.43    69.87179    61.04991   148.12258
   205  H   1.0    0.16    0.99    1.43    73.11538    61.35188   147.27711
   206  N   5.0   -0.48    3.01    1.93    72.52278    60.46628   152.24870
   207  C   4.0    0.09    3.99    3.61    73.52991    60.43273   154.78562
   208  C   4.0    0.28    3.01    3.02    76.44245    60.38098   154.62528
   209  O   6.0   -0.37    1.00    1.80    77.52809    61.04688   152.70361
   210  C   4.0    0.03    3.98    3.58    72.42242    58.22244   156.31440
   211  O   6.0   -0.51    1.99    1.82    73.71418    55.98821   155.57124
   212  C   4.0   -0.22    3.98    3.59    69.57063    58.01088   155.93707
   213  H   1.0    0.26    1.00    1.43    72.85795    58.91928   151.18154
   214  H   1.0    0.12    0.99    1.43    72.97599    62.23990   155.63804
   215  H   1.0    0.09    0.99    1.43    72.78280    58.59793   158.32801
   216  H   1.0    0.24    0.99    1.43    72.80020    54.56948   156.27677
   217  H   1.0    0.09    0.99    1.43    68.77950    56.65866   157.26565
   218  H   1.0    0.10    0.99    1.43    68.68962    59.83657   156.25445
   219  H   1.0    0.12    0.99    1.43    69.14017    57.40853   154.02406
   220  N   5.0   -0.50    3.01    1.93    77.61255    59.60664   156.73252
   221  C   4.0    0.11    3.99    3.61    80.30304    59.26572   156.92178
   222  C   4.0    0.29    3.01    3.02    81.22970    56.75421   155.80331
   223  O   6.0   -0.40    1.00    1.80    83.49293    56.37421   155.55215
   224  C   4.0    0.03    3.98    3.59    81.06795    59.32752   159.72977
   225  O   6.0   -0.50    1.99    1.83    79.66867    57.39242   160.91549
   226  C   4.0   -0.20    3.98    3.59    80.52348    61.88261   160.94658
   227  H   1.0    0.25    1.00    1.43    76.63739    58.89543   158.21230
   228  H   1.0    0.14    0.99    1.43    81.28312    60.76116   155.87536
   229  H   1.0    0.12    0.99    1.43    83.10820    58.93090   159.81601
   230  H   1.0    0.24    0.99    1.43    80.14628    57.32042   162.67579
   231  H   1.0    0.11    0.99    1.43    81.16053    61.90561   162.89900
   232  H   1.0    0.11    0.99    1.43    81.50961    63.37880   159.95105
   233  H   1.0    0.13    0.99    1.43    78.51448    62.30373   160.90431
   234  N   5.0   -0.48    3.00    1.93    79.45628    55.03991   155.23585
   235  C   4.0    0.08    4.00    3.62    80.17855    52.60144   154.23079
   236  C   4.0    0.28    3.01    3.02    80.16251    52.55588   151.34830
   237  O   6.0   -0.44    1.00    1.80    81.84182    51.52816   150.14241
   238  C   4.0   -0.14    3.99    3.59    78.49304    50.46557   155.22492
   239  C   4.0   -0.10    3.98    3.58    79.38996    49.36071   157.75680
   240  C   4.0   -0.23    3.98    3.59    81.79537    47.80173   157.41108
   241  C   4.0   -0.21    3.98    3.59    79.81150    51.41858   159.73292
   242  H   1.0    0.28    1.00    1.43    77.59891    55.41940   155.52349
   243  H   1.0    0.15    0.99    1.43    82.14802    52.29018   154.78331
   244  H   1.0    0.11    0.99    1.43    76.56573    51.17864   155.39253
   245  H   1.0    0.12    0.99    1.43    78.46486    48.95951   153.81507
   246  H   1.0    0.11    0.99    1.43    77.89319    48.09533   158.42359
   247  H   1.0    0.10    0.99    1.43    82.32727    46.91346   159.18469
   248  H   1.0    0.10    0.99    1.43    81.51840    46.33769   155.99719
   249  H   1.0    0.11    0.99    1.43    83.35235    48.99626   156.79991
   250  H   1.0    0.09    0.99    1.43    80.25653    50.57310   161.55006
   251  H   1.0    0.13    0.99    1.43    81.38253    52.62799   159.19532
   252  H   1.0    0.12    0.99    1.43    78.15232    52.60757   159.94638
   253  N   5.0   -0.47    3.01    1.93    78.12216    53.59757   150.26220
   254  C   4.0    0.07    4.00    3.61    77.68697    53.42750   147.56224
   255  C   4.0    0.26    3.02    3.02    77.68386    56.07762   146.40250
   256  O   6.0   -0.43    1.00    1.80    75.76690    57.39427   146.44931
   257  C   4.0   -0.12    3.99    3.60    75.17148    52.06699   147.03526
   258  C   4.0   -0.02    3.03    3.02    74.98547    49.74352   148.66288
   259  C   4.0   -0.11    3.03    3.02    73.21167    49.56551   150.58922
   260  C   4.0   -0.09    3.03    3.02    76.68573    47.76982   148.33772
   261  C   4.0   -0.09    3.03    3.02    73.11178    47.46944   152.14159
   262  C   4.0   -0.10    3.02    3.02    76.62851    45.67416   149.89433
   263  C   4.0    0.09    3.03    3.02    74.83319    45.50891   151.80756
   264  O   6.0   -0.48    1.99    1.83    74.70010    43.49975   153.39856
   265  H   1.0    0.26    1.00    1.43    76.79979    54.46717   151.32499
   266  H   1.0    0.13    0.99    1.43    79.25089    52.31769   146.80351
   267  H   1.0    0.13    0.99    1.43    73.61651    53.36876   147.40719
   268  H   1.0    0.11    0.99    1.43    75.12147    51.57253   145.03182
   269  H   1.0    0.11    1.00    1.43    71.86940    51.07844   150.84925
   270  H   1.0    0.12    1.00    1.43    78.08338    47.87050   146.85572
   271  H   1.0    0.12    1.00    1.43    71.72030    47.31433   153.62345
   272  H   1.0    0.11    0.99    1.43    77.97984    44.16500   149.62386
   273  H   1.0    0.25    0.99    1.43    75.92921    42.22899   152.93626
   274  N   5.0   -0.32    3.04    1.93    79.83910    56.87892   145.37336
   275  C   4.0    0.07    4.03    3.68    79.87646    59.26847   144.00926
   276  C   4.0    0.27    3.01    3.02    78.52390    58.83720   141.49211
   277  O   6.0   -0.42    1.00    1.80    79.01834    57.01399   140.15583
   278  C   4.0   -0.14    4.01    3.63    82.68359    59.86064   143.56882
   279  C   4.0   -0.14    4.01    3.64    84.07286    57.97929   145.26399
   280  C   4.0   -0.04    4.02    3.66    82.30956    55.69799   145.25053
   281  H   1.0    0.14    0.99    1.43    78.89858    60.71273   145.11833
   282  H   1.0    0.11    0.99    1.43    83.15686    59.52897   141.58931
   283  H   1.0    0.10    0.99    1.43    83.12629    61.80861   144.04526
   284  H   1.0    0.09    0.99    1.43    85.94703    57.53766   144.55674
   285  H   1.0    0.14    0.99    1.43    84.24458    58.74245   147.17307
   286  H   1.0    0.12    0.99    1.43    82.47743    54.67581   143.45451
   287  H   1.0    0.14    0.99    1.43    82.64556    54.43798   146.83976
   288  N   5.0   -0.49    3.02    1.93    76.82674    60.58920   140.86099
   289  C   4.0    0.07    3.99    3.61    75.37851    60.45571   138.54157
   290  C   4.0    0.28    3.01    3.02    76.05101    62.87567   137.09456
   291  O   6.0   -0.45    1.00    1.80    75.41787    64.96110   137.86460
   292  C   4.0   -0.12    3.98    3.59    72.55793    60.34212   139.14040
   293  C   4.0   -0.09    3.98    3.59    71.85569    58.16346   140.93015
   294  C   4.0    0.27    3.00    3.02    70.15104    56.22098   139.69127
   295  O   6.0   -0.42    1.00    1.80    68.03083    55.74078   140.46452
   296  N   5.0   -0.66    3.00    1.93    71.16608    55.03637   137.69280
   297  H   1.0    0.29    1.00    1.43    76.26957    61.95823   142.07639
   298  H   1.0    0.13    0.99    1.43    76.02788    58.78052   137.51526
   299  H   1.0    0.15    0.99    1.43    72.06485    62.13183   140.02858
   300  H   1.0    0.13    0.99    1.43    71.50106    60.22189   137.37562
   301  H   1.0    0.15    0.99    1.43    73.56039    57.21335   141.60169
   302  H   1.0    0.13    0.99    1.43    70.88279    58.91177   142.58104
   303  H   1.0    0.26    1.00    1.43    72.90056    55.47079   137.05516
   304  H   1.0    0.28    1.00    1.43    70.13048    53.76042   136.73295
   305  N   5.0   -0.49    3.01    1.93    77.55045    62.51395   135.09363
   306  C   4.0    0.08    4.00    3.61    78.62822    64.55812   133.63256
   307  C   4.0    0.27    3.01    3.02    77.31773    64.68039   131.06373
   308  O   6.0   -0.42    1.00    1.80    76.89845    62.77052   129.82330
   309  C   4.0   -0.09    3.98    3.59    81.48017    64.11953   133.18836
   310  C   4.0   -0.22    3.98    3.59    82.66234    66.42808   131.92538
   311  C   4.0   -0.22    3.98    3.59    82.83292    63.54454   135.66924
   312  H   1.0    0.24    1.00    1.43    77.81288    60.76725   134.37023
   313  H   1.0    0.14    0.99    1.43    78.30364    66.31278   134.67464
   314  H   1.0    0.13    0.99    1.43    81.66813    62.49839   131.91345
   315  H   1.0    0.11    0.99    1.43    84.67962    66.13638   131.65981
   316  H   1.0    0.13    0.99    1.43    81.82337    66.78450   130.08314
   317  H   1.0    0.10    0.99    1.43    82.38092    68.10566   133.07959
   318  H   1.0    0.10    0.99    1.43    84.81759    63.16794   135.30105
   319  H   1.0    0.10    0.99    1.43    82.68162    65.15077   136.94076
   320  H   1.0    0.12    0.99    1.43    82.02059    61.90580   136.60244
   321  N   5.0   -0.49    3.01    1.93    76.78398    67.01388   130.28321
   322  C   4.0    0.07    4.00    3.61    75.73225    67.54833   127.82751
   323  C   4.0    0.26    3.01    3.02    77.16231    69.78601   126.69743
   324  O   6.0   -0.46    1.00    1.80    78.02421    71.49856   127.98794
   325  C   4.0   -0.13    3.98    3.59    72.87922    68.15359   127.95678
   326  C   4.0   -0.09    3.98    3.58    72.23238    69.71264   130.27979
   327  C   4.0    0.30    2.99    3.02    69.66245    71.15425   130.10465
   328  O   6.0   -0.43    1.00    1.80    68.95845    71.86236   127.97551
   329  O   6.0   -0.41    1.00    1.80    68.55499    71.56101   132.14310
   330  H   1.0    0.28    1.00    1.43    77.02651    68.51689   131.44434
   331  H   1.0    0.13    0.99    1.43    76.03670    65.85714   126.67371
   332  H   1.0    0.13    0.99    1.43    72.32893    69.22374   126.27966
   333  H   1.0    0.11    0.99    1.43    71.81862    66.38486   127.98600
   334  H   1.0    0.13    0.99    1.43    72.20751    68.56016   131.99026
   335  H   1.0    0.14    0.99    1.43    73.67568    71.16674   130.54010
   336  N   5.0   -0.50    3.02    1.93    77.33658    69.70959   124.17446
   337  C   4.0    0.07    3.99    3.60    78.75431    71.48379   122.62212
   338  C   4.0    0.28    3.01    3.02    77.04759    72.20632   120.39463
   339  O   6.0   -0.41    1.00    1.80    76.85460    70.87527   118.51223
   340  C   4.0   -0.09    3.98    3.59    81.16945    70.16080   121.76947
   341  C   4.0    0.30    2.99    3.02    83.18073    71.85347   120.55673
   342  O   6.0   -0.36    1.00    1.80    82.60797    73.60777   119.13139
   343  O   6.0   -0.45    1.00    1.80    85.42317    71.22682   121.08744
   344  H   1.0    0.24    1.00    1.43    76.60134    68.21935   123.23761
   345  H   1.0    0.13    0.99    1.43    79.16677    73.15182   123.76818
   346  H   1.0    0.13    0.99    1.43    82.00873    69.21705   123.40169
   347  H   1.0    0.14    0.99    1.43    80.65738    68.72318   120.37417
   348  N   5.0   -0.47    3.01    1.93    75.69164    74.29941   120.77253
   349  C   4.0    0.06    3.99    3.60    73.99368    75.27951   118.85234
   350  C   4.0    0.08    3.00    3.02    75.60737    76.99170   117.16557
   351  O   6.0   -0.39    1.00    1.80    76.24759    79.11902   117.83219
   352  C   4.0   -0.14    3.98    3.59    71.77233    76.70835   119.99209
   353  C   4.0   -0.16    3.98    3.59    70.05190    74.98837   121.53900
   354  C   4.0   -0.16    3.98    3.59    67.60458    76.34176   122.25127
   355  C   4.0   -0.05    3.98    3.58    65.72816    74.46206   123.36286
   356  N   5.0   -0.73    3.98    2.82    63.32771    75.76714   124.05614
   357  H   1.0    0.25    1.00    1.43    76.00686    75.40816   122.30607
   358  H   1.0    0.13    0.99    1.43    73.30902    73.66695   117.74881
   359  H   1.0    0.13    0.99    1.43    72.49483    78.24370   121.16356
   360  H   1.0    0.10    0.99    1.43    70.68918    77.54825   118.44317
   361  H   1.0    0.11    0.99    1.43    69.60040    73.32262   120.40958
   362  H   1.0    0.13    0.99    1.43    71.01181    74.35278   123.25141
   363  H   1.0    0.11    0.99    1.43    68.03638    77.81457   123.63119
   364  H   1.0    0.10    0.99    1.43    66.84213    77.22477   120.54773
   365  H   1.0    0.10    0.99    1.43    65.30972    72.99456   121.97526
   366  H   1.0    0.15    0.99    1.43    66.55326    73.58287   125.04263
   367  H   1.0    0.24    1.00    1.43    62.08452    74.49838   124.85254
   368  H   1.0    0.24    1.00    1.43    63.70910    77.17638   125.34629
   369  H   1.0    0.23    1.00    1.43    62.53687    76.56851   122.46301
   370  H   1.0    0.30    1.00    1.43    72.51757    77.91892   146.25953
   371  H   1.0    0.11    1.00    1.43    85.85279    72.51511   158.58530
   372  H   1.0    0.29    1.00    1.43    94.48842    67.92923   147.41497
   373  H   1.0    0.11    1.00    1.43    94.83998    67.12158   154.84223
   374  H   1.0    0.30    1.00    1.43   100.45214    60.40237   151.59441
   375  H   1.0    0.12    1.00    1.43   100.39727    61.10711   144.20169
   376  H   1.0    0.31    1.00    1.43    96.42309    62.34391   141.51620
   377  H   1.0    0.13    1.00    1.43    96.54514    67.64227   131.31553
   378  H   1.0    0.29    1.00    1.43    80.36736    79.39897   126.08285
   379  H   1.0    0.14    1.00    1.43    76.17023    76.38510   115.46666

           ------------------------------------------------- 
          |        Self-Consistent Charge Iterations        |
           ------------------------------------------------- 

          ...................................................
          :                      SETUP                      :
          :.................................................:
          :  # basis functions                 946          :
          :  # atomic orbitals                 946          :
          :  # shells                          568          :
          :  # electrons                      1050          :
          :  max. iterations                   250          :
          :  Hamiltonian                  GFN2-xTB          :
          :  restarted?                      false          :
          :  GBSA solvation                   true          :
          :  PC potential                    false          :
          :  electronic temp.          500.0000000     K    :
          :  accuracy                    0.1000000          :
          :  -> integral cutoff          0.3500000E+02      :
          :  -> integral neglect         0.1000000E-08      :
          :  -> SCF convergence          0.1000000E-06 Eh   :
          :  -> wf. convergence          0.1000000E-04 e    :
          :  Broyden damping             0.4000000          :
          ...................................................

 iter      E             dE          RMSdq      gap      omega  full diag
   1   -601.9769851 -0.601977E+03  0.426E+00    2.19       0.0  T
   2   -603.5124314 -0.153545E+01  0.223E+00    1.62       1.0  T
   3   -603.5689551 -0.565238E-01  0.120E+00    1.87       1.0  T
   4   -603.5901879 -0.212328E-01  0.321E-01    1.10       1.0  T
   5   -603.6131219 -0.229340E-01  0.127E-01    1.25       1.0  T
   6   -603.6142380 -0.111610E-02  0.698E-02    1.31       1.0  T
   7   -603.6147640 -0.525946E-03  0.310E-02    1.34       1.0  T
   8   -603.6148377 -0.736914E-04  0.114E-02    1.36       1.0  T
   9   -603.6148492 -0.115789E-04  0.610E-03    1.37       1.0  T
  10   -603.6148523 -0.305103E-05  0.280E-03    1.36       1.8  T
  11   -603.6148529 -0.588470E-06  0.127E-03    1.36       4.1  T
  12   -603.6148530 -0.167840E-06  0.528E-04    1.36       9.7  T
  13   -603.6148531 -0.202994E-07  0.265E-04    1.36      19.4  T
  14   -603.6148531 -0.503189E-08  0.114E-04    1.36      44.9  T
  15   -603.6148531 -0.151954E-08  0.458E-05    1.36     112.1  T
  16   -603.6148531 -0.202590E-09  0.213E-05    1.36     240.6  T

   *** convergence criteria satisfied after 16 iterations ***

         #    Occupation            Energy/Eh            Energy/eV
      -------------------------------------------------------------
         1        2.0000           -0.7411284             -20.1671
       ...           ...                  ...                  ...
       519        2.0000           -0.3702487             -10.0750
       520        2.0000           -0.3695748             -10.0566
       521        2.0000           -0.3657503              -9.9526
       522        2.0000           -0.3641848              -9.9100
       523        2.0000           -0.3637970              -9.8994
       524        2.0000           -0.3594178              -9.7803
       525        2.0000           -0.3471191              -9.4456 (HOMO)
       526        0.0000           -0.2969693              -8.0809 (LUMO)
       527                         -0.2951451              -8.0313
       528                         -0.2948205              -8.0225
       529                         -0.2927679              -7.9666
       530                         -0.2874330              -7.8215
       ...                                ...                  ...
       946                          0.7159394              19.4817
      -------------------------------------------------------------
                  HL-Gap            0.0501498 Eh            1.3646 eV
             Fermi-level           -0.3224385 Eh           -8.7740 eV

 SCC (total)                   0 d,  0 h,  0 min, 12.280 sec
 SCC setup                      ...        0 min,  0.112 sec (  0.916%)
 Dispersion                     ...        0 min,  0.052 sec (  0.421%)
 integral evaluation            ...        0 min,  0.327 sec (  2.663%)
 zeroth order Hamiltonian       ...        0 min,  0.016 sec (  0.130%)
 iterations                     ...        0 min,  9.811 sec ( 79.895%)
 molecular gradient             ...        0 min,  1.932 sec ( 15.732%)
 printout                       ...        0 min,  0.030 sec (  0.243%)

         :::::::::::::::::::::::::::::::::::::::::::::::::::::
         ::                     SUMMARY                     ::
         :::::::::::::::::::::::::::::::::::::::::::::::::::::
         :: total energy             -596.284157389032 Eh   ::
         :: total w/o Gsasa/hb       -596.206158934032 Eh   ::
         :: gradient norm               0.507966854006 Eh/α ::
         :: HOMO-LUMO gap               1.364645056690 eV   ::
         ::.................................................::
         :: SCC energy               -603.631286407175 Eh   ::
         :: -> isotropic ES             1.946021277595 Eh   ::
         :: -> anisotropic ES          -0.059313235087 Eh   ::
         :: -> anisotropic XC           0.176133749584 Eh   ::
         :: -> dispersion              -0.485848594843 Eh   ::
         :: -> Gsolv                   -0.513266526104 Eh   ::
         ::    -> Gborn                -0.435268071104 Eh   ::
         ::    -> Gsasa                -0.018290781484 Eh   ::
         ::    -> Ghb                  -0.061565116643 Eh   ::
         ::    -> Gshift                0.001857443127 Eh   ::
         :: repulsion energy            7.307640103709 Eh   ::
         :: add. restraining            0.000000000000 Eh   ::
         :::::::::::::::::::::::::::::::::::::::::::::::::::::

           -------------------------------------------------
          |                Property Printout                |
           -------------------------------------------------

    * Orbital Energies and Occupations

         #    Occupation            Energy/Eh            Energy/eV
      -------------------------------------------------------------
         1        2.0000           -0.7411284             -20.1671
       ...           ...                  ...                  ...
       513        2.0000           -0.3813837             -10.3780
       514        2.0000           -0.3778177             -10.2809
       515        2.0000           -0.3752498             -10.2111
       516        2.0000           -0.3741596             -10.1814
       517        2.0000           -0.3726716             -10.1409
       518        2.0000           -0.3714478             -10.1076
       519        2.0000           -0.3702487             -10.0750
       520        2.0000           -0.3695748             -10.0566
       521        2.0000           -0.3657503              -9.9526
       522        2.0000           -0.3641848              -9.9100
       523        2.0000           -0.3637970              -9.8994
       524        2.0000           -0.3594178              -9.7803
       525        2.0000           -0.3471191              -9.4456 (HOMO)
       526        0.0000           -0.2969693              -8.0809 (LUMO)
       527                         -0.2951451              -8.0313
       528                         -0.2948205              -8.0225
       529                         -0.2927679              -7.9666
       530                         -0.2874330              -7.8215
       531                         -0.2433681              -6.6224
       532                         -0.2428019              -6.6070
       533                         -0.2400308              -6.5316
       534                         -0.2364190              -6.4333
       535                         -0.2363877              -6.4324
       536                         -0.2359176              -6.4196
       ...                                ...                  ...
       946                          0.7159394              19.4817
      -------------------------------------------------------------
                  HL-Gap            0.0501498 Eh            1.3646 eV
             Fermi-level           -0.3224385 Eh           -8.7740 eV

   #   Z        covCN         q      C6AA      α(0)
   1   7 N      2.634    -0.395    30.231     8.166
   2   6 C      3.782     0.015    20.347     6.426
   3   6 C      2.751     0.273    22.383     7.747
   4   8 O      0.858    -0.493    23.626     6.517
   5   6 C      3.675     0.079    19.482     6.325
   6   8 O      1.655    -0.474    22.332     6.379
   7   1 H      0.860     0.171     1.270     1.765
   8   1 H      0.924     0.048     2.351     2.398
   9   1 H      0.923     0.021     2.723     2.580
  10   1 H      0.924     0.047     2.356     2.400
  11   1 H      0.804     0.315     0.678     1.293
  12   7 N      2.689    -0.162    24.497     7.351
  13   6 C      3.740    -0.030    21.187     6.567
  14   6 C      2.754     0.270    22.437     7.757
  15   8 O      0.858    -0.479    23.333     6.476
  16   1 H      0.860     0.221     1.004     1.570
  17   1 H      0.924     0.108     1.712     2.046
  18   1 H      0.923     0.069     2.102     2.267
  19   7 N      2.687    -0.168    24.645     7.373
  20   6 C      3.794     0.014    20.348     6.424
  21   6 C      2.755     0.267    22.486     7.765
  22   8 O      0.858    -0.452    22.741     6.394
  23   6 C      3.756    -0.132    23.084     6.850
  24   1 H      0.860     0.202     1.094     1.638
  25   1 H      0.923     0.090     1.884     2.147
  26   1 H      0.925     0.088     1.897     2.154
  27   1 H      0.925     0.075     2.027     2.226
  28   1 H      0.925     0.062     2.172     2.305
  29   7 N      2.690    -0.172    24.724     7.385
  30   6 C      3.793     0.025    20.157     6.393
  31   6 C      2.769     0.197    23.798     7.989
  32   8 O      0.856    -0.360    20.895     6.129
  33   6 C      3.812    -0.059    21.632     6.620
  34   6 C      2.968     0.005    27.912     8.666
  35   6 C      2.930    -0.036    28.891     8.815
  36   6 C      2.932    -0.026    28.643     8.777
  37   6 C      2.918    -0.055    29.363     8.886
  38   6 C      2.917    -0.060    29.488     8.905
  39   6 C      2.852     0.151    24.721     8.149
  40   8 O      1.660    -0.409    21.017     6.189
  41   1 H      0.860     0.204     1.086     1.633
  42   1 H      0.924     0.108     1.710     2.045
  43   1 H      0.924     0.057     2.234     2.337
  44   1 H      0.924     0.054     2.266     2.354
  45   1 H      0.926     0.036     2.500     2.472
  46   1 H      0.926     0.024     2.670     2.555
  47   1 H      0.926     0.053     2.283     2.363
  48   1 H      0.926     0.024     2.678     2.559
  49   1 H      0.805     0.310     0.691     1.305
  50   7 N      2.635    -0.387    30.026     8.138
  51   6 C      3.783     0.044    19.858     6.348
  52   6 C      2.771     0.203    23.681     7.970
  53   8 O      0.856    -0.356    20.827     6.119
  54   6 C      3.809    -0.038    21.246     6.561
  55   6 C      3.797    -0.096    22.329     6.729
  56   6 C      2.683     0.368    20.752     7.455
  57   8 O      0.856    -0.638    27.068     6.975
  58   8 O      0.856    -0.651    27.401     7.018
  59   1 H      0.860     0.181     1.208     1.722
  60   1 H      0.924     0.041     2.438     2.442
  61   1 H      0.924     0.029     2.595     2.519
  62   1 H      0.924     0.030     2.583     2.513
  63   1 H      0.924     0.007     2.944     2.683
  64   1 H      0.924     0.014     2.831     2.631
  65   7 N      2.641    -0.388    30.027     8.138
  66   6 C      3.781     0.032    20.053     6.379
  67   6 C      2.771     0.204    23.672     7.968
  68   8 O      0.856    -0.372    21.136     6.164
  69   6 C      3.806    -0.073    21.897     6.662
  70   6 C      3.801    -0.087    22.164     6.703
  71   6 C      3.738    -0.021    21.026     6.543
  72   7 N      2.699    -0.142    24.065     7.286
  73   6 C      2.735     0.235    23.068     7.864
  74   7 N      2.653    -0.253    26.591     7.659
  75   7 N      2.650    -0.244    26.377     7.628
  76   1 H      0.860     0.161     1.331     1.807
  77   1 H      0.924     0.071     2.077     2.254
  78   1 H      0.924     0.060     2.203     2.321
  79   1 H      0.924     0.036     2.503     2.474
  80   1 H      0.925     0.063     2.168     2.302
  81   1 H      0.924     0.082     1.958     2.188
  82   1 H      0.924     0.069     2.092     2.262
  83   1 H      0.924     0.091     1.871     2.139
  84   1 H      0.860     0.210     1.055     1.609
  85   1 H      0.860     0.234     0.947     1.525
  86   1 H      0.858     0.267     0.820     1.418
  87   1 H      0.860     0.249     0.887     1.476
  88   1 H      0.860     0.260     0.844     1.439
  89   7 N      2.634    -0.387    30.007     8.136
  90   6 C      3.789     0.022    20.224     6.405
  91   6 C      2.759     0.273    22.392     7.749
  92   8 O      0.859    -0.489    23.533     6.504
  93   6 C      3.851    -0.018    20.853     6.495
  94   6 C      3.756    -0.111    22.678     6.790
  95   6 C      3.756    -0.107    22.594     6.777
  96   1 H      0.860     0.151     1.392     1.848
  97   1 H      0.924     0.063     2.169     2.303
  98   1 H      0.924     0.023     2.681     2.561
  99   1 H      0.925     0.036     2.499     2.472
 100   1 H      0.925     0.028     2.608     2.526
 101   1 H      0.925     0.045     2.381     2.413
 102   1 H      0.925     0.027     2.628     2.535
 103   1 H      0.925     0.043     2.413     2.429
 104   1 H      0.925     0.054     2.267     2.355
 105   7 N      2.690    -0.168    24.627     7.370
 106   6 C      3.796     0.024    20.177     6.396
 107   6 C      2.767     0.201    23.730     7.978
 108   8 O      0.856    -0.357    20.839     6.120
 109   6 C      3.808    -0.068    21.801     6.647
 110   6 C      2.967    -0.006    28.175     8.707
 111   6 C      2.925    -0.041    29.007     8.832
 112   6 C      2.925    -0.046    29.139     8.852
 113   6 C      2.918    -0.069    29.730     8.941
 114   6 C      2.918    -0.063    29.562     8.916
 115   6 C      2.846     0.149    24.752     8.154
 116   8 O      1.656    -0.449    21.820     6.306
 117   1 H      0.860     0.206     1.074     1.623
 118   1 H      0.924     0.093     1.850     2.127
 119   1 H      0.924     0.073     2.051     2.240
 120   1 H      0.924     0.059     2.214     2.327
 121   1 H      0.926     0.034     2.534     2.489
 122   1 H      0.925     0.057     2.233     2.337
 123   1 H      0.926     0.030     2.583     2.513
 124   1 H      0.926     0.047     2.360     2.403
 125   1 H      0.801     0.326     0.648     1.265
 126   7 N      2.641    -0.394    30.196     8.161
 127   6 C      3.794     0.030    20.081     6.381
 128   6 C      2.761     0.283    22.207     7.717
 129   8 O      0.858    -0.492    23.608     6.514
 130   6 C      3.852    -0.020    20.901     6.502
 131   6 C      3.803    -0.043    21.345     6.577
 132   6 C      3.756    -0.106    22.573     6.774
 133   6 C      3.752    -0.103    22.526     6.768
 134   1 H      0.860     0.166     1.298     1.785
 135   1 H      0.924     0.035     2.512     2.478
 136   1 H      0.924     0.039     2.463     2.454
 137   1 H      0.924     0.013     2.837     2.634
 138   1 H      0.924     0.017     2.774     2.605
 139   1 H      0.925     0.053     2.286     2.364
 140   1 H      0.925     0.026     2.639     2.540
 141   1 H      0.925     0.029     2.599     2.521
 142   1 H      0.925     0.033     2.544     2.494
 143   1 H      0.925     0.047     2.359     2.402
 144   1 H      0.925     0.043     2.405     2.425
 145   7 N      2.693    -0.175    24.796     7.396
 146   6 C      3.799     0.022    20.200     6.399
 147   6 C      2.758     0.271    22.425     7.755
 148   8 O      0.858    -0.477    23.273     6.468
 149   6 C      3.676     0.090    19.306     6.295
 150   8 O      1.656    -0.480    22.465     6.398
 151   1 H      0.860     0.208     1.064     1.616
 152   1 H      0.924     0.079     1.989     2.205
 153   1 H      0.924     0.028     2.609     2.526
 154   1 H      0.923     0.027     2.623     2.533
 155   1 H      0.805     0.359     0.568     1.184
 156   7 N      2.693    -0.169    24.646     7.373
 157   6 C      3.799     0.015    20.320     6.418
 158   6 C      2.757     0.267    22.490     7.766
 159   8 O      0.858    -0.487    23.498     6.499
 160   6 C      3.851    -0.014    20.792     6.486
 161   6 C      3.802    -0.061    21.667     6.627
 162   6 C      3.756    -0.106    22.576     6.775
 163   6 C      3.751    -0.115    22.768     6.805
 164   1 H      0.860     0.203     1.090     1.635
 165   1 H      0.924     0.078     1.999     2.211
 166   1 H      0.924     0.038     2.475     2.460
 167   1 H      0.924     0.029     2.596     2.520
 168   1 H      0.924     0.047     2.352     2.398
 169   1 H      0.925     0.062     2.176     2.307
 170   1 H      0.925     0.033     2.537     2.491
 171   1 H      0.925     0.029     2.603     2.523
 172   1 H      0.925     0.045     2.379     2.412
 173   1 H      0.925     0.052     2.297     2.370
 174   1 H      0.925     0.042     2.421     2.433
 175   7 N      2.692    -0.171    24.700     7.381
 176   6 C      3.797     0.018    20.283     6.413
 177   6 C      2.759     0.273    22.386     7.748
 178   8 O      0.858    -0.490    23.558     6.507
 179   6 C      3.805    -0.074    21.902     6.663
 180   6 C      3.052    -0.039    28.924     8.820
 181   6 C      3.045    -0.015    28.349     8.733
 182   6 C      3.114    -0.019    28.320     8.718
 183   7 N      2.773    -0.099    23.174     7.150
 184   6 C      3.100     0.045    26.866     8.494
 185   6 C      2.911    -0.032    28.799     8.800
 186   6 C      2.908    -0.058    29.439     8.897
 187   6 C      2.920    -0.041    29.009     8.832
 188   6 C      2.924    -0.045    29.118     8.849
 189   1 H      0.860     0.219     1.016     1.579
 190   1 H      0.924     0.090     1.882     2.145
 191   1 H      0.925     0.065     2.147     2.291
 192   1 H      0.925     0.058     2.217     2.328
 193   1 H      0.926     0.056     2.251     2.346
 194   1 H      0.860     0.209     1.059     1.612
 195   1 H      0.926     0.001     3.040     2.727
 196   1 H      0.926     0.046     2.370     2.408
 197   1 H      0.925    -0.004     3.133     2.768
 198   1 H      0.926     0.030     2.588     2.516
 199   7 N      2.687    -0.155    24.359     7.330
 200   6 C      3.749    -0.037    21.306     6.583
 201   6 C      2.754     0.279    22.272     7.728
 202   8 O      0.858    -0.472    23.169     6.453
 203   1 H      0.860     0.217     1.023     1.584
 204   1 H      0.924     0.097     1.809     2.103
 205   1 H      0.924     0.104     1.752     2.070
 206   7 N      2.694    -0.164    24.552     7.359
 207   6 C      3.797     0.009    20.429     6.436
 208   6 C      2.752     0.275    22.352     7.742
 209   8 O      0.858    -0.494    23.650     6.520
 210   6 C      3.724     0.103    18.991     6.223
 211   8 O      1.654    -0.491    22.694     6.431
 212   6 C      3.753    -0.146    23.384     6.896
 213   1 H      0.860     0.203     1.091     1.636
 214   1 H      0.924     0.087     1.912     2.162
 215   1 H      0.923     0.046     2.364     2.405
 216   1 H      0.805     0.349     0.589     1.206
 217   1 H      0.925     0.080     1.974     2.197
 218   1 H      0.925     0.067     2.117     2.276
 219   1 H      0.925     0.071     2.079     2.255
 220   7 N      2.690    -0.182    24.945     7.418
 221   6 C      3.794     0.029    20.090     6.383
 222   6 C      2.760     0.281    22.245     7.724
 223   8 O      0.859    -0.498    23.731     6.531
 224   6 C      3.731     0.115    18.785     6.187
 225   8 O      1.656    -0.474    22.347     6.381
 226   6 C      3.752    -0.131    23.082     6.851
 227   1 H      0.860     0.232     0.958     1.533
 228   1 H      0.924     0.050     2.317     2.380
 229   1 H      0.923     0.029     2.598     2.521
 230   1 H      0.805     0.354     0.578     1.194
 231   1 H      0.925     0.075     2.032     2.229
 232   1 H      0.925     0.037     2.493     2.469
 233   1 H      0.925     0.064     2.155     2.296
 234   7 N      2.687    -0.180    24.902     7.411
 235   6 C      3.801     0.020    20.245     6.406
 236   6 C      2.757     0.273    22.393     7.749
 237   8 O      0.859    -0.482    23.381     6.483
 238   6 C      3.808    -0.075    21.927     6.666
 239   6 C      3.849    -0.014    20.784     6.485
 240   6 C      3.756    -0.118    22.818     6.811
 241   6 C      3.756    -0.121    22.883     6.821
 242   1 H      0.860     0.214     1.039     1.597
 243   1 H      0.924     0.092     1.863     2.135
 244   1 H      0.924     0.057     2.233     2.337
 245   1 H      0.924     0.053     2.282     2.362
 246   1 H      0.924     0.054     2.273     2.358
 247   1 H      0.925     0.054     2.276     2.359
 248   1 H      0.925     0.041     2.431     2.438
 249   1 H      0.925     0.035     2.518     2.481
 250   1 H      0.925     0.052     2.297     2.370
 251   1 H      0.925     0.033     2.545     2.495
 252   1 H      0.925     0.049     2.330     2.387
 253   7 N      2.691    -0.176    24.818     7.399
 254   6 C      3.798     0.025    20.163     6.394
 255   6 C      2.763     0.252    22.767     7.814
 256   8 O      0.859    -0.508    23.952     6.562
 257   6 C      3.811    -0.071    21.848     6.653
 258   6 C      2.970    -0.002    28.070     8.690
 259   6 C      2.925    -0.045    29.117     8.849
 260   6 C      2.926    -0.039    28.968     8.826
 261   6 C      2.917    -0.063    29.557     8.915
 262   6 C      2.916    -0.076    29.886     8.965
 263   6 C      2.847     0.145    24.851     8.170
 264   8 O      1.660    -0.428    21.396     6.244
 265   1 H      0.860     0.194     1.138     1.671
 266   1 H      0.924     0.074     2.041     2.234
 267   1 H      0.924     0.061     2.190     2.314
 268   1 H      0.924     0.053     2.288     2.366
 269   1 H      0.926     0.048     2.350     2.397
 270   1 H      0.926     0.035     2.518     2.481
 271   1 H      0.926     0.063     2.165     2.301
 272   1 H      0.925     0.045     2.382     2.414
 273   1 H      0.805     0.350     0.588     1.205
 274   7 N      2.765    -0.078    22.764     7.086
 275   6 C      3.835     0.027    20.090     6.377
 276   6 C      2.759     0.274    22.370     7.745
 277   8 O      0.859    -0.485    23.445     6.492
 278   6 C      3.830    -0.061    21.645     6.620
 279   6 C      3.833    -0.060    21.631     6.617
 280   6 C      3.775    -0.011    20.803     6.499
 281   1 H      0.924     0.044     2.399     2.422
 282   1 H      0.924     0.061     2.192     2.315
 283   1 H      0.925     0.045     2.378     2.412
 284   1 H      0.925     0.072     2.059     2.244
 285   1 H      0.924     0.046     2.370     2.408
 286   1 H      0.924     0.079     1.985     2.204
 287   1 H      0.925     0.079     1.990     2.206
 288   7 N      2.698    -0.177    24.839     7.402
 289   6 C      3.797     0.021    20.224     6.403
 290   6 C      2.761     0.271    22.416     7.753
 291   8 O      0.858    -0.478    23.314     6.474
 292   6 C      3.806    -0.064    21.732     6.636
 293   6 C      3.806    -0.094    22.290     6.721
 294   6 C      2.743     0.290    22.088     7.695
 295   8 O      0.859    -0.485    23.456     6.493
 296   7 N      2.639    -0.286    27.373     7.770
 297   1 H      0.860     0.226     0.982     1.552
 298   1 H      0.924     0.068     2.110     2.272
 299   1 H      0.925     0.066     2.133     2.284
 300   1 H      0.924     0.051     2.307     2.375
 301   1 H      0.924     0.064     2.156     2.296
 302   1 H      0.925     0.069     2.095     2.263
 303   1 H      0.860     0.212     1.046     1.602
 304   1 H      0.860     0.237     0.936     1.515
 305   7 N      2.692    -0.167    24.605     7.367
 306   6 C      3.799     0.017    20.288     6.413
 307   6 C      2.759     0.273    22.378     7.747
 308   8 O      0.858    -0.493    23.635     6.518
 309   6 C      3.854    -0.015    20.807     6.488
 310   6 C      3.756    -0.110    22.661     6.787
 311   6 C      3.756    -0.116    22.770     6.804
 312   1 H      0.860     0.215     1.033     1.592
 313   1 H      0.924     0.069     2.096     2.264
 314   1 H      0.924     0.050     2.317     2.381
 315   1 H      0.925     0.061     2.186     2.312
 316   1 H      0.925     0.018     2.763     2.600
 317   1 H      0.925     0.043     2.415     2.430
 318   1 H      0.925     0.062     2.176     2.307
 319   1 H      0.925     0.046     2.375     2.410
 320   1 H      0.925     0.043     2.403     2.424
 321   7 N      2.693    -0.174    24.772     7.392
 322   6 C      3.798     0.023    20.191     6.398
 323   6 C      2.754     0.276    22.337     7.739
 324   8 O      0.858    -0.481    23.378     6.483
 325   6 C      3.803    -0.054    21.536     6.607
 326   6 C      3.798    -0.083    22.079     6.690
 327   6 C      2.683     0.365    20.811     7.465
 328   8 O      0.856    -0.611    26.403     6.889
 329   8 O      0.856    -0.643    27.204     6.993
 330   1 H      0.860     0.222     1.002     1.568
 331   1 H      0.924     0.066     2.132     2.283
 332   1 H      0.924     0.056     2.247     2.344
 333   1 H      0.924     0.044     2.402     2.424
 334   1 H      0.924     0.006     2.962     2.692
 335   1 H      0.924     0.018     2.770     2.603
 336   7 N      2.697    -0.186    25.022     7.429
 337   6 C      3.792     0.040    19.919     6.356
 338   6 C      2.758     0.275    22.347     7.741
 339   8 O      0.858    -0.473    23.204     6.458
 340   6 C      3.807    -0.091    22.223     6.711
 341   6 C      2.686     0.374    20.666     7.440
 342   8 O      0.856    -0.618    26.567     6.911
 343   8 O      0.857    -0.635    26.996     6.966
 344   1 H      0.860     0.208     1.066     1.617
 345   1 H      0.924     0.046     2.366     2.405
 346   1 H      0.924     0.034     2.533     2.489
 347   1 H      0.924     0.050     2.315     2.380
 348   7 N      2.695    -0.159    24.431     7.341
 349   6 C      3.794     0.025    20.168     6.395
 350   6 C      2.770     0.204    23.672     7.968
 351   8 O      0.856    -0.354    20.790     6.113
 352   6 C      3.806    -0.078    21.990     6.676
 353   6 C      3.805    -0.070    21.845     6.654
 354   6 C      3.803    -0.091    22.224     6.711
 355   6 C      3.732    -0.050    21.564     6.628
 356   7 N      3.483    -0.148    24.201     7.307
 357   1 H      0.860     0.203     1.090     1.636
 358   1 H      0.924     0.094     1.843     2.123
 359   1 H      0.924     0.071     2.080     2.255
 360   1 H      0.924     0.085     1.933     2.174
 361   1 H      0.924     0.058     2.220     2.330
 362   1 H      0.924     0.041     2.439     2.442
 363   1 H      0.924     0.072     2.061     2.245
 364   1 H      0.924     0.088     1.903     2.157
 365   1 H      0.924     0.114     1.663     2.017
 366   1 H      0.924     0.117     1.636     2.000
 367   1 H      0.859     0.301     0.711     1.321
 368   1 H      0.859     0.294     0.731     1.339
 369   1 H      0.859     0.308     0.689     1.301
 370   1 H      0.862     0.187     1.176     1.698
 371   1 H      0.930     0.086     1.916     2.164
 372   1 H      0.862     0.175     1.240     1.744
 373   1 H      0.930     0.061     2.183     2.310
 374   1 H      0.862     0.192     1.148     1.679
 375   1 H      0.930     0.075     2.031     2.228
 376   1 H      0.862     0.186     1.183     1.703
 377   1 H      0.930     0.081     1.971     2.195
 378   1 H      0.862     0.177     1.231     1.738
 379   1 H      0.930     0.076     2.016     2.220

 Mol. C6AA /au·bohr⁶  :    1381703.063377
 Mol. C8AA /au·bohr⁸  :   30967432.431257
 Mol. α(0) /au        :       1767.808561


Wiberg/Mayer (AO) data.
largest (>0.10) Wiberg bond orders for each atom
          total WBO             WBO to atom ...
     1  N   2.991        C    2 1.016    H  370 0.950    H    7 0.940
     2  C   3.987        N    1 1.016    C    5 0.967    H    8 0.958    C    3 0.939
     3  C   3.943        O    4 1.610    N   12 1.325    C    2 0.939
     4  O   1.958        C    3 1.610    N   12 0.197
     5  C   3.960        O    6 1.010    H   10 0.971    H    9 0.968    C    2 0.967
     6  O   1.945        C    5 1.010    H   11 0.863
     7  H   0.971        N    1 0.940
     8  H   0.998        C    2 0.958
     9  H   1.000        C    5 0.968
    10  H   0.997        C    5 0.971
    11  H   0.901        O    6 0.863
    12  N   3.486        C    3 1.325    C   13 0.997    H   16 0.911    O    4 0.197
    13  C   3.965        N   12 0.997    C   14 0.958    H   17 0.949    H   18 0.941
    14  C   3.955        O   15 1.628    N   19 1.303    C   13 0.958
    15  O   1.970        C   14 1.628    N   19 0.196
    16  H   0.951        N   12 0.911
    17  H   0.988        C   13 0.949
    18  H   0.995        C   13 0.941
    19  N   3.471        C   14 1.303    C   20 0.971    H   24 0.927    O   15 0.196
    20  C   3.954        C   23 1.004    N   19 0.971    H   25 0.939    C   21 0.928
    21  C   3.949        O   22 1.665    N   29 1.280    C   20 0.928
    22  O   1.987        C   21 1.665    N   29 0.198
    23  C   3.981        C   20 1.004    H   27 0.982    H   28 0.982    H   26 0.976
    24  H   0.959        N   19 0.927
    25  H   0.992        C   20 0.939
    26  H   0.992        C   23 0.976
    27  H   0.994        C   23 0.982
    28  H   0.996        C   23 0.982
    29  N   3.464        C   21 1.280    C   30 0.998    H   41 0.915    O   22 0.198
    30  C   3.971        N   29 0.998    C   31 0.990    C   33 0.933    H   42 0.931
    31  C   3.905        O   32 1.894    C   30 0.990    H  371 0.951
    32  O   2.054        C   31 1.894
    33  C   3.990        C   34 1.012    H   43 0.966    H   44 0.960    C   30 0.933
    34  C   3.988        C   36 1.412    C   35 1.399    C   33 1.012
    35  C   3.991        C   37 1.459    C   34 1.399    H   45 0.965    C   38 0.104
    36  C   3.992        C   38 1.448    C   34 1.412    H   46 0.968    C   37 0.106
    37  C   3.987        C   35 1.459    C   39 1.362    H   47 0.967    C   36 0.106
    38  C   3.988        C   36 1.448    C   39 1.377    H   48 0.966    C   35 0.104
    39  C   3.937        C   38 1.377    C   37 1.362    O   40 1.065
    40  O   2.106        C   39 1.065    H   49 0.880
    41  H   0.958        N   29 0.915
    42  H   0.988        C   30 0.931
    43  H   0.996        C   33 0.966
    44  H   0.997        C   33 0.960
    45  H   0.999        C   35 0.965
    46  H   0.999        C   36 0.968
    47  H   0.997        C   37 0.967
    48  H   0.999        C   38 0.966
    49  H   0.904        O   40 0.880
    50  N   2.993        C   51 1.020    H  372 0.955    H   59 0.929
    51  C   3.990        N   50 1.020    C   52 0.987    H   60 0.963    C   54 0.942
    52  C   3.904        O   53 1.892    C   51 0.987    H  373 0.956
    53  O   2.043        C   52 1.892
    54  C   3.995        C   55 1.001    H   62 0.976    H   61 0.971    C   51 0.942
    55  C   3.989        C   54 1.001    H   63 0.979    H   64 0.970    C   56 0.906
    56  C   3.935        O   57 1.519    O   58 1.489    C   55 0.906
    57  O   1.812        C   56 1.519    O   58 0.220
    58  O   1.781        C   56 1.489    O   57 0.220
    59  H   0.967        N   50 0.929
    60  H   0.998        C   51 0.963
    61  H   0.999        C   54 0.971
    62  H   0.999        C   54 0.976
    63  H   1.000        C   55 0.979
    64  H   1.000        C   55 0.970
    65  N   2.991        C   66 1.006    H   76 0.949    H  374 0.946
    66  C   3.982        N   65 1.006    C   67 0.983    H   77 0.962    C   69 0.955
    67  C   3.884        O   68 1.876    C   66 0.983    H  375 0.955
    68  O   2.058        C   67 1.876
    69  C   3.992        C   70 1.009    H   79 0.975    H   78 0.967    C   66 0.955
    70  C   3.990        C   69 1.009    C   71 0.993    H   80 0.973    H   81 0.971
    71  C   3.954        C   70 0.993    N   72 0.985    H   82 0.971    H   83 0.959
    72  N   3.469        C   73 1.303    C   71 0.985    H   84 0.925    N   74 0.101
    73  C   3.976        N   74 1.323    N   75 1.319    N   72 1.303
    74  N   3.396        C   73 1.323    H   85 0.924    H   86 0.907    N   75 0.102    N   72 0.101
    75  N   3.388        C   73 1.319    H   87 0.913    H   88 0.913    N   74 0.102
    76  H   0.974        N   65 0.949
    77  H   0.995        C   66 0.962
    78  H   0.996        C   69 0.967
    79  H   0.999        C   69 0.975
    80  H   0.995        C   70 0.973
    81  H   0.993        C   70 0.971
    82  H   0.995        C   71 0.971
    83  H   0.991        C   71 0.959
    84  H   0.956        N   72 0.925
    85  H   0.945        N   74 0.924
    86  H   0.928        N   74 0.907
    87  H   0.938        N   75 0.913
    88  H   0.932        N   75 0.913
    89  N   2.997        C   90 1.019    H   96 0.955    H  376 0.946
    90  C   3.983        N   89 1.019    H   97 0.957    C   93 0.956    C   91 0.946
    91  C   3.941        O   92 1.645    N  105 1.282    C   90 0.946
    92  O   1.956        C   91 1.645    N  105 0.193
    93  C   3.995        C   94 1.008    C   95 1.008    H   98 0.968    C   90 0.956
    94  C   3.995        C   93 1.008    H  101 0.986    H  100 0.985    H   99 0.984
    95  C   3.995        C   93 1.008    H  103 0.986    H  102 0.983    H  104 0.970
    96  H   0.977        N   89 0.955
    97  H   0.996        C   90 0.957
    98  H   0.999        C   93 0.968
    99  H   0.999        C   94 0.984
   100  H   0.999        C   94 0.985
   101  H   0.998        C   94 0.986
   102  H   0.998        C   95 0.983
   103  H   0.998        C   95 0.986
   104  H   0.997        C   95 0.970
   105  N   3.460        C   91 1.282    C  106 0.985    H  117 0.921    O   92 0.193
   106  C   3.967        N  105 0.985    C  107 0.984    H  118 0.944    C  109 0.939
   107  C   3.901        O  108 1.901    C  106 0.984    H  377 0.953
   108  O   2.047        C  107 1.901
   109  C   3.989        C  110 1.012    H  120 0.974    H  119 0.955    C  106 0.939
   110  C   3.986        C  111 1.412    C  112 1.392    C  109 1.012
   111  C   3.990        C  113 1.450    C  110 1.412    H  121 0.966    C  114 0.103
   112  C   3.989        C  114 1.467    C  110 1.392    H  122 0.964    C  113 0.105
   113  C   3.988        C  111 1.450    C  115 1.366    H  123 0.965    C  112 0.105
   114  C   3.986        C  112 1.467    C  115 1.350    H  124 0.968    C  111 0.103
   115  C   3.933        C  113 1.366    C  114 1.350    O  116 1.089
   116  O   2.098        C  115 1.089    H  125 0.809
   117  H   0.957        N  105 0.921
   118  H   0.991        C  106 0.944
   119  H   0.994        C  109 0.955
   120  H   0.996        C  109 0.974
   121  H   0.999        C  111 0.966
   122  H   0.997        C  112 0.964
   123  H   0.999        C  113 0.965
   124  H   0.997        C  114 0.968
   125  H   0.894        O  116 0.809
   126  N   2.993        C  127 1.010    H  134 0.955    H  378 0.946
   127  C   3.982        N  126 1.010    C  130 0.963    H  135 0.955    C  128 0.943
   128  C   3.940        O  129 1.635    N  145 1.293    C  127 0.943
   129  O   1.944        C  128 1.635    N  145 0.194
   130  C   3.994        C  132 1.009    C  131 0.995    H  136 0.966    C  127 0.963
   131  C   3.997        C  133 1.019    C  130 0.995    H  137 0.977    H  138 0.968
   132  C   3.997        C  130 1.009    H  141 0.987    H  140 0.984    H  139 0.982
   133  C   3.995        C  131 1.019    H  142 0.987    H  143 0.987    H  144 0.983
   134  H   0.972        N  126 0.955
   135  H   0.999        C  127 0.955
   136  H   0.998        C  130 0.966
   137  H   1.000        C  131 0.977
   138  H   1.000        C  131 0.968
   139  H   0.997        C  132 0.982
   140  H   0.999        C  132 0.984
   141  H   0.999        C  132 0.987
   142  H   0.998        C  133 0.987
   143  H   0.998        C  133 0.987
   144  H   0.998        C  133 0.983
   145  N   3.471        C  128 1.293    C  146 0.995    H  151 0.903    O  129 0.194
   146  C   3.972        N  145 0.995    C  149 0.965    H  152 0.948    C  147 0.935
   147  C   3.951        O  148 1.623    N  156 1.311    C  146 0.935
   148  O   1.976        C  147 1.623    N  156 0.199
   149  C   3.965        O  150 1.006    H  154 0.969    C  146 0.965    H  153 0.961
   150  O   1.920        C  149 1.006    H  155 0.858
   151  H   0.957        N  145 0.903
   152  H   0.993        C  146 0.948
   153  H   0.999        C  149 0.961
   154  H   0.999        C  149 0.969
   155  H   0.871        O  150 0.858
   156  N   3.482        C  147 1.311    C  157 0.973    H  164 0.923    O  148 0.199
   157  C   3.953        N  156 0.973    C  160 0.949    H  165 0.948    C  158 0.944
   158  C   3.952        O  159 1.608    N  175 1.324    C  157 0.944
   159  O   1.954        C  158 1.608    N  175 0.202
   160  C   3.987        C  162 1.008    C  161 0.997    H  166 0.964    C  157 0.949
   161  C   3.994        C  163 1.017    C  160 0.997    H  167 0.975    H  168 0.972
   162  C   3.995        C  160 1.008    H  171 0.986    H  169 0.981    H  170 0.979
   163  C   3.994        C  161 1.017    H  174 0.987    H  172 0.986    H  173 0.981
   164  H   0.958        N  156 0.923
   165  H   0.994        C  157 0.948
   166  H   0.998        C  160 0.964
   167  H   0.999        C  161 0.975
   168  H   0.998        C  161 0.972
   169  H   0.996        C  162 0.981
   170  H   0.999        C  162 0.979
   171  H   0.999        C  162 0.986
   172  H   0.998        C  163 0.986
   173  H   0.997        C  163 0.981
   174  H   0.998        C  163 0.987
   175  N   3.490        C  158 1.324    C  176 0.986    H  189 0.898    O  159 0.202
   176  C   3.958        N  175 0.986    C  177 0.950    C  179 0.946    H  190 0.930
   177  C   3.950        O  178 1.615    N  199 1.303    C  176 0.950
   178  O   1.966        C  177 1.615    N  199 0.192
   179  C   3.986        C  180 1.017    H  191 0.968    H  192 0.967    C  176 0.946
   180  C   3.974        C  181 1.568    C  182 1.210    C  179 1.017
   181  C   3.952        C  180 1.568    N  183 1.214    H  193 0.966
   182  C   3.985        C  185 1.329    C  184 1.241    C  180 1.210
   183  N   3.561        C  181 1.214    C  184 1.194    H  194 0.926
   184  C   3.966        C  186 1.333    C  182 1.241    N  183 1.194
   185  C   3.993        C  187 1.505    C  182 1.329    H  195 0.970    C  186 0.113
   186  C   3.988        C  188 1.493    C  184 1.333    H  196 0.967    C  185 0.113
   187  C   3.990        C  185 1.505    C  188 1.368    H  197 0.971
   188  C   3.990        C  186 1.493    C  187 1.368    H  198 0.972
   189  H   0.952        N  175 0.898
   190  H   0.991        C  176 0.930
   191  H   0.995        C  179 0.968
   192  H   0.996        C  179 0.967
   193  H   0.996        C  181 0.966
   194  H   0.955        N  183 0.926
   195  H   1.000        C  185 0.970
   196  H   0.997        C  186 0.967
   197  H   1.000        C  187 0.971
   198  H   0.999        C  188 0.972
   199  N   3.472        C  177 1.303    C  200 1.001    H  203 0.920    O  178 0.192
   200  C   3.962        N  199 1.001    C  201 0.960    H  205 0.942    H  204 0.942
   201  C   3.951        O  202 1.657    N  206 1.263    C  200 0.960
   202  O   1.975        C  201 1.657    N  206 0.184
   203  H   0.953        N  199 0.920
   204  H   0.990        C  200 0.942
   205  H   0.989        C  200 0.942
   206  N   3.436        C  201 1.263    C  207 0.991    H  213 0.927    O  202 0.184
   207  C   3.966        N  206 0.991    C  210 0.968    H  214 0.938    C  208 0.923
   208  C   3.945        O  209 1.653    N  220 1.285    C  207 0.923
   209  O   1.973        C  208 1.653    N  220 0.196
   210  C   3.951        C  212 1.002    O  211 0.981    C  207 0.968    H  215 0.953
   211  O   1.942        C  210 0.981    H  216 0.861
   212  C   3.984        C  210 1.002    H  219 0.982    H  218 0.981    H  217 0.980
   213  H   0.959        N  206 0.927
   214  H   0.992        C  207 0.938
   215  H   0.997        C  210 0.953
   216  H   0.878        O  211 0.861
   217  H   0.993        C  212 0.980
   218  H   0.995        C  212 0.981
   219  H   0.995        C  212 0.982
   220  N   3.461        C  208 1.285    C  221 0.993    H  227 0.903    O  209 0.196
   221  C   3.967        N  220 0.993    C  224 0.958    H  228 0.950    C  222 0.928
   222  C   3.951        O  223 1.639    N  234 1.301    C  221 0.928
   223  O   1.956        C  222 1.639    N  234 0.197
   224  C   3.960        C  226 1.000    O  225 0.997    H  229 0.960    C  221 0.958
   225  O   1.937        C  224 0.997    H  230 0.859
   226  C   3.988        C  224 1.000    H  233 0.982    H  231 0.980    H  232 0.976
   227  H   0.946        N  220 0.903
   228  H   0.997        C  221 0.950
   229  H   0.998        C  224 0.960
   230  H   0.874        O  225 0.859
   231  H   0.994        C  226 0.980
   232  H   0.999        C  226 0.976
   233  H   0.996        C  226 0.982
   234  N   3.465        C  222 1.301    C  235 0.978    H  242 0.898    O  223 0.197
   235  C   3.954        N  234 0.978    C  238 0.971    H  243 0.943    C  236 0.937
   236  C   3.944        O  237 1.640    N  253 1.283    C  235 0.937
   237  O   1.963        C  236 1.640    N  253 0.193
   238  C   3.984        C  239 0.991    C  235 0.971    H  244 0.969    H  245 0.968
   239  C   3.993        C  241 1.011    C  240 1.010    C  238 0.991    H  246 0.965
   240  C   3.995        C  239 1.010    H  248 0.986    H  247 0.985    H  249 0.982
   241  C   3.994        C  239 1.011    H  250 0.985    H  251 0.985    H  252 0.984
   242  H   0.954        N  234 0.898
   243  H   0.991        C  235 0.943
   244  H   0.997        C  238 0.969
   245  H   0.997        C  238 0.968
   246  H   0.997        C  239 0.965
   247  H   0.997        C  240 0.985
   248  H   0.998        C  240 0.986
   249  H   0.999        C  240 0.982
   250  H   0.997        C  241 0.985
   251  H   0.999        C  241 0.985
   252  H   0.998        C  241 0.984
   253  N   3.464        C  236 1.283    C  254 0.974    H  265 0.930    O  237 0.193
   254  C   3.961        N  253 0.974    C  257 0.966    H  266 0.952    C  255 0.933
   255  C   3.949        O  256 1.598    N  274 1.316    C  254 0.933
   256  O   1.927        C  255 1.598    N  274 0.199
   257  C   3.987        C  258 1.006    H  267 0.971    C  254 0.966    H  268 0.965
   258  C   3.986        C  259 1.408    C  260 1.407    C  257 1.006
   259  C   3.990        C  261 1.457    C  258 1.408    H  269 0.967    C  262 0.103
   260  C   3.992        C  262 1.454    C  258 1.407    H  270 0.969    C  261 0.109
   261  C   3.987        C  259 1.457    C  263 1.363    H  271 0.967    C  260 0.109
   262  C   3.987        C  260 1.454    C  263 1.368    H  272 0.965    C  259 0.103
   263  C   3.942        C  262 1.368    C  261 1.363    O  264 1.080
   264  O   2.098        C  263 1.080    H  273 0.857
   265  H   0.962        N  253 0.930
   266  H   0.994        C  254 0.952
   267  H   0.996        C  257 0.971
   268  H   0.996        C  257 0.965
   269  H   0.998        C  259 0.967
   270  H   0.999        C  260 0.969
   271  H   0.996        C  261 0.967
   272  H   0.998        C  262 0.965
   273  H   0.877        O  264 0.857
   274  N   3.541        C  255 1.316    C  280 0.973    C  275 0.967    O  256 0.199
   275  C   3.972        C  278 0.977    N  274 0.967    H  281 0.961    C  276 0.936
   276  C   3.952        O  277 1.626    N  288 1.309    C  275 0.936
   277  O   1.948        C  276 1.626    N  288 0.199
   278  C   3.990        C  279 1.002    H  283 0.979    C  275 0.977    H  282 0.976
   279  C   3.992        C  280 1.003    C  278 1.002    H  285 0.979    H  284 0.974
   280  C   3.957        C  279 1.003    N  274 0.973    H  287 0.962    H  286 0.961
   281  H   0.998        C  275 0.961
   282  H   0.996        C  278 0.976
   283  H   0.998        C  278 0.979
   284  H   0.994        C  279 0.974
   285  H   0.998        C  279 0.979
   286  H   0.994        C  280 0.961
   287  H   0.993        C  280 0.962
   288  N   3.484        C  276 1.309    C  289 0.975    H  297 0.895    O  277 0.199
   289  C   3.965        C  292 0.982    N  288 0.975    H  298 0.954    C  290 0.927
   290  C   3.945        O  291 1.625    N  305 1.307    C  289 0.927
   291  O   1.980        C  290 1.625    N  305 0.198
   292  C   3.987        C  293 0.988    C  289 0.982    H  300 0.969    H  299 0.966
   293  C   3.992        C  292 0.988    H  302 0.975    C  294 0.972    H  301 0.956
   294  C   3.948        O  295 1.648    N  296 1.302    C  293 0.972
   295  O   1.950        C  294 1.648    N  296 0.199
   296  N   3.393        C  294 1.302    H  303 0.935    H  304 0.923    O  295 0.199
   297  H   0.949        N  288 0.895
   298  H   0.995        C  289 0.954
   299  H   0.996        C  292 0.966
   300  H   0.997        C  292 0.969
   301  H   0.996        C  293 0.956
   302  H   0.995        C  293 0.975
   303  H   0.955        N  296 0.935
   304  H   0.944        N  296 0.923
   305  N   3.483        C  290 1.307    C  306 0.982    H  312 0.920    O  291 0.198
   306  C   3.962        N  305 0.982    C  309 0.953    H  313 0.952    C  307 0.936
   307  C   3.948        O  308 1.623    N  321 1.312    C  306 0.936
   308  O   1.941        C  307 1.623    N  321 0.200
   309  C   3.988        C  310 1.009    C  311 1.007    H  314 0.966    C  306 0.953
   310  C   3.993        C  309 1.009    H  316 0.986    H  317 0.984    H  315 0.977
   311  C   3.993        C  309 1.007    H  320 0.984    H  319 0.983    H  318 0.981
   312  H   0.953        N  305 0.920
   313  H   0.995        C  306 0.952
   314  H   0.997        C  309 0.966
   315  H   0.995        C  310 0.977
   316  H   1.000        C  310 0.986
   317  H   0.998        C  310 0.984
   318  H   0.996        C  311 0.981
   319  H   0.998        C  311 0.983
   320  H   0.998        C  311 0.984
   321  N   3.485        C  307 1.312    C  322 0.990    H  330 0.897    O  308 0.200
   322  C   3.967        N  321 0.990    H  331 0.954    C  325 0.954    C  323 0.942
   323  C   3.943        O  324 1.623    N  336 1.294    C  322 0.942
   324  O   1.973        C  323 1.623    N  336 0.193
   325  C   3.989        C  326 1.012    H  333 0.976    H  332 0.969    C  322 0.954
   326  C   3.980        C  325 1.012    H  334 0.977    H  335 0.952    C  327 0.905
   327  C   3.940        O  329 1.504    O  328 1.502    C  326 0.905
   328  O   1.810        C  327 1.502    O  329 0.219
   329  O   1.800        C  327 1.504    O  328 0.219
   330  H   0.951        N  321 0.897
   331  H   0.995        C  322 0.954
   332  H   0.996        C  325 0.969
   333  H   0.997        C  325 0.976
   334  H   1.000        C  326 0.977
   335  H   1.000        C  326 0.952
   336  N   3.463        C  323 1.294    C  337 0.964    H  344 0.925    O  324 0.193
   337  C   3.962        C  340 0.981    N  336 0.964    H  345 0.959    C  338 0.930
   338  C   3.955        O  339 1.647    N  348 1.303    C  337 0.930
   339  O   1.965        C  338 1.647    N  348 0.199
   340  C   3.984        C  337 0.981    H  346 0.972    H  347 0.958    C  341 0.928
   341  C   3.937        O  342 1.537    O  343 1.446    C  340 0.928
   342  O   1.829        C  341 1.537    O  343 0.213
   343  O   1.815        C  341 1.446    O  342 0.213
   344  H   0.957        N  336 0.925
   345  H   0.998        C  337 0.959
   346  H   0.998        C  340 0.972
   347  H   0.997        C  340 0.958
   348  N   3.484        C  338 1.303    C  349 0.955    H  357 0.925    O  339 0.199
   349  C   3.945        C  352 0.981    C  350 0.955    N  348 0.955    H  358 0.954
   350  C   3.894        O  351 1.914    C  349 0.955    H  379 0.954
   351  O   2.047        C  350 1.914
   352  C   3.980        C  353 1.005    C  349 0.981    H  359 0.971    H  360 0.966
   353  C   3.992        C  352 1.005    C  354 1.003    H  362 0.977    H  361 0.973
   354  C   3.986        C  355 1.011    C  353 1.003    H  363 0.973    H  364 0.968
   355  C   3.913        C  354 1.011    H  365 0.965    H  366 0.958    N  356 0.957
   356  N   3.665        C  355 0.957    H  368 0.899    H  367 0.897    H  369 0.891
   357  H   0.959        N  348 0.925
   358  H   0.991        C  349 0.954
   359  H   0.995        C  352 0.971
   360  H   0.992        C  352 0.966
   361  H   0.997        C  353 0.973
   362  H   0.998        C  353 0.977
   363  H   0.995        C  354 0.973
   364  H   0.992        C  354 0.968
   365  H   0.987        C  355 0.965
   366  H   0.986        C  355 0.958
   367  H   0.909        N  356 0.897
   368  H   0.913        N  356 0.899
   369  H   0.905        N  356 0.891
   370  H   0.965        N    1 0.950
   371  H   0.992        C   31 0.951
   372  H   0.969        N   50 0.955
   373  H   0.996        C   52 0.956
   374  H   0.963        N   65 0.946
   375  H   0.994        C   67 0.955
   376  H   0.965        N   89 0.946
   377  H   0.993        C  107 0.953
   378  H   0.968        N  126 0.946
   379  H   0.994        C  350 0.954
 
molecular dipole:
                 x           y           z       tot (Debye)
 q only:      -84.499     -84.133    -121.613
   full:      -85.001     -83.738    -121.752     433.306
molecular quadrupole (traceless):
                xx          xy          yy          xz          yz          zz
 q only:     3762.183  -10969.442    4092.639  -15081.254  -16135.862   -7854.823
  q+dip:     3641.667  -10955.720    4214.756  -15216.443  -16042.208   -7856.423
   full:     3649.913  -10957.831    4210.067  -15215.617  -16043.972   -7859.979


           -------------------------------------------------
          | TOTAL ENERGY             -596.284157389032 Eh   |
          | GRADIENT NORM               0.507966854006 Eh/α |
          | HOMO-LUMO GAP               1.364645056690 eV   |
           -------------------------------------------------

------------------------------------------------------------------------
 * finished run on 2019/05/31 at 06:33:38.829     
------------------------------------------------------------------------
 total:
 * wall-time:     0 d,  0 h,  0 min, 12.682 sec
 *  cpu-time:     0 d,  0 h,  0 min, 24.661 sec
 * ratio c/w:     1.945 speedup
 SCF:
 * wall-time:     0 d,  0 h,  0 min, 12.282 sec
 *  cpu-time:     0 d,  0 h,  0 min, 24.021 sec
 * ratio c/w:     1.956 speedup

