      -----------------------------------------------------------      
     |                   =====================                   |     
     |                           x T B                           |     
     |                   =====================                   |     
     |                         S. Grimme                         |     
     |          Mulliken Center for Theoretical Chemistry        |     
     |                    University of Bonn                     |     
     |                Version 6.1 RC1 (SAW190329)                |     
      -----------------------------------------------------------      

   This program is distributed in the hope that it will be useful,
   but WITHOUT ANY WARRANTY; without even the implied warranty of
   MERCHANTABILITY or FITNESS FOR A PARTICULAR PURPOSE.
   
   FOR NON-COMMERCIAL, ACADEMIA USE ONLY.
   
   Cite this work as:
   S. Grimme, C. Bannwarth, P. Shushkov, J. Comput. Theory Chem., 2017,
   13, 1989-2009. DOI: 10.1021/acs.jctc.7b00118
   C. Bannwarth, S. Ehlert and S. Grimme., J. Comput. Theory Chem., 2019,
   just accepted. DOI: 10.1021/acs.jctc.8b01176
   
   for sTDA-xTB:
   S. Grimme and C. Bannwarth, J. Chem. Phys., 2016, 145, 054103.
   DOI: 10.1063/1.4959605
   
   in the mass-spec context:
   V. Asgeirsson, C. Bauer and S. Grimme, Chem. Sci., 2017, 8, 4879.
   DOI: 10.1039/c7sc00601b
   
   for metadynamics refer to:
   S. Grimme, ChemRxiv, Preprint. DOI: 10.26434/chemrxiv.7660532.v1
   
   with help from (in alphabetical order)
   C. Bannwarth, F. Bohle, G. Brandenburg, E. Caldeweyher, M. Checinski,
   S. Dohm, S. Ehlert, S. Ehrlich, F. März, H. Neugebauer, J. Pisarek,
   P. Pracht, P. Shushkov, and S. Spicher.
   
 * started run on 2019/05/31 at 05:34:51.841     

           -------------------------------------------------
          |                Calculation Setup                |
           -------------------------------------------------

          program call               : /home/lum/install/xtb/xtb-190329/bin/xtb xtb_tmp.xyz --chrg 0 --grad --gfn 2 --etemp 500 --acc 0.1 --gbsa h2o --parallel 2
          hostname                   : cpu02
          coordinate file            : xtb_tmp.xyz
          omp threads                :                     2
          number of atoms            :                   583
          number of electrons        :                  1544
          charge                     :                     0
          spin                       :                   0.0
          first test random number   :      0.02469030073782


molecular fragmentation (1/2 indicates fragments):
111111111111111111111111111111111111111111111111111111111111111111111111
111111111111111111111111111111111111111111111111111111111111111111111111
111111111111111111111111111111111111111111111111111111111111111111111111
111111111111111111111111111111111111111111111111111111122222222222222222
222222222222222222222222222222222222222222222222222222222222222222222222
222222222222222222222222222222222222222222222222222222222222222222222222
222222222222222222222222222222222222222222222222222222222222222222222222
222222222222222222222222222222222222222222222222222221122222222222222222
2222222
# atoms in fragment 1/2:   273   310
 fragment masses (1/2) :     1986.10     1878.56
CMA distance (Bohr)    :   9.862
constraining FC (au)   :  0.0500

########################################################################
# WARNING! Please study the warnings concerning your input carefully
#  - XTBPATH is not set, using XTBHOME instead
#  - Process number higher than OMP_NUM_THREADS, I hope you know what you are doing.
########################################################################

           ------------------------------------------------- 
          |                 G F N 2 - x T B                 |
          | Geometry, Frequencies, Noncovalent interactions |
          |            JCTC 2018 parametrisation            |
           ------------------------------------------------- 
 
             k(s)              :                1.8500
             k(p)              :                2.2300
             k(d)              :                2.2300
             k(f)              :                2.0000
             kEN (H0ij)        :               -2.0000
             D4 a1             :                0.5200
             D4 a2             :                5.0000
             D4 s6             :                1.0000
             D4 s8             :                2.7000
             D4 s9             :                5.0000
             alphaj            :                2.0000

  Z AO/shell   Hii/eV     exponent
  1     Wed Apr 25 08:07:45 CEST 2018   EN: 2.200 GM2: 0.406  GM3: 0.0800  RAES: 1.40
     1s    -10.707211    1.230000
  6     Wed Apr 25 08:07:45 CEST 2018   EN: 2.550 GM2: 0.538  GM3: 0.1500  RAES: 3.00
     2s    -13.970922    2.096432
     2p    -10.063292    1.800000
  7     Wed Apr 25 08:07:45 CEST 2018   EN: 3.040 GM2: 0.461  GM3:-0.0640  RAES: 1.90
     2s    -16.686243    2.339881
     2p    -12.523956    2.014332
  8     Wed Apr 25 08:07:45 CEST 2018   EN: 3.440 GM2: 0.452  GM3:-0.0517  RAES: 1.80
     2s    -20.229985    2.439742
     2p    -15.503117    2.137023

 Solvent             : h2o
 Using internal parameter file: .param_gbsa2_h2o
 Gsolv ref. state (COSMO-RS): gsolv [1 M gas/solution]
 temperature (mdtemp)       :    298.150000000000     
 dielectric constant        :    80.2000000000000     
 rho                        :    1.00000000000000     
 mass                       :    18.0000000000000     
 surface tension            :    15.5689454083859     
 probe radius               :   0.975313790000000     
 vdW radii scaling          :    1.00000000000000     
 Gshift (Eh)                :   1.857443126794793E-003
 c1                         :    1.55243817000000     
 soset                      :   0.130326360000000     
 HB correction              :  T
 Number of grid points      :          230

            Z     q(EN)     CN     RAES       Cart. coordinates
     1  N   5.0   -0.71    3.00    1.93   248.91778   119.61512   258.39429
     2  C   4.0    0.07    3.98    3.59   249.04151   118.46017   255.91303
     3  C   4.0    0.28    3.01    3.02   248.59411   120.42912   253.84942
     4  O   6.0   -0.49    1.00    1.80   249.60254   120.17461   251.77783
     5  C   4.0   -0.20    3.98    3.59   247.19821   116.26426   255.64371
     6  H   1.0    0.25    1.00    1.43   247.92562   118.65236   259.74997
     7  H   1.0    0.12    0.99    1.43   250.97451   117.76580   255.60004
     8  H   1.0    0.11    0.99    1.43   247.74796   115.12293   254.02701
     9  H   1.0    0.11    0.99    1.43   247.27721   115.09935   257.33339
    10  H   1.0    0.12    0.99    1.43   245.28668   116.94911   255.33170
    11  N   5.0   -0.49    3.01    1.93   247.11617   122.37859   254.45590
    12  C   4.0    0.09    3.99    3.61   246.74839   124.50054   252.77018
    13  C   4.0    0.32    3.02    3.02   249.29149   125.80047   252.34031
    14  O   6.0   -0.42    1.00    1.80   250.08325   126.20803   250.20223
    15  C   4.0   -0.03    3.98    3.59   244.83783   126.35916   253.89528
    16  O   6.0   -0.48    1.99    1.82   244.60444   128.44015   252.24848
    17  H   1.0    0.24    1.00    1.43   245.88644   122.25045   255.93525
    18  H   1.0    0.13    0.99    1.43   246.08627   123.87931   250.90443
    19  H   1.0    0.10    0.99    1.43   243.03565   125.36447   254.11887
    20  H   1.0    0.11    0.99    1.43   245.52870   126.97725   255.75099
    21  H   1.0    0.25    0.99    1.43   243.15482   129.42235   252.76512
    22  N   5.0   -0.48    3.01    1.93   250.56103   126.43765   254.42343
    23  C   4.0    0.07    4.00    3.62   253.11758   127.40474   254.19929
    24  C   4.0    0.31    3.01    3.02   254.55430   125.75845   252.29030
    25  O   6.0   -0.43    1.00    1.80   255.59957   126.72867   250.46191
    26  C   4.0   -0.15    3.98    3.59   254.51057   127.47636   256.72364
    27  C   4.0   -0.16    3.98    3.59   253.27362   129.28313   258.61425
    28  C   4.0   -0.04    3.99    3.60   254.74174   129.31481   261.10108
    29  N   5.0   -0.48    3.02    1.93   253.22356   130.49270   263.06747
    30  C   4.0    0.37    3.00    3.02   253.85346   130.63449   265.49671
    31  N   5.0   -0.64    3.02    1.93   256.06211   129.74095   266.29988
    32  N   5.0   -0.65    3.02    1.93   252.23040   131.62148   267.14475
    33  H   1.0    0.23    1.00    1.43   249.87760   126.01154   256.16643
    34  H   1.0    0.13    0.99    1.43   253.05379   129.30717   253.36796
    35  H   1.0    0.12    0.99    1.43   254.55788   125.56318   257.48497
    36  H   1.0    0.13    0.99    1.43   256.45626   128.03779   256.32037
    37  H   1.0    0.11    0.99    1.43   253.20191   131.17600   257.80443
    38  H   1.0    0.11    0.99    1.43   251.34883   128.63499   258.96453
    39  H   1.0    0.12    0.99    1.43   255.18239   127.36174   261.62369
    40  H   1.0    0.12    0.99    1.43   256.51620   130.34359   260.83165
    41  H   1.0    0.23    1.00    1.43   251.53932   131.19250   262.50810
    42  H   1.0    0.26    1.00    1.43   257.36699   129.12974   265.05817
    43  H   1.0    0.26    1.00    1.43   256.58721   129.93541   268.11930
    44  H   1.0    0.26    1.00    1.43   250.52527   132.25184   266.58469
    45  H   1.0    0.26    1.00    1.43   252.66859   131.76827   268.99114
    46  N   5.0   -0.45    3.01    1.93   254.46189   123.27730   252.73806
    47  C   4.0    0.09    3.99    3.61   255.91737   121.49012   251.26083
    48  C   4.0    0.29    3.01    3.02   255.14860   121.56839   248.47068
    49  O   6.0   -0.47    1.00    1.80   256.72311   121.39502   246.76603
    50  C   4.0   -0.11    3.99    3.61   255.46393   118.78497   252.16565
    51  C   4.0    0.26    2.99    3.02   256.27664   118.26909   254.87996
    52  O   6.0   -0.39    1.00    1.80   257.25473   119.80611   256.28129
    53  N   5.0   -0.67    3.01    1.93   255.74414   115.89302   255.62947
    54  H   1.0    0.26    1.00    1.43   253.79782   122.66782   254.43475
    55  H   1.0    0.16    0.99    1.43   257.93188   121.99621   251.37492
    56  H   1.0    0.13    0.99    1.43   253.45254   118.36014   251.96154
    57  H   1.0    0.10    0.99    1.43   256.51445   117.51616   250.92313
    58  H   1.0    0.28    1.00    1.43   256.36489   115.30585   257.33186
    59  H   1.0    0.25    1.00    1.43   255.02087   114.62014   254.41572
    60  N   5.0   -0.47    3.01    1.93   252.67679   121.65094   248.04566
    61  C   4.0    0.07    4.00    3.62   251.62915   121.67405   245.51798
    62  C   4.0    0.30    3.01    3.02   252.59657   124.00842   244.12626
    63  O   6.0   -0.47    1.00    1.80   253.31108   123.90246   241.92118
    64  C   4.0   -0.21    3.99    3.59   248.75566   121.71166   245.63424
    65  H   1.0    0.32    1.00    1.43   251.42209   121.57920   249.50591
    66  H   1.0    0.12    0.99    1.43   252.29273   120.01292   244.46491
    67  H   1.0    0.10    0.99    1.43   247.99357   121.55550   243.73502
    68  H   1.0    0.11    0.99    1.43   248.08838   120.13304   246.76490
    69  H   1.0    0.14    0.99    1.43   248.11530   123.47863   246.46381
    70  N   5.0   -0.46    3.01    1.93   252.57937   126.09046   245.52528
    71  C   4.0    0.08    4.00    3.61   253.39077   128.53331   244.62824
    72  C   4.0    0.29    3.01    3.02   256.23509   128.50929   244.12887
    73  O   6.0   -0.46    1.00    1.80   257.11926   129.55741   242.24726
    74  C   4.0   -0.10    3.99    3.60   252.60677   130.53824   246.54279
    75  C   4.0    0.29    3.00    3.02   249.72293   130.52808   246.82540
    76  O   6.0   -0.42    1.00    1.80   248.33269   129.50754   245.30404
    77  N   5.0   -0.64    3.00    1.93   248.86462   131.79504   248.84073
    78  H   1.0    0.32    1.00    1.43   251.86392   126.02018   247.30238
    79  H   1.0    0.13    0.99    1.43   252.47066   128.91878   242.80733
    80  H   1.0    0.14    0.99    1.43   253.51043   130.11881   248.34697
    81  H   1.0    0.11    0.99    1.43   253.22346   132.39484   245.89279
    82  H   1.0    0.30    1.00    1.43   247.00176   131.71239   249.23310
    83  H   1.0    0.26    1.00    1.43   250.05081   132.57380   250.10129
    84  N   5.0   -0.46    3.01    1.93   257.62037   127.20949   245.76668
    85  C   4.0    0.09    4.00    3.62   260.27419   126.75884   245.30863
    86  C   4.0    0.30    3.02    3.02   260.51519   125.44965   242.76219
    87  O   6.0   -0.48    1.00    1.80   262.10240   126.10419   241.20531
    88  C   4.0   -0.10    3.98    3.59   261.43785   125.12754   247.36362
    89  C   4.0    0.32    2.99    3.02   261.49784   126.53271   249.97955
    90  O   6.0   -0.39    1.00    1.80   262.06027   128.81207   249.94276
    91  O   6.0   -0.38    1.00    1.80   261.02533   125.21073   251.86426
    92  H   1.0    0.32    1.00    1.43   256.89013   126.64063   247.44992
    93  H   1.0    0.14    0.99    1.43   261.30644   128.56122   245.22346
    94  H   1.0    0.14    0.99    1.43   260.40421   123.35914   247.56407
    95  H   1.0    0.10    0.99    1.43   263.39531   124.70824   246.85766
    96  N   5.0   -0.47    3.00    1.93   258.89102   123.56117   242.38416
    97  C   4.0    0.02    3.99    3.61   258.76619   122.15656   240.04635
    98  C   4.0    0.29    3.01    3.02   258.32990   123.89918   237.78015
    99  O   6.0   -0.46    1.00    1.80   259.73006   123.85957   235.93034
   100  H   1.0    0.31    1.00    1.43   257.80844   122.96650   243.85249
   101  H   1.0    0.10    0.99    1.43   260.52887   121.12284   239.71518
   102  H   1.0    0.11    0.99    1.43   257.18359   120.84601   240.18753
   103  N   5.0   -0.48    3.01    1.93   256.32521   125.39694   237.99185
   104  C   4.0    0.07    4.00    3.62   255.68300   127.24643   236.08033
   105  C   4.0    0.31    3.01    3.02   258.04702   128.78020   235.45674
   106  O   6.0   -0.47    1.00    1.80   258.71164   129.12781   233.26010
   107  C   4.0   -0.09    3.98    3.58   253.50947   128.96125   236.96952
   108  C   4.0   -0.16    3.98    3.59   251.03865   127.44426   237.04465
   109  C   4.0   -0.21    3.98    3.59   253.28443   131.27118   235.25175
   110  C   4.0   -0.22    3.98    3.58   248.85248   128.83380   238.30446
   111  H   1.0    0.30    1.00    1.43   255.16499   125.19564   239.51587
   112  H   1.0    0.11    0.99    1.43   255.12926   126.27356   234.32609
   113  H   1.0    0.14    0.99    1.43   253.98969   129.60619   238.87606
   114  H   1.0    0.10    0.99    1.43   250.50277   126.97617   235.10573
   115  H   1.0    0.13    0.99    1.43   251.36449   125.67586   238.05653
   116  H   1.0    0.11    0.99    1.43   251.74710   132.47083   235.88227
   117  H   1.0    0.14    0.99    1.43   255.01494   132.37913   235.29380
   118  H   1.0    0.12    0.99    1.43   252.92260   130.71589   233.30445
   119  H   1.0    0.11    0.99    1.43   247.17542   127.65251   238.24687
   120  H   1.0    0.13    0.99    1.43   249.26373   129.24578   240.27482
   121  H   1.0    0.11    0.99    1.43   248.43850   130.59077   237.33315
   122  N   5.0   -0.48    3.01    1.93   259.28181   129.67935   237.45152
   123  C   4.0    0.10    3.99    3.61   261.50968   131.23696   237.21481
   124  C   4.0    0.32    3.01    3.02   263.63035   129.81265   235.88125
   125  O   6.0   -0.45    1.00    1.80   264.78549   130.76648   234.10214
   126  C   4.0   -0.01    3.98    3.59   262.37772   132.11005   239.84000
   127  O   6.0   -0.49    1.99    1.82   264.48956   133.70751   239.59842
   128  H   1.0    0.31    1.00    1.43   258.57826   129.40484   239.21444
   129  H   1.0    0.16    0.99    1.43   261.06942   132.91331   236.06524
   130  H   1.0    0.12    0.99    1.43   260.77649   133.05126   240.74435
   131  H   1.0    0.14    0.99    1.43   262.89040   130.44666   240.97093
   132  H   1.0    0.26    0.99    1.43   264.24728   135.22277   240.57981
   133  N   5.0   -0.48    3.01    1.93   264.15451   127.51818   236.73988
   134  C   4.0    0.08    4.00    3.63   266.07631   125.98605   235.53447
   135  C   4.0    0.30    3.02    3.02   265.56350   126.04722   232.70191
   136  O   6.0   -0.48    1.00    1.80   267.20555   126.67416   231.17374
   137  C   4.0   -0.09    3.98    3.59   266.07128   123.25853   236.53579
   138  C   4.0   -0.15    3.98    3.59   267.13334   123.21279   239.22928
   139  C   4.0   -0.23    3.98    3.59   267.61668   121.56246   234.78139
   140  C   4.0   -0.24    3.98    3.58   266.75381   120.69791   240.57979
   141  H   1.0    0.31    1.00    1.43   263.22589   126.80278   238.25592
   142  H   1.0    0.12    0.99    1.43   267.94408   126.84006   235.85525
   143  H   1.0    0.14    0.99    1.43   264.10586   122.61543   236.56236
   144  H   1.0    0.11    0.99    1.43   269.14465   123.64893   239.15694
   145  H   1.0    0.14    0.99    1.43   266.21837   124.68891   240.33983
   146  H   1.0    0.09    0.99    1.43   267.66536   119.64987   235.51989
   147  H   1.0    0.11    0.99    1.43   266.79670   121.50607   232.89857
   148  H   1.0    0.10    0.99    1.43   269.54216   122.26065   234.62119
   149  H   1.0    0.10    0.99    1.43   267.42171   120.86026   242.51551
   150  H   1.0    0.10    0.99    1.43   264.75920   120.20318   240.63175
   151  H   1.0    0.09    0.99    1.43   267.78805   119.18263   239.66142
   152  N   5.0   -0.48    3.01    1.93   263.26393   125.30910   232.02169
   153  C   4.0    0.07    4.00    3.61   262.49701   125.30507   229.39227
   154  C   4.0    0.32    3.01    3.02   263.14997   127.85186   228.19452
   155  O   6.0   -0.46    1.00    1.80   264.60112   127.97575   226.38984
   156  C   4.0   -0.21    3.98    3.59   259.69744   124.73058   229.13390
   157  H   1.0    0.30    1.00    1.43   261.93826   124.91893   233.35135
   158  H   1.0    0.11    0.99    1.43   263.62707   123.88452   228.37676
   159  H   1.0    0.13    0.99    1.43   259.09575   125.05134   227.19478
   160  H   1.0    0.10    0.99    1.43   259.31431   122.78170   229.65158
   161  H   1.0    0.14    0.99    1.43   258.62052   125.97289   230.36212
   162  N   5.0   -0.47    3.01    1.93   262.10297   129.86503   229.26176
   163  C   4.0    0.08    4.00    3.61   262.38570   132.36098   228.18755
   164  C   4.0    0.30    3.01    3.02   265.15759   132.98699   227.67952
   165  O   6.0   -0.46    1.00    1.80   265.81225   133.97440   225.68249
   166  C   4.0   -0.13    3.99    3.60   261.29733   134.36538   229.95812
   167  C   4.0   -0.10    3.98    3.59   258.41439   134.30297   230.06624
   168  C   4.0    0.27    3.00    3.02   257.44280   135.92415   232.22527
   169  O   6.0   -0.41    1.00    1.80   258.47413   135.98959   234.29454
   170  N   5.0   -0.65    3.00    1.93   255.38921   137.30435   231.68687
   171  H   1.0    0.30    1.00    1.43   260.92885   129.66213   230.76431
   172  H   1.0    0.14    0.99    1.43   261.41146   132.42526   226.34908
   173  H   1.0    0.15    0.99    1.43   262.05097   134.04927   231.85218
   174  H   1.0    0.12    0.99    1.43   261.91610   136.22556   229.31616
   175  H   1.0    0.12    0.99    1.43   257.59976   134.91078   228.27787
   176  H   1.0    0.14    0.99    1.43   257.77306   132.37618   230.44044
   177  H   1.0    0.27    1.00    1.43   254.41444   137.01013   230.07991
   178  H   1.0    0.28    1.00    1.43   254.56358   138.30868   233.08034
   179  N   5.0   -0.48    3.01    1.93   266.75433   132.54436   229.57106
   180  C   4.0    0.09    4.00    3.61   269.39511   133.23064   229.37490
   181  C   4.0    0.31    3.01    3.02   270.70122   131.67566   227.31743
   182  O   6.0   -0.45    1.00    1.80   272.20809   132.63925   225.84364
   183  C   4.0    0.04    3.98    3.58   270.81769   132.89230   231.90858
   184  O   6.0   -0.48    1.99    1.82   271.01478   130.34342   232.62432
   185  C   4.0   -0.20    3.98    3.59   269.64552   134.51889   233.98890
   186  H   1.0    0.31    1.00    1.43   266.09440   131.76773   231.19271
   187  H   1.0    0.12    0.99    1.43   269.53344   135.22044   228.80471
   188  H   1.0    0.12    0.99    1.43   272.77434   133.49461   231.57689
   189  H   1.0    0.30    0.99    1.43   269.34107   129.60669   232.73104
   190  H   1.0    0.11    0.99    1.43   270.82720   134.42941   235.66476
   191  H   1.0    0.10    0.99    1.43   269.49816   136.46941   233.37573
   192  H   1.0    0.15    0.99    1.43   267.77735   133.82569   234.48707
   193  N   5.0   -0.46    3.01    1.93   270.11483   129.23111   227.31909
   194  C   4.0    0.09    4.00    3.62   271.17814   127.50357   225.48885
   195  C   4.0    0.29    3.01    3.02   270.43859   128.35354   222.83255
   196  O   6.0   -0.48    1.00    1.80   271.98487   128.43276   221.11130
   197  C   4.0    0.04    3.98    3.58   270.28118   124.77407   226.02158
   198  O   6.0   -0.51    1.99    1.83   270.94605   124.01127   228.47591
   199  C   4.0   -0.21    3.98    3.59   271.50484   122.93140   224.17623
   200  H   1.0    0.31    1.00    1.43   268.79732   128.56476   228.53466
   201  H   1.0    0.13    0.99    1.43   273.24773   127.57702   225.61687
   202  H   1.0    0.12    0.99    1.43   268.21107   124.75097   225.79824
   203  H   1.0    0.30    0.99    1.43   269.90510   124.90468   229.68845
   204  H   1.0    0.10    0.99    1.43   270.77875   121.04539   224.52710
   205  H   1.0    0.10    0.99    1.43   271.10695   123.47705   222.24075
   206  H   1.0    0.11    0.99    1.43   273.53395   122.91567   224.48441
   207  N   5.0   -0.49    3.01    1.93   268.01553   128.96840   222.56796
   208  C   4.0    0.07    3.99    3.61   266.96967   129.95743   220.24878
   209  C   4.0    0.30    3.02    3.02   268.33719   132.37716   219.47173
   210  O   6.0   -0.43    1.00    1.80   268.97309   132.72202   217.27371
   211  C   4.0   -0.13    3.99    3.60   264.15383   130.51410   220.57103
   212  C   4.0   -0.11    3.98    3.58   262.53155   128.15934   220.92539
   213  C   4.0    0.31    2.99    3.02   259.87794   128.91344   221.92591
   214  O   6.0   -0.41    1.00    1.80   258.94807   130.93026   221.16480
   215  O   6.0   -0.46    1.00    1.80   258.85324   127.41971   223.46221
   216  H   1.0    0.31    1.00    1.43   266.82696   128.85073   224.06230
   217  H   1.0    0.11    0.99    1.43   267.26715   128.58307   218.71979
   218  H   1.0    0.16    0.99    1.43   263.93019   131.72777   222.22516
   219  H   1.0    0.13    0.99    1.43   263.46714   131.56923   218.93985
   220  H   1.0    0.10    0.99    1.43   262.28392   127.14143   219.14773
   221  H   1.0    0.13    0.99    1.43   263.36247   126.88113   222.30549
   222  N   5.0   -0.46    3.00    1.93   268.77196   134.05564   221.30081
   223  C   4.0    0.03    4.00    3.62   270.06031   136.40456   220.73483
   224  C   4.0    0.29    3.01    3.02   272.64696   135.86147   219.56270
   225  O   6.0   -0.41    1.00    1.80   273.35620   136.86583   217.59664
   226  H   1.0    0.31    1.00    1.43   267.91557   133.88894   223.00996
   227  H   1.0    0.13    0.99    1.43   268.96644   137.53874   219.39485
   228  H   1.0    0.12    0.99    1.43   270.30855   137.45285   222.48822
   229  N   5.0   -0.47    3.01    1.93   274.02705   134.20040   220.84984
   230  C   4.0    0.08    3.99    3.61   276.50963   133.40378   219.99844
   231  C   4.0    0.30    3.01    3.02   276.33933   132.29518   217.33349
   232  O   6.0   -0.38    1.00    1.80   277.81635   132.93262   215.65733
   233  C   4.0   -0.21    3.99    3.60   277.56610   131.48914   221.86207
   234  H   1.0    0.30    1.00    1.43   273.39980   133.50889   222.52763
   235  H   1.0    0.14    0.99    1.43   277.75413   135.06113   219.87486
   236  H   1.0    0.10    0.99    1.43   279.45430   130.91331   221.30481
   237  H   1.0    0.12    0.99    1.43   277.66068   132.35556   223.72038
   238  H   1.0    0.13    0.99    1.43   276.33275   129.84773   221.94212
   239  N   5.0   -0.48    3.01    1.93   274.51535   130.60239   216.97680
   240  C   4.0    0.08    4.00    3.62   274.11440   129.46938   214.52352
   241  C   4.0    0.30    3.01    3.02   273.57649   131.48427   212.53764
   242  O   6.0   -0.38    1.00    1.80   274.36633   131.21780   210.36779
   243  C   4.0   -0.13    3.99    3.60   271.93471   127.57459   214.55431
   244  C   4.0   -0.10    3.98    3.58   272.51482   125.12314   215.98917
   245  C   4.0   -0.23    3.98    3.59   270.09776   123.55438   216.19408
   246  C   4.0   -0.23    3.98    3.59   274.56957   123.57539   214.68606
   247  H   1.0    0.30    1.00    1.43   273.37717   130.05323   218.42023
   248  H   1.0    0.13    0.99    1.43   275.86343   128.53361   213.91658
   249  H   1.0    0.13    0.99    1.43   270.30632   128.51392   215.40188
   250  H   1.0    0.12    0.99    1.43   271.46121   127.11203   212.59976
   251  H   1.0    0.13    0.99    1.43   273.14401   125.61083   217.89664
   252  H   1.0    0.09    0.99    1.43   270.45065   121.81461   217.22721
   253  H   1.0    0.10    0.99    1.43   268.62814   124.59560   217.18645
   254  H   1.0    0.10    0.99    1.43   269.39200   123.05655   214.32782
   255  H   1.0    0.10    0.99    1.43   274.80547   121.78249   215.65719
   256  H   1.0    0.11    0.99    1.43   274.04233   123.19467   212.73652
   257  H   1.0    0.10    0.99    1.43   276.37558   124.55016   214.70273
   258  N   5.0   -0.45    3.01    1.93   272.22216   133.46650   213.26414
   259  C   4.0    0.09    3.99    3.61   271.67386   135.52632   211.55035
   260  C   4.0    0.10    3.00    3.02   274.13289   136.82354   210.74989
   261  O   6.0   -0.37    1.00    1.80   274.48116   137.43256   208.52772
   262  C   4.0   -0.10    3.99    3.60   269.88993   137.42231   212.79112
   263  C   4.0    0.29    3.00    3.02   267.24686   136.33551   213.12973
   264  O   6.0   -0.43    1.00    1.80   266.58536   134.31475   212.22886
   265  N   5.0   -0.65    3.00    1.93   265.66227   137.82499   214.41152
   266  H   1.0    0.32    1.00    1.43   271.34641   133.46404   214.97103
   267  H   1.0    0.16    0.99    1.43   270.80699   134.76494   209.82333
   268  H   1.0    0.14    0.99    1.43   270.67324   137.96687   214.62069
   269  H   1.0    0.11    0.99    1.43   269.76309   139.10982   211.61088
   270  H   1.0    0.29    1.00    1.43   263.86825   137.25018   214.69959
   271  H   1.0    0.26    1.00    1.43   266.21801   139.49296   215.13364
   272  N   5.0   -0.70    3.01    1.93   278.22906   127.17306   238.90977
   273  C   4.0    0.07    3.98    3.59   276.18892   127.74550   240.63118
   274  C   4.0    0.08    3.01    3.02   276.98402   126.62107   243.16948
   275  O   6.0   -0.41    1.00    1.80   277.43224   124.36102   243.37744
   276  C   4.0   -0.13    3.99    3.60   273.66910   126.56517   239.79070
   277  C   4.0   -0.04    3.03    3.02   271.66081   127.13780   241.71813
   278  C   4.0   -0.09    3.03    3.02   270.23009   129.33080   241.54988
   279  C   4.0   -0.09    3.03    3.02   271.25594   125.51589   243.74496
   280  C   4.0   -0.09    3.03    3.02   268.42813   129.88547   243.36228
   281  C   4.0   -0.10    3.03    3.02   269.45200   126.06740   245.55534
   282  C   4.0   -0.09    3.03    3.02   268.02838   128.25671   245.37124
   283  H   1.0    0.27    1.00    1.43   278.81272   125.34403   238.85989
   284  H   1.0    0.11    0.99    1.43   276.02137   129.80219   240.73568
   285  H   1.0    0.10    0.99    1.43   273.16148   127.34041   237.94911
   286  H   1.0    0.11    0.99    1.43   273.94351   124.52817   239.62251
   287  H   1.0    0.12    0.99    1.43   270.50323   130.60696   239.98012
   288  H   1.0    0.13    1.00    1.43   272.34691   123.79769   243.89274
   289  H   1.0    0.13    1.00    1.43   267.32600   131.59225   243.19665
   290  H   1.0    0.12    0.99    1.43   269.13653   124.78881   247.11753
   291  H   1.0    0.13    0.99    1.43   266.61019   128.68112   246.78254
   292  N   5.0   -0.72    3.00    1.93   280.79766   120.41408   232.17477
   293  C   4.0    0.07    3.98    3.59   278.51958   119.64683   230.87002
   294  C   4.0    0.26    3.01    3.02   278.92568   118.67770   228.17487
   295  O   6.0   -0.47    1.00    1.80   277.35490   117.28628   227.21161
   296  C   4.0   -0.08    3.98    3.58   276.57313   121.82185   230.86790
   297  C   4.0   -0.23    3.98    3.59   275.58408   122.30567   233.53623
   298  C   4.0   -0.21    3.98    3.59   277.67418   124.23682   229.73884
   299  H   1.0    0.25    1.00    1.43   280.65309   122.00374   233.23007
   300  H   1.0    0.10    0.99    1.43   277.68360   118.02841   231.87421
   301  H   1.0    0.12    0.99    1.43   274.98489   121.21701   229.69044
   302  H   1.0    0.11    0.99    1.43   274.27012   123.88104   233.48422
   303  H   1.0    0.09    0.99    1.43   274.59930   120.64876   234.24516
   304  H   1.0    0.10    0.99    1.43   277.10948   122.77318   234.83214
   305  H   1.0    0.11    0.99    1.43   276.22944   125.69528   229.72940
   306  H   1.0    0.11    0.99    1.43   279.28345   124.91803   230.82118
   307  H   1.0    0.11    0.99    1.43   278.28672   123.92619   227.80366
   308  N   5.0   -0.49    3.00    1.93   281.01535   119.45502   226.96499
   309  C   4.0    0.06    3.99    3.60   281.59897   118.69839   224.40644
   310  C   4.0    0.06    3.00    3.02   283.86605   116.92250   224.21001
   311  O   6.0   -0.41    1.00    1.80   284.73049   116.34571   222.13546
   312  C   4.0   -0.13    3.99    3.60   282.10127   121.00017   222.72670
   313  C   4.0   -0.10    3.98    3.58   279.78437   122.65722   222.23237
   314  C   4.0   -0.23    3.99    3.60   280.62748   125.08732   220.92606
   315  C   4.0   -0.23    3.98    3.59   277.82427   121.29562   220.61842
   316  H   1.0    0.25    1.00    1.43   282.20203   120.69459   227.80064
   317  H   1.0    0.14    0.99    1.43   279.97634   117.61876   223.69907
   318  H   1.0    0.11    0.99    1.43   283.58511   122.11342   223.63874
   319  H   1.0    0.13    0.99    1.43   282.83458   120.30391   220.92902
   320  H   1.0    0.11    0.99    1.43   278.91470   123.14491   224.04567
   321  H   1.0    0.10    0.99    1.43   279.00693   126.26304   220.47565
   322  H   1.0    0.10    0.99    1.43   281.89424   126.16257   222.13816
   323  H   1.0    0.11    0.99    1.43   281.60292   124.63481   219.17507
   324  H   1.0    0.09    0.99    1.43   276.20479   122.51556   220.29627
   325  H   1.0    0.10    0.99    1.43   278.63291   120.78560   218.80129
   326  H   1.0    0.11    0.99    1.43   277.16878   119.57753   221.53257
   327  N   5.0   -0.67    3.00    1.93   265.58774   105.77424   236.18822
   328  C   4.0    0.06    3.98    3.58   265.02468   106.67775   238.71509
   329  C   4.0    0.07    3.00    3.02   262.29428   105.94882   239.34784
   330  O   6.0   -0.43    1.00    1.80   260.54023   106.73840   238.05275
   331  C   4.0   -0.14    3.99    3.60   265.25978   109.55705   238.83023
   332  C   4.0   -0.11    3.98    3.58   267.96911   110.56585   238.97587
   333  C   4.0   -0.22    3.98    3.59   269.59125   109.65213   236.77290
   334  C   4.0   -0.24    3.99    3.60   267.88063   113.45186   239.00841
   335  H   1.0    0.32    1.00    1.43   265.29854   106.99552   234.73968
   336  H   1.0    0.10    0.99    1.43   266.32325   105.73913   240.02334
   337  H   1.0    0.12    0.99    1.43   264.32043   110.31991   237.15770
   338  H   1.0    0.09    0.99    1.43   264.21228   110.20225   240.48549
   339  H   1.0    0.10    0.99    1.43   268.81766   109.89502   240.73815
   340  H   1.0    0.10    0.99    1.43   271.42892   110.56697   236.83710
   341  H   1.0    0.10    0.99    1.43   269.86141   107.61684   236.84799
   342  H   1.0    0.11    0.99    1.43   268.69801   110.10816   234.97627
   343  H   1.0    0.09    0.99    1.43   269.77279   114.21906   239.21501
   344  H   1.0    0.09    0.99    1.43   267.08309   114.13860   237.24222
   345  H   1.0    0.09    0.99    1.43   266.71973   114.12115   240.56370
   346  N   5.0   -0.69    3.00    1.93   256.95397   107.19625   243.44244
   347  C   4.0    0.07    3.98    3.59   256.12089   109.21103   245.11111
   348  C   4.0    0.07    3.00    3.02   253.58012   108.49399   246.29503
   349  O   6.0   -0.45    1.00    1.80   251.59247   108.52890   245.10916
   350  C   4.0   -0.08    3.98    3.59   255.84076   111.73593   243.70222
   351  C   4.0   -0.17    3.98    3.58   258.23475   112.42879   242.22458
   352  C   4.0   -0.23    3.98    3.59   255.06049   113.79472   245.57302
   353  C   4.0   -0.24    3.98    3.58   260.56000   112.95374   243.84037
   354  H   1.0    0.28    1.00    1.43   256.26014   107.20671   241.65852
   355  H   1.0    0.10    0.99    1.43   257.54473   109.36028   246.60560
   356  H   1.0    0.12    0.99    1.43   254.32701   111.47683   242.31784
   357  H   1.0    0.11    0.99    1.43   258.64585   110.90406   240.89345
   358  H   1.0    0.09    0.99    1.43   257.81843   114.11148   241.10805
   359  H   1.0    0.11    0.99    1.43   254.94560   115.60746   244.61426
   360  H   1.0    0.11    0.99    1.43   253.22484   113.36205   246.38924
   361  H   1.0    0.10    0.99    1.43   256.42389   113.94849   247.10068
   362  H   1.0    0.09    0.99    1.43   262.13263   113.46441   242.62067
   363  H   1.0    0.10    0.99    1.43   260.22061   114.51821   245.12414
   364  H   1.0    0.10    0.99    1.43   261.10321   111.29334   244.92376
   365  N   5.0   -0.72    3.00    1.93   247.31978   109.15863   249.26881
   366  C   4.0    0.07    3.98    3.59   245.39654   111.09059   249.19608
   367  C   4.0    0.06    3.00    3.02   243.03381   110.44930   250.73080
   368  O   6.0   -0.42    1.00    1.80   241.69725   112.14343   251.55348
   369  C   4.0   -0.08    3.98    3.58   244.59571   111.81299   246.47848
   370  C   4.0   -0.23    3.98    3.59   246.86796   112.84291   245.03780
   371  C   4.0   -0.21    3.98    3.59   243.38304   109.61720   245.05446
   372  H   1.0    0.27    1.00    1.43   246.88418   107.44366   248.54303
   373  H   1.0    0.12    0.99    1.43   246.22856   112.77338   250.07497
   374  H   1.0    0.12    0.99    1.43   243.18422   113.31211   246.68892
   375  H   1.0    0.10    0.99    1.43   246.29218   113.43384   243.16000
   376  H   1.0    0.10    0.99    1.43   247.67847   114.44734   246.03350
   377  H   1.0    0.13    0.99    1.43   248.31244   111.39121   244.85311
   378  H   1.0    0.11    0.99    1.43   242.76108   110.25520   243.20438
   379  H   1.0    0.12    0.99    1.43   244.71783   108.07903   244.77537
   380  H   1.0    0.11    0.99    1.43   241.75369   108.88583   246.07087
   381  N   5.0   -0.68    3.00    1.93   258.95303   109.18431   233.18503
   382  C   4.0    0.06    3.98    3.59   260.23259   110.89437   231.48463
   383  C   4.0    0.07    3.00    3.02   262.57889   109.59662   230.44864
   384  O   6.0   -0.45    1.00    1.80   264.11872   108.61411   231.88555
   385  C   4.0   -0.09    3.98    3.59   261.08036   113.36185   232.81101
   386  C   4.0   -0.17    3.98    3.59   259.09249   114.23057   234.72662
   387  C   4.0   -0.25    3.98    3.59   261.63312   115.35575   230.80028
   388  C   4.0   -0.24    3.98    3.59   259.86678   116.63797   236.10467
   389  H   1.0    0.32    1.00    1.43   259.95810   108.43243   234.63293
   390  H   1.0    0.10    0.99    1.43   258.89682   111.30558   229.96081
   391  H   1.0    0.12    0.99    1.43   262.83278   112.93803   233.83106
   392  H   1.0    0.09    0.99    1.43   257.29298   114.49147   233.75420
   393  H   1.0    0.10    0.99    1.43   258.81685   112.71985   236.10469
   394  H   1.0    0.09    0.99    1.43   262.49546   117.01359   231.64359
   395  H   1.0    0.09    0.99    1.43   262.92504   114.61037   229.38415
   396  H   1.0    0.09    0.99    1.43   259.89261   115.90811   229.85654
   397  H   1.0    0.09    0.99    1.43   258.54487   116.99669   237.63051
   398  H   1.0    0.09    0.99    1.43   261.74820   116.41224   236.89670
   399  H   1.0    0.11    0.99    1.43   259.86429   118.25569   234.84294
   400  N   5.0   -0.68    3.00    1.93   269.26409   110.34173   226.62769
   401  C   4.0    0.06    3.98    3.59   271.37523   111.91336   225.88122
   402  C   4.0    0.07    3.00    3.02   273.09608   110.29811   224.21517
   403  O   6.0   -0.37    1.00    1.80   273.05099   107.98294   224.37377
   404  C   4.0   -0.14    3.99    3.60   272.80572   112.84446   228.22366
   405  C   4.0   -0.10    3.98    3.58   271.08791   114.17324   230.14658
   406  C   4.0   -0.23    3.99    3.60   272.62731   114.81666   232.49792
   407  C   4.0   -0.23    3.98    3.59   269.91543   116.56772   229.04575
   408  H   1.0    0.29    1.00    1.43   269.70889   108.71644   227.54162
   409  H   1.0    0.10    0.99    1.43   270.60940   113.49206   224.79078
   410  H   1.0    0.12    0.99    1.43   273.69517   111.20569   229.11427
   411  H   1.0    0.13    0.99    1.43   274.30367   114.12998   227.62877
   412  H   1.0    0.10    0.99    1.43   269.56333   112.86847   230.66943
   413  H   1.0    0.09    0.99    1.43   271.42149   115.64343   233.93827
   414  H   1.0    0.10    0.99    1.43   273.52021   113.13002   233.25764
   415  H   1.0    0.10    0.99    1.43   274.09156   116.16454   231.99520
   416  H   1.0    0.09    0.99    1.43   268.89162   117.59117   230.50150
   417  H   1.0    0.11    0.99    1.43   271.38013   117.79971   228.29811
   418  H   1.0    0.09    0.99    1.43   268.59206   116.11076   227.54182
   419  N   5.0   -0.72    3.00    1.93   263.77018   119.33573   212.54331
   420  C   4.0    0.05    3.98    3.58   262.58097   121.64211   213.42004
   421  C   4.0    0.07    3.00    3.02   259.77288   121.13514   213.90924
   422  O   6.0   -0.48    1.00    1.80   258.71057   121.84116   215.84755
   423  C   4.0   -0.15    3.98    3.59   262.85735   123.76168   211.46614
   424  C   4.0   -0.15    3.98    3.59   261.56229   126.18995   212.37296
   425  C   4.0   -0.04    3.98    3.59   260.99411   128.06399   210.24625
   426  N   5.0   -0.47    3.02    1.93   263.13722   129.68073   209.69851
   427  C   4.0    0.37    3.00    3.02   263.69552   130.72976   207.48471
   428  N   5.0   -0.64    3.01    1.93   262.40554   130.19441   205.38040
   429  N   5.0   -0.64    3.02    1.93   265.50932   132.46476   207.41935
   430  H   1.0    0.25    1.00    1.43   264.98089   119.42841   211.05512
   431  H   1.0    0.10    0.99    1.43   263.40836   122.22192   215.23649
   432  H   1.0    0.11    0.99    1.43   264.86306   124.07985   211.11574
   433  H   1.0    0.11    0.99    1.43   261.98600   123.10918   209.71516
   434  H   1.0    0.12    0.99    1.43   259.77424   125.67930   213.25996
   435  H   1.0    0.11    0.99    1.43   262.71234   127.09896   213.82198
   436  H   1.0    0.11    0.99    1.43   260.46970   127.00222   208.56034
   437  H   1.0    0.12    0.99    1.43   259.38814   129.24318   210.80567
   438  H   1.0    0.26    1.00    1.43   264.06821   130.37561   211.22155
   439  H   1.0    0.25    1.00    1.43   261.42408   128.56295   205.29779
   440  H   1.0    0.26    1.00    1.43   263.19581   130.70082   203.72108
   441  H   1.0    0.32    1.00    1.43   266.24183   133.12884   209.06946
   442  H   1.0    0.27    1.00    1.43   266.01910   133.26841   205.77222
   443  N   5.0   -0.70    3.00    1.93   257.78025   118.07990   219.90851
   444  C   4.0    0.07    3.98    3.59   258.03451   119.74647   222.06482
   445  C   4.0    0.29    3.01    3.02   255.74447   121.50518   222.22573
   446  O   6.0   -0.46    1.00    1.80   254.61793   121.87110   224.21946
   447  C   4.0   -0.13    3.99    3.60   260.48801   121.24501   221.86253
   448  C   4.0   -0.10    3.98    3.58   262.86506   119.58871   221.99625
   449  C   4.0   -0.24    3.98    3.59   265.18177   121.17986   221.34737
   450  C   4.0   -0.24    3.98    3.59   263.18823   118.37841   224.59226
   451  H   1.0    0.28    1.00    1.43   259.12940   118.14446   218.55886
   452  H   1.0    0.09    0.99    1.43   258.00868   118.60175   223.79645
   453  H   1.0    0.14    0.99    1.43   260.45353   122.24652   220.05899
   454  H   1.0    0.12    0.99    1.43   260.52352   122.66315   223.36066
   455  H   1.0    0.11    0.99    1.43   262.70291   118.07305   220.59138
   456  H   1.0    0.09    0.99    1.43   266.87527   120.02252   221.41211
   457  H   1.0    0.09    0.99    1.43   264.99910   121.97463   219.46256
   458  H   1.0    0.10    0.99    1.43   265.38091   122.72532   222.68721
   459  H   1.0    0.09    0.99    1.43   264.79556   117.09911   224.59221
   460  H   1.0    0.09    0.99    1.43   263.46852   119.82212   226.02768
   461  H   1.0    0.09    0.99    1.43   261.53924   117.26565   225.10411
   462  N   5.0   -0.47    3.01    1.93   255.02437   122.51936   220.04041
   463  C   4.0    0.07    3.99    3.60   252.83598   124.16928   219.91530
   464  C   4.0    0.10    3.00    3.02   250.51716   122.73859   220.89876
   465  O   6.0   -0.40    1.00    1.80   249.09358   123.59866   222.50932
   466  C   4.0   -0.21    3.98    3.59   252.41776   125.04057   217.20881
   467  H   1.0    0.29    1.00    1.43   256.09605   122.26926   218.47453
   468  H   1.0    0.15    0.99    1.43   253.14532   125.79136   221.17498
   469  H   1.0    0.12    0.99    1.43   250.73675   126.21337   217.11298
   470  H   1.0    0.12    0.99    1.43   254.04146   126.13698   216.59461
   471  H   1.0    0.12    0.99    1.43   252.19175   123.40425   215.98634
   472  N   5.0   -0.68    3.00    1.93   250.14278   118.00784   224.48004
   473  C   4.0    0.09    3.99    3.60   250.39593   117.68608   227.18556
   474  C   4.0    0.29    3.01    3.02   249.34581   119.99320   228.56835
   475  O   6.0   -0.45    1.00    1.80   247.80870   119.72708   230.28297
   476  C   4.0   -0.09    3.98    3.59   253.15642   117.19202   227.92503
   477  C   4.0   -0.22    3.98    3.59   253.52237   117.52736   230.76355
   478  C   4.0   -0.23    3.98    3.59   253.94924   114.53537   227.12447
   479  H   1.0    0.27    1.00    1.43   251.71298   117.79853   223.40759
   480  H   1.0    0.11    0.99    1.43   249.23485   116.07509   227.79777
   481  H   1.0    0.14    0.99    1.43   254.32301   118.58104   226.93072
   482  H   1.0    0.09    0.99    1.43   255.47828   117.14544   231.25609
   483  H   1.0    0.12    0.99    1.43   253.08049   119.44660   231.33849
   484  H   1.0    0.11    0.99    1.43   252.32210   116.22845   231.81123
   485  H   1.0    0.09    0.99    1.43   255.95534   114.25002   227.48085
   486  H   1.0    0.10    0.99    1.43   252.93594   113.10182   228.19314
   487  H   1.0    0.10    0.99    1.43   253.63647   114.23617   225.11730
   488  N   5.0   -0.47    3.01    1.93   250.19067   122.24553   227.83394
   489  C   4.0    0.06    3.99    3.61   249.25298   124.51876   229.05338
   490  C   4.0    0.12    3.00    3.02   246.36405   124.37943   229.24105
   491  O   6.0   -0.43    1.00    1.80   245.25650   124.64113   231.25976
   492  C   4.0   -0.13    3.99    3.60   250.01329   126.91402   227.64321
   493  C   4.0   -0.11    3.98    3.59   252.84135   127.49017   227.81716
   494  C   4.0    0.27    3.00    3.02   253.31938   130.20166   226.97491
   495  O   6.0   -0.41    1.00    1.80   252.10763   131.97785   227.84382
   496  N   5.0   -0.64    3.00    1.93   255.12140   130.50726   225.25095
   497  H   1.0    0.30    1.00    1.43   251.48055   122.40430   226.43220
   498  H   1.0    0.12    0.99    1.43   249.98518   124.58960   230.99932
   499  H   1.0    0.16    0.99    1.43   249.47800   126.73761   225.66025
   500  H   1.0    0.14    0.99    1.43   248.96231   128.50144   228.44479
   501  H   1.0    0.10    0.99    1.43   253.47784   127.32673   229.77633
   502  H   1.0    0.13    0.99    1.43   253.94347   126.18465   226.66859
   503  H   1.0    0.33    1.00    1.43   256.31298   129.10895   224.61073
   504  H   1.0    0.30    1.00    1.43   255.47671   132.24896   224.56791
   505  N   5.0   -0.69    3.00    1.93   243.69779   119.68882   233.75656
   506  C   4.0    0.08    3.98    3.59   243.78743   120.65603   236.31474
   507  C   4.0    0.28    3.02    3.02   241.61411   122.51418   236.73527
   508  O   6.0   -0.47    1.00    1.80   240.31739   122.41845   238.65079
   509  C   4.0   -0.12    3.99    3.60   246.27783   121.99832   236.91742
   510  C   4.0   -0.03    3.03    3.02   248.44502   120.26084   237.53990
   511  C   4.0   -0.08    3.04    3.02   250.73934   120.51952   236.29811
   512  C   4.0   -0.10    3.03    3.02   248.24852   118.47130   239.45414
   513  C   4.0   -0.10    3.03    3.02   252.79198   119.03133   236.94075
   514  C   4.0   -0.11    3.03    3.02   250.28825   116.96336   240.08611
   515  C   4.0   -0.11    3.03    3.02   252.56409   117.23491   238.82567
   516  H   1.0    0.34    1.00    1.43   245.12631   120.11407   232.55213
   517  H   1.0    0.11    0.99    1.43   243.47050   119.07820   237.62337
   518  H   1.0    0.14    0.99    1.43   246.76717   123.20107   235.31653
   519  H   1.0    0.10    0.99    1.43   245.94062   123.21161   238.55778
   520  H   1.0    0.11    1.00    1.43   250.92405   121.89461   234.80133
   521  H   1.0    0.10    1.00    1.43   246.48935   118.25438   240.46517
   522  H   1.0    0.11    1.00    1.43   254.56801   119.27278   235.96487
   523  H   1.0    0.10    1.00    1.43   250.12343   115.57519   241.57146
   524  H   1.0    0.10    0.99    1.43   254.14266   116.02694   239.29226
   525  N   5.0   -0.48    3.01    1.93   241.23464   124.23636   234.93133
   526  C   4.0    0.07    4.00    3.61   239.13561   125.98039   235.19438
   527  C   4.0    0.09    3.00    3.02   236.70537   124.48980   235.74145
   528  O   6.0   -0.41    1.00    1.80   235.18350   125.20569   237.34046
   529  C   4.0   -0.10    3.99    3.60   238.71537   127.53334   232.79426
   530  C   4.0    0.28    2.99    3.02   240.88643   129.30761   232.11829
   531  O   6.0   -0.37    1.00    1.80   241.94042   129.20815   230.07010
   532  N   5.0   -0.65    3.00    1.93   241.47854   131.02189   233.88421
   533  H   1.0    0.31    1.00    1.43   242.42221   124.39769   233.42977
   534  H   1.0    0.13    0.99    1.43   239.45993   127.20628   236.83868
   535  H   1.0    0.13    0.99    1.43   238.44661   126.25044   231.20272
   536  H   1.0    0.11    0.99    1.43   237.00763   128.66637   233.03184
   537  H   1.0    0.28    1.00    1.43   242.87191   132.26578   233.51623
   538  H   1.0    0.25    1.00    1.43   240.51682   131.16790   235.51612
   539  N   5.0   -0.69    3.00    1.93   236.52878   121.67601   242.38781
   540  C   4.0    0.08    3.98    3.59   235.97347   123.69974   244.14745
   541  C   4.0    0.09    3.00    3.02   233.14604   124.26591   244.11192
   542  O   6.0   -0.40    1.00    1.80   231.90977   124.46689   246.05769
   543  C   4.0   -0.08    3.98    3.59   237.50976   126.08542   243.50277
   544  C   4.0   -0.15    3.98    3.59   240.31979   125.66051   244.09006
   545  C   4.0   -0.21    3.98    3.59   236.47893   128.34568   244.97517
   546  C   4.0   -0.22    3.98    3.58   242.02550   127.61505   242.83563
   547  H   1.0    0.33    1.00    1.43   237.86018   122.00500   241.04628
   548  H   1.0    0.12    0.99    1.43   236.42438   123.07975   246.07800
   549  H   1.0    0.15    0.99    1.43   237.27936   126.43908   241.47728
   550  H   1.0    0.11    0.99    1.43   240.58727   125.71866   246.13359
   551  H   1.0    0.12    0.99    1.43   240.88052   123.79075   243.43054
   552  H   1.0    0.10    0.99    1.43   237.64153   130.00524   244.65671
   553  H   1.0    0.13    0.99    1.43   234.55745   128.79685   244.40304
   554  H   1.0    0.12    0.99    1.43   236.46004   127.93976   246.99064
   555  H   1.0    0.13    0.99    1.43   243.97391   127.35997   243.43385
   556  H   1.0    0.11    0.99    1.43   241.93730   127.42437   240.79155
   557  H   1.0    0.11    0.99    1.43   241.47003   129.52622   243.33666
   558  H   1.0    0.30    1.00    1.43   250.49083   119.79788   259.01451
   559  H   1.0    0.17    1.00    1.43   275.47246   137.18344   212.03328
   560  H   1.0    0.29    1.00    1.43   277.75607   127.55579   237.32157
   561  H   1.0    0.13    1.00    1.43   277.14396   127.73481   244.68772
   562  H   1.0    0.30    1.00    1.43   281.28645   119.17943   233.23746
   563  H   1.0    0.14    1.00    1.43   284.65589   116.22168   225.77719
   564  H   1.0    0.29    1.00    1.43   267.22867   105.33716   236.09410
   565  H   1.0    0.12    1.00    1.43   261.93428   104.82391   240.82298
   566  H   1.0    0.29    1.00    1.43   258.64541   107.25955   243.27637
   567  H   1.0    0.12    1.00    1.43   253.49719   107.96982   248.10871
   568  H   1.0    0.31    1.00    1.43   248.68191   109.68033   248.39417
   569  H   1.0    0.13    1.00    1.43   242.58273   108.64415   251.06099
   570  H   1.0    0.29    1.00    1.43   257.64987   109.98870   233.92483
   571  H   1.0    0.12    1.00    1.43   262.88018   109.53700   228.58404
   572  H   1.0    0.28    1.00    1.43   268.25187   111.21326   227.68051
   573  H   1.0    0.12    1.00    1.43   274.26875   111.12553   222.98583
   574  H   1.0    0.29    1.00    1.43   264.68900   118.65641   213.80301
   575  H   1.0    0.14    1.00    1.43   258.74409   120.20159   212.62816
   576  H   1.0    0.28    1.00    1.43   257.76501   116.46394   220.43861
   577  H   1.0    0.14    1.00    1.43   250.10955   121.02158   220.22290
   578  H   1.0    0.29    1.00    1.43   249.03469   116.86875   223.87407
   579  H   1.0    0.16    1.00    1.43   245.33038   124.06767   227.69012
   580  H   1.0    0.30    1.00    1.43   243.66340   117.98881   233.79324
   581  H   1.0    0.15    1.00    1.43   236.33620   122.90121   234.78690
   582  H   1.0    0.30    1.00    1.43   237.08331   120.31525   243.24420
   583  H   1.0    0.16    1.00    1.43   232.24689   124.48482   242.46430

           ------------------------------------------------- 
          |        Self-Consistent Charge Iterations        |
           ------------------------------------------------- 

          ...................................................
          :                      SETUP                      :
          :.................................................:
          :  # basis functions                1396          :
          :  # atomic orbitals                1396          :
          :  # shells                          854          :
          :  # electrons                      1544          :
          :  max. iterations                   250          :
          :  Hamiltonian                  GFN2-xTB          :
          :  restarted?                      false          :
          :  GBSA solvation                   true          :
          :  PC potential                    false          :
          :  electronic temp.          500.0000000     K    :
          :  accuracy                    0.1000000          :
          :  -> integral cutoff          0.3500000E+02      :
          :  -> integral neglect         0.1000000E-08      :
          :  -> SCF convergence          0.1000000E-06 Eh   :
          :  -> wf. convergence          0.1000000E-04 e    :
          :  Broyden damping             0.4000000          :
          ...................................................

 iter      E             dE          RMSdq      gap      omega  full diag
   1   -882.3460695 -0.882346E+03  0.413E+00    1.35       0.0  T
   2   -884.4171336 -0.207106E+01  0.213E+00    1.28       1.0  T
   3   -884.4954320 -0.782983E-01  0.115E+00    1.91       1.0  T
   4   -884.5356341 -0.402021E-01  0.260E-01    1.48       1.0  T
   5   -884.5578466 -0.222126E-01  0.107E-01    1.56       1.0  T
   6   -884.5586290 -0.782330E-03  0.487E-02    1.53       1.0  T
   7   -884.5587886 -0.159626E-03  0.238E-02    1.52       1.0  T
   8   -884.5588964 -0.107793E-03  0.105E-02    1.52       1.0  T
   9   -884.5589132 -0.167670E-04  0.526E-03    1.51       1.0  T
  10   -884.5589168 -0.364292E-05  0.266E-03    1.50       1.6  T
  11   -884.5589179 -0.106682E-05  0.114E-03    1.50       3.6  T
  12   -884.5589181 -0.211307E-06  0.607E-04    1.50       6.8  T
  13   -884.5589182 -0.676563E-07  0.268E-04    1.50      15.4  T
  14   -884.5589182 -0.911223E-08  0.109E-04    1.50      37.9  T
  15   -884.5589182 -0.183331E-08  0.423E-05    1.50      97.9  T
  16   -884.5589182 -0.215550E-09  0.195E-05    1.50     212.7  T

   *** convergence criteria satisfied after 16 iterations ***

         #    Occupation            Energy/Eh            Energy/eV
      -------------------------------------------------------------
         1        2.0000           -0.7367647             -20.0484
       ...           ...                  ...                  ...
       766        2.0000           -0.3670761              -9.9886
       767        2.0000           -0.3662826              -9.9671
       768        2.0000           -0.3655940              -9.9483
       769        2.0000           -0.3653382              -9.9414
       770        2.0000           -0.3585098              -9.7555
       771        2.0000           -0.3544544              -9.6452
       772        2.0000           -0.3504527              -9.5363 (HOMO)
       773                         -0.2953482              -8.0368 (LUMO)
       774                         -0.2932680              -7.9802
       775                         -0.2916384              -7.9359
       776                         -0.2915005              -7.9321
       777                         -0.2910395              -7.9196
       ...                                ...                  ...
      1396                          0.6627370              18.0340
      -------------------------------------------------------------
                  HL-Gap            0.0551045 Eh            1.4995 eV
             Fermi-level           -0.3231729 Eh           -8.7940 eV

 SCC (total)                   0 d,  0 h,  0 min, 15.919 sec
 SCC setup                      ...        0 min,  0.167 sec (  1.049%)
 Dispersion                     ...        0 min,  0.169 sec (  1.059%)
 integral evaluation            ...        0 min,  0.493 sec (  3.097%)
 zeroth order Hamiltonian       ...        0 min,  0.008 sec (  0.050%)
 iterations                     ...        0 min, 13.094 sec ( 82.253%)
 molecular gradient             ...        0 min,  1.910 sec ( 11.996%)
 printout                       ...        0 min,  0.079 sec (  0.495%)

         :::::::::::::::::::::::::::::::::::::::::::::::::::::
         ::                     SUMMARY                     ::
         :::::::::::::::::::::::::::::::::::::::::::::::::::::
         :: total energy             -873.591813765984 Eh   ::
         :: total w/o Gsasa/hb       -873.490500567127 Eh   ::
         :: gradient norm               0.805562467573 Eh/α ::
         :: HOMO-LUMO gap               1.499470685782 eV   ::
         ::.................................................::
         :: SCC energy               -884.587691278848 Eh   ::
         :: -> isotropic ES             2.454730767663 Eh   ::
         :: -> anisotropic ES          -0.090630517658 Eh   ::
         :: -> anisotropic XC           0.305545025369 Eh   ::
         :: -> dispersion              -0.779995536561 Eh   ::
         :: -> Gsolv                   -0.512521279442 Eh   ::
         ::    -> Gborn                -0.411208080586 Eh   ::
         ::    -> Gsasa                -0.030630558579 Eh   ::
         ::    -> Ghb                  -0.072540083405 Eh   ::
         ::    -> Gshift                0.001857443127 Eh   ::
         :: repulsion energy           10.914326396930 Eh   ::
         :: add. restraining            0.000000000000 Eh   ::
         :::::::::::::::::::::::::::::::::::::::::::::::::::::

           -------------------------------------------------
          |                Property Printout                |
           -------------------------------------------------

    * Orbital Energies and Occupations

         #    Occupation            Energy/Eh            Energy/eV
      -------------------------------------------------------------
         1        2.0000           -0.7367647             -20.0484
       ...           ...                  ...                  ...
       760        2.0000           -0.3759425             -10.2299
       761        2.0000           -0.3730880             -10.1522
       762        2.0000           -0.3728827             -10.1467
       763        2.0000           -0.3697395             -10.0611
       764        2.0000           -0.3681354             -10.0175
       765        2.0000           -0.3674191              -9.9980
       766        2.0000           -0.3670761              -9.9886
       767        2.0000           -0.3662826              -9.9671
       768        2.0000           -0.3655940              -9.9483
       769        2.0000           -0.3653382              -9.9414
       770        2.0000           -0.3585098              -9.7555
       771        2.0000           -0.3544544              -9.6452
       772        2.0000           -0.3504527              -9.5363 (HOMO)
       773                         -0.2953482              -8.0368 (LUMO)
       774                         -0.2932680              -7.9802
       775                         -0.2916384              -7.9359
       776                         -0.2915005              -7.9321
       777                         -0.2910395              -7.9196
       778                         -0.2868769              -7.8063
       779                         -0.2868093              -7.8045
       780                         -0.2849903              -7.7550
       781                         -0.2848689              -7.7517
       782                         -0.2845582              -7.7432
       783                         -0.2836086              -7.7174
       ...                                ...                  ...
      1396                          0.6627370              18.0340
      -------------------------------------------------------------
                  HL-Gap            0.0551045 Eh            1.4995 eV
             Fermi-level           -0.3231729 Eh           -8.7940 eV

   #   Z        covCN         q      C6AA      α(0)
   1   7 N      2.634    -0.392    30.145     8.154
   2   6 C      3.785     0.028    20.121     6.389
   3   6 C      2.757     0.264    22.546     7.776
   4   8 O      0.859    -0.495    23.664     6.522
   5   6 C      3.755    -0.123    22.922     6.827
   6   1 H      0.859     0.179     1.220     1.730
   7   1 H      0.923     0.036     2.507     2.476
   8   1 H      0.925     0.048     2.343     2.393
   9   1 H      0.925     0.072     2.060     2.245
  10   1 H      0.925     0.057     2.233     2.337
  11   7 N      2.691    -0.176    24.813     7.398
  12   6 C      3.796     0.010    20.422     6.435
  13   6 C      2.763     0.280    22.256     7.726
  14   8 O      0.859    -0.485    23.451     6.493
  15   6 C      3.678     0.061    19.762     6.368
  16   8 O      1.655    -0.484    22.553     6.411
  17   1 H      0.860     0.242     0.916     1.500
  18   1 H      0.923     0.085     1.928     2.172
  19   1 H      0.924     0.063     2.166     2.302
  20   1 H      0.924     0.066     2.128     2.281
  21   1 H      0.805     0.359     0.567     1.182
  22   7 N      2.690    -0.173    24.750     7.389
  23   6 C      3.802     0.014    20.338     6.421
  24   6 C      2.758     0.288    22.111     7.700
  25   8 O      0.858    -0.496    23.703     6.528
  26   6 C      3.806    -0.081    22.032     6.682
  27   6 C      3.804    -0.091    22.224     6.711
  28   6 C      3.739    -0.027    21.140     6.561
  29   7 N      2.701    -0.140    24.025     7.280
  30   6 C      2.736     0.233    23.116     7.872
  31   7 N      2.651    -0.247    26.438     7.637
  32   7 N      2.653    -0.255    26.635     7.665
  33   1 H      0.860     0.238     0.931     1.511
  34   1 H      0.923     0.081     1.967     2.194
  35   1 H      0.925     0.069     2.093     2.262
  36   1 H      0.924     0.061     2.182     2.310
  37   1 H      0.925     0.082     1.962     2.190
  38   1 H      0.924     0.087     1.904     2.158
  39   1 H      0.924     0.088     1.897     2.154
  40   1 H      0.924     0.080     1.975     2.198
  41   1 H      0.860     0.240     0.924     1.506
  42   1 H      0.860     0.240     0.924     1.506
  43   1 H      0.860     0.254     0.869     1.460
  44   1 H      0.860     0.254     0.869     1.461
  45   1 H      0.860     0.256     0.861     1.453
  46   7 N      2.689    -0.175    24.794     7.395
  47   6 C      3.797     0.037    19.959     6.361
  48   6 C      2.761     0.275    22.355     7.743
  49   8 O      0.859    -0.520    24.225     6.599
  50   6 C      3.816    -0.115    22.684     6.779
  51   6 C      2.742     0.288    22.112     7.699
  52   8 O      0.859    -0.479    23.329     6.476
  53   7 N      2.641    -0.293    27.552     7.796
  54   1 H      0.860     0.216     1.030     1.590
  55   1 H      0.923     0.071     2.071     2.250
  56   1 H      0.924     0.101     1.778     2.085
  57   1 H      0.924     0.076     2.020     2.223
  58   1 H      0.860     0.247     0.895     1.482
  59   1 H      0.860     0.231     0.963     1.537
  60   7 N      2.693    -0.190    25.130     7.445
  61   6 C      3.800     0.030    20.065     6.378
  62   6 C      2.758     0.277    22.318     7.736
  63   8 O      0.858    -0.503    23.860     6.549
  64   6 C      3.758    -0.129    23.039     6.843
  65   1 H      0.860     0.254     0.870     1.461
  66   1 H      0.923     0.064     2.157     2.297
  67   1 H      0.925     0.066     2.133     2.284
  68   1 H      0.925     0.084     1.938     2.177
  69   1 H      0.925     0.071     2.076     2.253
  70   7 N      2.696    -0.182    24.948     7.418
  71   6 C      3.799     0.039    19.929     6.356
  72   6 C      2.760     0.272    22.396     7.750
  73   8 O      0.858    -0.517    24.166     6.591
  74   6 C      3.810    -0.110    22.595     6.766
  75   6 C      2.744     0.294    22.011     7.682
  76   8 O      0.859    -0.476    23.249     6.465
  77   7 N      2.638    -0.278    27.192     7.745
  78   1 H      0.860     0.244     0.909     1.493
  79   1 H      0.923     0.075     2.031     2.229
  80   1 H      0.924     0.079     1.989     2.205
  81   1 H      0.924     0.081     1.969     2.194
  82   1 H      0.860     0.246     0.898     1.484
  83   1 H      0.860     0.227     0.978     1.549
  84   7 N      2.694    -0.194    25.216     7.458
  85   6 C      3.804     0.053    19.682     6.316
  86   6 C      2.762     0.277    22.313     7.736
  87   8 O      0.859    -0.496    23.698     6.527
  88   6 C      3.802    -0.099    22.389     6.736
  89   6 C      2.682     0.378    20.597     7.427
  90   8 O      0.856    -0.631    26.881     6.951
  91   8 O      0.856    -0.623    26.686     6.926
  92   1 H      0.860     0.236     0.938     1.517
  93   1 H      0.923     0.049     2.331     2.388
  94   1 H      0.925     0.042     2.425     2.435
  95   1 H      0.924     0.024     2.675     2.558
  96   7 N      2.688    -0.182    24.942     7.417
  97   6 C      3.746    -0.018    20.956     6.530
  98   6 C      2.754     0.281    22.248     7.724
  99   8 O      0.858    -0.497    23.710     6.528
 100   1 H      0.860     0.227     0.980     1.551
 101   1 H      0.924     0.081     1.972     2.196
 102   1 H      0.925     0.087     1.910     2.161
 103   7 N      2.692    -0.197    25.276     7.467
 104   6 C      3.802     0.034    20.006     6.368
 105   6 C      2.758     0.289    22.099     7.698
 106   8 O      0.858    -0.502    23.837     6.546
 107   6 C      3.853    -0.022    20.939     6.508
 108   6 C      3.803    -0.061    21.671     6.627
 109   6 C      3.755    -0.113    22.724     6.797
 110   6 C      3.751    -0.113    22.716     6.797
 111   1 H      0.860     0.239     0.928     1.509
 112   1 H      0.923     0.050     2.324     2.384
 113   1 H      0.924     0.045     2.380     2.413
 114   1 H      0.924     0.033     2.537     2.491
 115   1 H      0.924     0.042     2.417     2.431
 116   1 H      0.925     0.070     2.082     2.257
 117   1 H      0.925     0.027     2.625     2.534
 118   1 H      0.925     0.043     2.404     2.425
 119   1 H      0.925     0.050     2.326     2.385
 120   1 H      0.925     0.045     2.387     2.416
 121   1 H      0.925     0.052     2.289     2.366
 122   7 N      2.692    -0.194    25.217     7.458
 123   6 C      3.796     0.025    20.154     6.392
 124   6 C      2.761     0.285    22.174     7.711
 125   8 O      0.859    -0.505    23.905     6.555
 126   6 C      3.679     0.076    19.517     6.328
 127   8 O      1.656    -0.475    22.351     6.382
 128   1 H      0.860     0.227     0.977     1.548
 129   1 H      0.923     0.085     1.924     2.169
 130   1 H      0.924     0.045     2.387     2.416
 131   1 H      0.923     0.041     2.432     2.439
 132   1 H      0.805     0.358     0.570     1.186
 133   7 N      2.694    -0.190    25.127     7.445
 134   6 C      3.807     0.028    20.099     6.382
 135   6 C      2.763     0.287    22.144     7.706
 136   8 O      0.858    -0.510    23.998     6.568
 137   6 C      3.853    -0.025    20.983     6.515
 138   6 C      3.805    -0.064    21.725     6.636
 139   6 C      3.756    -0.116    22.771     6.804
 140   6 C      3.751    -0.105    22.568     6.775
 141   1 H      0.860     0.239     0.928     1.509
 142   1 H      0.923     0.065     2.143     2.289
 143   1 H      0.924     0.051     2.312     2.378
 144   1 H      0.925     0.047     2.356     2.400
 145   1 H      0.924     0.034     2.531     2.488
 146   1 H      0.925     0.064     2.151     2.293
 147   1 H      0.925     0.034     2.534     2.489
 148   1 H      0.925     0.057     2.230     2.335
 149   1 H      0.925     0.038     2.472     2.459
 150   1 H      0.925     0.028     2.618     2.530
 151   1 H      0.925     0.056     2.243     2.342
 152   7 N      2.692    -0.185    24.999     7.426
 153   6 C      3.799     0.044    19.831     6.341
 154   6 C      2.760     0.290    22.089     7.697
 155   8 O      0.859    -0.498    23.743     6.533
 156   6 C      3.756    -0.124    22.939     6.829
 157   1 H      0.860     0.231     0.960     1.535
 158   1 H      0.923     0.058     2.218     2.329
 159   1 H      0.925     0.071     2.071     2.250
 160   1 H      0.925     0.064     2.148     2.292
 161   1 H      0.925     0.058     2.220     2.330
 162   7 N      2.690    -0.192    25.160     7.450
 163   6 C      3.800     0.039    19.914     6.354
 164   6 C      2.761     0.279    22.283     7.730
 165   8 O      0.859    -0.499    23.764     6.536
 166   6 C      3.810    -0.065    21.734     6.636
 167   6 C      3.807    -0.094    22.285     6.720
 168   6 C      2.745     0.291    22.066     7.691
 169   8 O      0.859    -0.502    23.831     6.545
 170   7 N      2.639    -0.285    27.351     7.767
 171   1 H      0.860     0.234     0.946     1.524
 172   1 H      0.923     0.053     2.279     2.361
 173   1 H      0.924     0.069     2.095     2.263
 174   1 H      0.924     0.061     2.190     2.314
 175   1 H      0.925     0.059     2.210     2.325
 176   1 H      0.924     0.069     2.091     2.262
 177   1 H      0.860     0.229     0.969     1.542
 178   1 H      0.860     0.242     0.917     1.500
 179   7 N      2.689    -0.191    25.135     7.446
 180   6 C      3.799     0.008    20.440     6.437
 181   6 C      2.758     0.275    22.346     7.741
 182   8 O      0.858    -0.490    23.572     6.509
 183   6 C      3.726     0.110    18.872     6.203
 184   8 O      1.655    -0.461    22.077     6.343
 185   6 C      3.752    -0.142    23.291     6.882
 186   1 H      0.860     0.235     0.943     1.521
 187   1 H      0.924     0.074     2.047     2.237
 188   1 H      0.924     0.063     2.166     2.301
 189   1 H      0.804     0.310     0.693     1.307
 190   1 H      0.925     0.070     2.086     2.259
 191   1 H      0.925     0.059     2.208     2.324
 192   1 H      0.925     0.062     2.179     2.309
 193   7 N      2.692    -0.180    24.902     7.411
 194   6 C      3.800     0.012    20.377     6.427
 195   6 C      2.756     0.273    22.389     7.748
 196   8 O      0.858    -0.478    23.307     6.473
 197   6 C      3.726     0.122    18.688     6.172
 198   8 O      1.656    -0.452    21.879     6.314
 199   6 C      3.754    -0.123    22.924     6.827
 200   1 H      0.860     0.224     0.991     1.560
 201   1 H      0.923     0.079     1.986     2.204
 202   1 H      0.923     0.013     2.839     2.635
 203   1 H      0.804     0.314     0.681     1.297
 204   1 H      0.925     0.070     2.090     2.261
 205   1 H      0.925     0.054     2.277     2.359
 206   1 H      0.925     0.070     2.086     2.259
 207   7 N      2.692    -0.195    25.237     7.461
 208   6 C      3.796     0.031    20.060     6.378
 209   6 C      2.762     0.272    22.403     7.751
 210   8 O      0.859    -0.475    23.243     6.464
 211   6 C      3.809    -0.053    21.511     6.602
 212   6 C      3.799    -0.091    22.236     6.714
 213   6 C      2.686     0.368    20.760     7.457
 214   8 O      0.856    -0.617    26.544     6.907
 215   8 O      0.856    -0.625    26.742     6.933
 216   1 H      0.860     0.228     0.973     1.545
 217   1 H      0.923     0.068     2.109     2.271
 218   1 H      0.924     0.037     2.487     2.466
 219   1 H      0.924     0.057     2.237     2.339
 220   1 H      0.924     0.036     2.498     2.472
 221   1 H      0.925     0.034     2.529     2.487
 222   7 N      2.687    -0.182    24.951     7.419
 223   6 C      3.751    -0.029    21.160     6.560
 224   6 C      2.754     0.277    22.318     7.736
 225   8 O      0.858    -0.489    23.547     6.506
 226   1 H      0.860     0.222     1.001     1.568
 227   1 H      0.924     0.084     1.937     2.176
 228   1 H      0.925     0.086     1.914     2.164
 229   7 N      2.693    -0.185    25.011     7.428
 230   6 C      3.796     0.025    20.154     6.393
 231   6 C      2.760     0.281    22.246     7.724
 232   8 O      0.859    -0.515    24.118     6.584
 233   6 C      3.758    -0.133    23.105     6.853
 234   1 H      0.860     0.226     0.982     1.552
 235   1 H      0.923     0.067     2.121     2.277
 236   1 H      0.925     0.072     2.065     2.247
 237   1 H      0.925     0.072     2.060     2.245
 238   1 H      0.925     0.067     2.115     2.274
 239   7 N      2.690    -0.188    25.081     7.438
 240   6 C      3.800     0.027    20.114     6.386
 241   6 C      2.761     0.279    22.276     7.729
 242   8 O      0.859    -0.513    24.079     6.579
 243   6 C      3.811    -0.076    21.934     6.666
 244   6 C      3.849    -0.014    20.790     6.485
 245   6 C      3.757    -0.112    22.696     6.792
 246   6 C      3.756    -0.120    22.851     6.816
 247   1 H      0.860     0.228     0.974     1.546
 248   1 H      0.924     0.069     2.100     2.266
 249   1 H      0.924     0.052     2.301     2.372
 250   1 H      0.924     0.063     2.160     2.298
 251   1 H      0.924     0.039     2.462     2.454
 252   1 H      0.925     0.046     2.374     2.409
 253   1 H      0.925     0.023     2.685     2.562
 254   1 H      0.925     0.052     2.300     2.372
 255   1 H      0.925     0.052     2.289     2.366
 256   1 H      0.925     0.049     2.336     2.390
 257   1 H      0.925     0.034     2.528     2.486
 258   7 N      2.691    -0.177    24.823     7.400
 259   6 C      3.796     0.041    19.886     6.350
 260   6 C      2.766     0.210    23.556     7.949
 261   8 O      0.856    -0.362    20.936     6.135
 262   6 C      3.811    -0.115    22.691     6.780
 263   6 C      2.744     0.292    22.041     7.687
 264   8 O      0.859    -0.470    23.132     6.448
 265   7 N      2.640    -0.278    27.191     7.744
 266   1 H      0.860     0.230     0.964     1.538
 267   1 H      0.923     0.098     1.806     2.101
 268   1 H      0.924     0.099     1.797     2.097
 269   1 H      0.924     0.098     1.804     2.100
 270   1 H      0.860     0.239     0.927     1.508
 271   1 H      0.860     0.225     0.987     1.556
 272   7 N      2.642    -0.376    29.725     8.097
 273   6 C      3.786     0.041    19.904     6.355
 274   6 C      2.774     0.209    23.575     7.952
 275   8 O      0.856    -0.361    20.917     6.132
 276   6 C      3.811    -0.073    21.883     6.659
 277   6 C      2.972     0.006    27.881     8.661
 278   6 C      2.924    -0.041    29.016     8.834
 279   6 C      2.925    -0.042    29.049     8.839
 280   6 C      2.920    -0.031    28.775     8.797
 281   6 C      2.919    -0.031    28.783     8.798
 282   6 C      2.919    -0.031    28.781     8.797
 283   1 H      0.860     0.162     1.323     1.802
 284   1 H      0.924     0.057     2.240     2.341
 285   1 H      0.924     0.055     2.263     2.352
 286   1 H      0.924     0.058     2.221     2.330
 287   1 H      0.926     0.042     2.428     2.437
 288   1 H      0.926     0.039     2.466     2.456
 289   1 H      0.926     0.034     2.524     2.485
 290   1 H      0.925     0.020     2.740     2.589
 291   1 H      0.925     0.013     2.840     2.635
 292   7 N      2.633    -0.392    30.148     8.155
 293   6 C      3.786     0.030    20.087     6.384
 294   6 C      2.753     0.268    22.481     7.764
 295   8 O      0.859    -0.499    23.767     6.536
 296   6 C      3.852    -0.014    20.792     6.485
 297   6 C      3.755    -0.109    22.642     6.785
 298   6 C      3.755    -0.116    22.776     6.805
 299   1 H      0.860     0.164     1.309     1.792
 300   1 H      0.923     0.026     2.647     2.544
 301   1 H      0.924     0.044     2.392     2.419
 302   1 H      0.925     0.042     2.421     2.433
 303   1 H      0.925     0.039     2.464     2.455
 304   1 H      0.925     0.038     2.470     2.458
 305   1 H      0.925     0.044     2.400     2.423
 306   1 H      0.925     0.051     2.311     2.377
 307   1 H      0.925     0.036     2.501     2.473
 308   7 N      2.687    -0.174    24.763     7.391
 309   6 C      3.791     0.023    20.204     6.401
 310   6 C      2.767     0.196    23.813     7.992
 311   8 O      0.856    -0.371    21.112     6.160
 312   6 C      3.813    -0.075    21.925     6.665
 313   6 C      3.850    -0.008    20.681     6.468
 314   6 C      3.758    -0.118    22.813     6.810
 315   6 C      3.756    -0.118    22.821     6.811
 316   1 H      0.860     0.218     1.018     1.580
 317   1 H      0.924     0.110     1.700     2.039
 318   1 H      0.924     0.055     2.263     2.353
 319   1 H      0.924     0.073     2.048     2.238
 320   1 H      0.924     0.028     2.619     2.531
 321   1 H      0.925     0.042     2.423     2.434
 322   1 H      0.925     0.040     2.448     2.447
 323   1 H      0.925     0.045     2.384     2.415
 324   1 H      0.925     0.046     2.369     2.407
 325   1 H      0.925     0.047     2.354     2.399
 326   1 H      0.925     0.038     2.475     2.460
 327   7 N      2.637    -0.402    30.420     8.191
 328   6 C      3.782     0.043    19.866     6.349
 329   6 C      2.769     0.198    23.772     7.985
 330   8 O      0.856    -0.363    20.948     6.136
 331   6 C      3.812    -0.063    21.701     6.631
 332   6 C      3.849    -0.010    20.714     6.474
 333   6 C      3.755    -0.108    22.621     6.782
 334   6 C      3.758    -0.107    22.605     6.778
 335   1 H      0.860     0.189     1.167     1.692
 336   1 H      0.924     0.039     2.464     2.455
 337   1 H      0.924     0.049     2.331     2.387
 338   1 H      0.924     0.030     2.591     2.517
 339   1 H      0.924     0.033     2.546     2.495
 340   1 H      0.925     0.039     2.464     2.455
 341   1 H      0.925     0.038     2.473     2.459
 342   1 H      0.925     0.039     2.463     2.454
 343   1 H      0.925     0.041     2.440     2.443
 344   1 H      0.925     0.033     2.541     2.493
 345   1 H      0.925     0.032     2.553     2.499
 346   7 N      2.635    -0.372    29.609     8.081
 347   6 C      3.786     0.033    20.026     6.374
 348   6 C      2.767     0.200    23.735     7.979
 349   8 O      0.856    -0.364    20.983     6.141
 350   6 C      3.854    -0.023    20.940     6.508
 351   6 C      3.802    -0.054    21.539     6.608
 352   6 C      3.755    -0.110    22.662     6.788
 353   6 C      3.751    -0.106    22.597     6.779
 354   1 H      0.860     0.161     1.332     1.808
 355   1 H      0.924     0.053     2.285     2.364
 356   1 H      0.924     0.043     2.406     2.426
 357   1 H      0.924     0.034     2.530     2.487
 358   1 H      0.924     0.029     2.606     2.525
 359   1 H      0.925     0.036     2.506     2.476
 360   1 H      0.925     0.038     2.477     2.461
 361   1 H      0.925     0.041     2.441     2.443
 362   1 H      0.925     0.033     2.550     2.497
 363   1 H      0.925     0.039     2.462     2.454
 364   1 H      0.925     0.038     2.473     2.459
 365   7 N      2.633    -0.382    29.877     8.118
 366   6 C      3.784     0.032    20.044     6.377
 367   6 C      2.765     0.201    23.722     7.976
 368   8 O      0.856    -0.382    21.324     6.191
 369   6 C      3.852    -0.015    20.801     6.487
 370   6 C      3.756    -0.112    22.705     6.794
 371   6 C      3.754    -0.112    22.701     6.794
 372   1 H      0.860     0.160     1.337     1.811
 373   1 H      0.924     0.065     2.144     2.290
 374   1 H      0.924     0.034     2.526     2.486
 375   1 H      0.925     0.044     2.400     2.422
 376   1 H      0.925     0.035     2.515     2.480
 377   1 H      0.925     0.055     2.258     2.350
 378   1 H      0.925     0.044     2.392     2.419
 379   1 H      0.925     0.048     2.341     2.393
 380   1 H      0.925     0.033     2.549     2.497
 381   7 N      2.636    -0.393    30.165     8.157
 382   6 C      3.787     0.038    19.954     6.362
 383   6 C      2.771     0.202    23.707     7.974
 384   8 O      0.856    -0.363    20.958     6.138
 385   6 C      3.854    -0.017    20.841     6.493
 386   6 C      3.802    -0.056    21.581     6.614
 387   6 C      3.755    -0.112    22.698     6.793
 388   6 C      3.752    -0.102    22.511     6.766
 389   1 H      0.860     0.176     1.236     1.741
 390   1 H      0.924     0.047     2.354     2.399
 391   1 H      0.924     0.033     2.544     2.494
 392   1 H      0.924     0.034     2.527     2.486
 393   1 H      0.924     0.044     2.398     2.422
 394   1 H      0.925     0.046     2.377     2.411
 395   1 H      0.925     0.037     2.488     2.467
 396   1 H      0.925     0.037     2.495     2.470
 397   1 H      0.925     0.031     2.579     2.511
 398   1 H      0.925     0.039     2.456     2.451
 399   1 H      0.925     0.033     2.548     2.496
 400   7 N      2.639    -0.380    29.815     8.109
 401   6 C      3.783     0.039    19.944     6.362
 402   6 C      2.769     0.198    23.772     7.985
 403   8 O      0.856    -0.375    21.191     6.172
 404   6 C      3.810    -0.071    21.848     6.653
 405   6 C      3.849    -0.002    20.588     6.454
 406   6 C      3.758    -0.109    22.644     6.784
[...]
   241  C   3.949        O  242 1.611    N  258 1.321    C  240 0.938
   242  O   1.922        C  241 1.611    N  258 0.195
   243  C   3.986        C  244 0.992    C  240 0.979    H  250 0.970    H  249 0.968
   244  C   3.993        C  246 1.010    C  245 1.007    C  243 0.992    H  251 0.962
   245  C   3.994        C  244 1.007    H  254 0.985    H  252 0.985    H  253 0.983
   246  C   3.994        C  244 1.010    H  256 0.985    H  255 0.983    H  257 0.983
   247  H   0.948        N  239 0.879
   248  H   0.995        C  240 0.945
   249  H   0.997        C  243 0.968
   250  H   0.995        C  243 0.970
   251  H   0.998        C  244 0.962
   252  H   0.997        C  245 0.985
   253  H   0.999        C  245 0.983
   254  H   0.997        C  245 0.985
   255  H   0.997        C  246 0.983
   256  H   0.997        C  246 0.985
   257  H   0.999        C  246 0.983
   258  N   3.477        C  241 1.321    C  259 0.981    H  266 0.875    O  242 0.195
   259  C   3.967        N  258 0.981    C  262 0.975    C  260 0.971    H  267 0.942
   260  C   3.898        O  261 1.899    C  259 0.971    H  559 0.956
   261  O   2.034        C  260 1.899
   262  C   3.985        C  259 0.975    C  263 0.967    H  269 0.949    H  268 0.943
   263  C   3.950        O  264 1.617    N  265 1.323    C  262 0.967
   264  O   1.974        C  263 1.617    N  265 0.192
   265  N   3.405        C  263 1.323    H  271 0.931    H  270 0.921    O  264 0.192
   266  H   0.947        N  258 0.875
   267  H   0.990        C  259 0.942
   268  H   0.990        C  262 0.943
   269  H   0.990        C  262 0.949
   270  H   0.942        N  265 0.921
   271  H   0.949        N  265 0.931
   272  N   3.002        C  273 1.013    H  283 0.954    H  560 0.948
   273  C   3.985        N  272 1.013    C  274 0.976    H  284 0.964    C  276 0.942
   274  C   3.895        O  275 1.908    C  273 0.976    H  561 0.956
   275  O   2.043        C  274 1.908
   276  C   3.994        C  277 1.011    H  286 0.970    H  285 0.968    C  273 0.942
   277  C   3.989        C  278 1.414    C  279 1.405    C  276 1.011    C  282 0.109
   278  C   3.991        C  280 1.443    C  277 1.414    H  287 0.968    C  281 0.110
   279  C   3.991        C  281 1.448    C  277 1.405    H  288 0.968    C  280 0.111
   280  C   3.991        C  278 1.443    C  282 1.440    H  289 0.969    C  279 0.111
   281  C   3.992        C  279 1.448    C  282 1.435    H  290 0.972    C  278 0.110
   282  C   3.991        C  280 1.440    C  281 1.435    H  291 0.971    C  277 0.109
   283  H   0.974        N  272 0.954
   284  H   0.997        C  273 0.964
   285  H   0.997        C  276 0.968
   286  H   0.996        C  276 0.970
   287  H   0.998        C  278 0.968
   288  H   0.998        C  279 0.968
   289  H   0.999        C  280 0.969
   290  H   0.999        C  281 0.972
   291  H   0.999        C  282 0.971
   292  N   2.998        C  293 1.020    H  562 0.958    H  299 0.945
   293  C   3.985        N  292 1.020    C  296 0.960    H  300 0.948    C  294 0.943
   294  C   3.944        O  295 1.630    N  308 1.290    C  293 0.943
   295  O   1.949        C  294 1.630    N  308 0.191
   296  C   3.992        C  298 1.010    C  297 1.007    H  301 0.965    C  293 0.960
   297  C   3.995        C  296 1.007    H  303 0.985    H  302 0.984    H  304 0.980
   298  C   3.994        C  296 1.010    H  305 0.984    H  306 0.981    H  307 0.976
   299  H   0.973        N  292 0.945
   300  H   0.999        C  293 0.948
   301  H   0.998        C  296 0.965
   302  H   0.998        C  297 0.984
   303  H   0.998        C  297 0.985
   304  H   0.998        C  297 0.980
   305  H   0.998        C  298 0.984
   306  H   0.997        C  298 0.981
   307  H   0.999        C  298 0.976
   308  N   3.466        C  294 1.290    C  309 0.992    H  316 0.918    O  295 0.191
   309  C   3.968        N  308 0.992    C  310 0.988    C  312 0.963    H  317 0.909
   310  C   3.903        O  311 1.886    C  309 0.988    H  563 0.952
   311  O   2.039        C  310 1.886
   312  C   3.985        C  313 0.995    H  318 0.972    H  319 0.966    C  309 0.963
   313  C   3.995        C  315 1.010    C  314 1.006    C  312 0.995    H  320 0.959
   314  C   3.995        C  313 1.006    H  322 0.986    H  323 0.986    H  321 0.983
   315  C   3.995        C  313 1.010    H  325 0.985    H  324 0.982    H  326 0.981
   316  H   0.952        N  308 0.918
   317  H   0.988        C  309 0.909
   318  H   0.997        C  312 0.972
   319  H   0.994        C  312 0.966
   320  H   0.999        C  313 0.959
   321  H   0.997        C  314 0.983
   322  H   0.998        C  314 0.986
   323  H   0.998        C  314 0.986
   324  H   0.997        C  315 0.982
   325  H   0.998        C  315 0.985
   326  H   0.999        C  315 0.981
   327  N   2.998        C  328 1.010    H  564 0.946    H  335 0.919
   328  C   3.988        N  327 1.010    C  329 0.971    H  336 0.968    C  331 0.965
   329  C   3.891        O  330 1.894    C  328 0.971    H  565 0.954
   330  O   2.052        C  329 1.894
   331  C   3.993        C  332 0.994    H  338 0.970    H  337 0.967    C  328 0.965
   332  C   3.996        C  333 1.010    C  334 1.006    C  331 0.994    H  339 0.969
   333  C   3.996        C  332 1.010    H  342 0.984    H  340 0.984    H  341 0.977
   334  C   3.996        C  332 1.006    H  344 0.986    H  345 0.986    H  343 0.985
   335  H   0.964        N  327 0.919
   336  H   0.998        C  328 0.968
   337  H   0.998        C  331 0.967
   338  H   0.999        C  331 0.970
   339  H   0.999        C  332 0.969
   340  H   0.998        C  333 0.984
   341  H   0.999        C  333 0.977
   342  H   0.998        C  333 0.984
   343  H   0.997        C  334 0.985
   344  H   0.999        C  334 0.986
   345  H   0.999        C  334 0.986
   346  N   3.006        C  347 1.005    H  354 0.955    H  566 0.952
   347  C   3.984        N  346 1.005    C  348 0.971    H  355 0.964    C  350 0.958
   348  C   3.891        O  349 1.900    C  347 0.971    H  567 0.954
   349  O   2.043        C  348 1.900
   350  C   3.994        C  352 1.008    C  351 0.995    H  356 0.964    C  347 0.958
   351  C   3.997        C  353 1.020    C  350 0.995    H  357 0.972    H  358 0.970
   352  C   3.996        C  350 1.008    H  359 0.985    H  361 0.984    H  360 0.983
   353  C   3.996        C  351 1.020    H  363 0.985    H  364 0.985    H  362 0.983
   354  H   0.974        N  346 0.955
   355  H   0.997        C  347 0.964
   356  H   0.998        C  350 0.964
   357  H   0.999        C  351 0.972
   358  H   0.999        C  351 0.970
   359  H   0.999        C  352 0.985
   360  H   0.999        C  352 0.983
   361  H   0.998        C  352 0.984
   362  H   0.999        C  353 0.983
   363  H   0.998        C  353 0.985
   364  H   0.998        C  353 0.985
   365  N   3.002        C  366 1.029    H  372 0.954    H  568 0.946
   366  C   3.986        N  365 1.029    C  367 0.991    H  373 0.944    C  369 0.928
   367  C   3.899        O  368 1.882    C  366 0.991    H  569 0.953
   368  O   2.030        C  367 1.882
   369  C   3.993        C  371 1.010    C  370 1.008    H  374 0.968    C  366 0.928
   370  C   3.995        C  369 1.008    H  376 0.985    H  375 0.981    H  377 0.974
   371  C   3.995        C  369 1.010    H  380 0.985    H  378 0.985    H  379 0.983
   372  H   0.974        N  365 0.954
   373  H   0.996        C  366 0.944
   374  H   0.999        C  369 0.968
   375  H   0.998        C  370 0.981
   376  H   0.999        C  370 0.985
   377  H   0.997        C  370 0.974
   378  H   0.998        C  371 0.985
   379  H   0.998        C  371 0.983
   380  H   0.999        C  371 0.985
   381  N   2.996        C  382 1.018    H  570 0.944    H  389 0.934
   382  C   3.986        N  381 1.018    C  383 0.991    H  390 0.960    C  385 0.929
   383  C   3.895        O  384 1.876    C  382 0.991    H  571 0.955
   384  O   2.055        C  383 1.876
   385  C   3.993        C  387 1.009    C  386 0.996    H  391 0.964    C  382 0.929
   386  C   3.996        C  388 1.016    C  385 0.996    H  392 0.971    H  393 0.968
   387  C   3.996        C  385 1.009    H  395 0.984    H  394 0.983    H  396 0.983
   388  C   3.995        C  386 1.016    H  398 0.986    H  399 0.986    H  397 0.980
   389  H   0.969        N  381 0.934
   390  H   0.997        C  382 0.960
   391  H   0.998        C  385 0.964
   392  H   0.999        C  386 0.971
   393  H   0.998        C  386 0.968
   394  H   0.998        C  387 0.983
   395  H   0.999        C  387 0.984
   396  H   0.999        C  387 0.983
   397  H   0.998        C  388 0.980
   398  H   0.998        C  388 0.986
   399  H   0.999        C  388 0.986
   400  N   2.998        C  401 1.022    H  408 0.955    H  572 0.950
   401  C   3.987        N  400 1.022    C  402 0.991    C  404 0.948    H  409 0.945
   402  C   3.902        O  403 1.885    C  401 0.991    H  573 0.956
   403  O   2.032        C  402 1.885
   404  C   3.990        C  405 0.991    H  410 0.975    H  411 0.968    C  401 0.948
   405  C   3.996        C  407 1.010    C  406 1.006    C  404 0.991    H  412 0.961
   406  C   3.994        C  405 1.006    H  414 0.985    H  413 0.985    H  415 0.979
   407  C   3.995        C  405 1.010    H  416 0.984    H  417 0.984    H  418 0.983
   408  H   0.974        N  400 0.955
   409  H   0.996        C  401 0.945
   410  H   0.999        C  404 0.975
   411  H   0.996        C  404 0.968
   412  H   0.999        C  405 0.961
   413  H   0.997        C  406 0.985
   414  H   0.999        C  406 0.985
   415  H   0.998        C  406 0.979
   416  H   0.998        C  407 0.984
   417  H   0.998        C  407 0.984
   418  H   0.999        C  407 0.983
   419  N   3.000        C  420 1.013    H  574 0.957    H  430 0.948
   420  C   3.985        N  419 1.013    C  421 0.973    C  423 0.966    H  431 0.957
   421  C   3.880        O  422 1.873    C  420 0.973    H  575 0.951
   422  O   2.051        C  421 1.873
   423  C   3.987        C  424 1.006    H  433 0.970    H  432 0.970    C  420 0.966
   424  C   3.992        C  423 1.006    C  425 1.004    H  435 0.972    H  434 0.970
   425  C   3.957        C  424 1.004    N  426 0.987    H  437 0.959    H  436 0.956
   426  N   3.474        C  427 1.316    C  425 0.987    H  438 0.913    N  429 0.109
   427  C   3.976        N  429 1.335    N  426 1.316    N  428 1.291
   428  N   3.349        C  427 1.291    H  440 0.915    H  439 0.910
   429  N   3.406        C  427 1.335    H  442 0.918    H  441 0.877    N  426 0.109
   430  H   0.968        N  419 0.948
   431  H   0.999        C  420 0.957
   432  H   0.995        C  423 0.970
   433  H   0.994        C  423 0.970
   434  H   0.997        C  424 0.970
   435  H   0.997        C  424 0.972
   436  H   0.991        C  425 0.956
   437  H   0.993        C  425 0.959
   438  H   0.950        N  426 0.913
   439  H   0.940        N  428 0.910
   440  H   0.937        N  428 0.915
   441  H   0.939        N  429 0.877
   442  H   0.938        N  429 0.918
   443  N   2.996        C  444 1.014    H  576 0.957    H  451 0.949
   444  C   3.986        N  443 1.014    C  447 0.980    H  452 0.957    C  445 0.936
   445  C   3.941        O  446 1.599    N  462 1.324    C  444 0.936
   446  O   1.949        C  445 1.599    N  462 0.193
   447  C   3.992        C  448 0.993    C  444 0.980    H  454 0.972    H  453 0.966
   448  C   3.996        C  450 1.010    C  449 1.008    C  447 0.993    H  455 0.963
   449  C   3.995        C  448 1.008    H  456 0.984    H  458 0.983    H  457 0.982
   450  C   3.996        C  448 1.010    H  460 0.985    H  459 0.984    H  461 0.980
   451  H   0.973        N  443 0.949
   452  H   0.999        C  444 0.957
   453  H   0.998        C  447 0.966
   454  H   0.999        C  447 0.972
   455  H   0.998        C  448 0.963
   456  H   0.997        C  449 0.984
   457  H   0.999        C  449 0.982
   458  H   0.999        C  449 0.983
   459  H   0.998        C  450 0.984
   460  H   0.999        C  450 0.985
   461  H   0.999        C  450 0.980
   462  N   3.475        C  445 1.324    C  463 0.975    H  467 0.889    O  446 0.193
   463  C   3.969        C  466 0.985    N  462 0.975    C  464 0.969    H  468 0.953
   464  C   3.897        O  465 1.897    C  463 0.969    H  577 0.951
   465  O   2.046        C  464 1.897
   466  C   3.980        C  463 0.985    H  469 0.981    H  471 0.980    H  470 0.977
   467  H   0.942        N  462 0.889
   468  H   0.996        C  463 0.953
   469  H   0.994        C  466 0.981
   470  H   0.994        C  466 0.977
   471  H   0.993        C  466 0.980
   472  N   2.999        C  473 1.014    H  578 0.955    H  479 0.954
   473  C   3.984        N  472 1.014    C  476 0.966    H  480 0.963    C  474 0.937
   474  C   3.939        O  475 1.594    N  488 1.321    C  473 0.937
   475  O   1.965        C  474 1.594    N  488 0.194
   476  C   3.993        C  478 1.009    C  477 1.008    C  473 0.966    H  481 0.957
   477  C   3.996        C  476 1.008    H  484 0.986    H  483 0.982    H  482 0.978
   478  C   3.995        C  476 1.009    H  486 0.985    H  487 0.983    H  485 0.982
   479  H   0.977        N  472 0.954
   480  H   0.998        C  473 0.963
   481  H   0.998        C  476 0.957
   482  H   0.998        C  477 0.978
   483  H   1.000        C  477 0.982
   484  H   0.998        C  477 0.986
   485  H   0.998        C  478 0.982
   486  H   0.998        C  478 0.985
   487  H   0.998        C  478 0.983
   488  N   3.482        C  474 1.321    C  489 0.977    H  497 0.897    O  475 0.194
   489  C   3.973        N  488 0.977    C  492 0.974    C  490 0.971    H  498 0.948
   490  C   3.901        O  491 1.873    C  489 0.971    H  579 0.954
   491  O   2.065        C  490 1.873
   492  C   3.985        C  493 0.995    C  489 0.974    H  500 0.968    H  499 0.967
   493  C   3.995        C  492 0.995    H  502 0.972    C  494 0.961    H  501 0.957
   494  C   3.947        O  495 1.611    N  496 1.347    C  493 0.961
   495  O   1.915        C  494 1.611    N  496 0.204
   496  N   3.413        C  494 1.347    H  504 0.934    H  503 0.850    O  495 0.204
   497  H   0.948        N  488 0.897
   498  H   0.997        C  489 0.948
   499  H   0.994        C  492 0.967
   500  H   0.994        C  492 0.968
   501  H   0.998        C  493 0.957
   502  H   0.997        C  493 0.972
   503  H   0.946        N  496 0.850
   504  H   0.959        N  496 0.934
   505  N   2.993        C  506 1.021    H  580 0.957    H  516 0.923
   506  C   3.987        N  505 1.021    C  509 0.965    H  517 0.960    C  507 0.937
   507  C   3.943        O  508 1.601    N  525 1.316    C  506 0.937
   508  O   1.968        C  507 1.601    N  525 0.193
   509  C   3.994        C  510 1.010    H  518 0.966    C  506 0.965    H  519 0.956
   510  C   3.988        C  511 1.415    C  512 1.406    C  509 1.010    C  515 0.109
   511  C   3.991        C  513 1.440    C  510 1.415    H  520 0.965    C  514 0.110
   512  C   3.991        C  514 1.449    C  510 1.406    H  521 0.965    C  513 0.111
   513  C   3.992        C  515 1.441    C  511 1.440    H  522 0.969    C  512 0.111
   514  C   3.991        C  512 1.449    C  515 1.433    H  523 0.967    C  511 0.110
   515  C   3.990        C  513 1.441    C  514 1.433    H  524 0.967    C  510 0.109
   516  H   0.967        N  505 0.923
   517  H   0.998        C  506 0.960
   518  H   0.997        C  509 0.966
   519  H   0.998        C  509 0.956
   520  H   1.000        C  511 0.965
   521  H   0.998        C  512 0.965
   522  H   0.999        C  513 0.969
   523  H   0.997        C  514 0.967
   524  H   0.999        C  515 0.967
   525  N   3.472        C  507 1.316    C  526 0.982    H  533 0.888    O  508 0.193
   526  C   3.971        N  525 0.982    C  529 0.968    C  527 0.966    H  534 0.943
   527  C   3.908        O  528 1.896    C  526 0.966    H  581 0.954
   528  O   2.044        C  527 1.896
   529  C   3.985        H  535 0.970    C  526 0.968    C  530 0.955    H  536 0.953
   530  C   3.948        O  531 1.657    N  532 1.308    C  529 0.955
   531  O   1.963        C  530 1.657    N  532 0.204
   532  N   3.398        C  530 1.308    H  538 0.926    H  537 0.925    O  531 0.204
   533  H   0.946        N  525 0.888
   534  H   0.993        C  526 0.943
   535  H   0.992        C  529 0.970
   536  H   0.990        C  529 0.953
   537  H   0.946        N  532 0.925
   538  H   0.946        N  532 0.926
   539  N   2.997        C  540 1.013    H  582 0.958    H  547 0.919
   540  C   3.985        N  539 1.013    C  541 0.978    H  548 0.960    C  543 0.947
   541  C   3.889        O  542 1.878    C  540 0.978    H  583 0.955
   542  O   2.017        C  541 1.878
   543  C   3.990        C  545 1.009    C  544 0.994    H  549 0.962    C  540 0.947
   544  C   3.996        C  546 1.018    C  543 0.994    H  550 0.977    H  551 0.972
   545  C   3.995        C  543 1.009    H  554 0.986    H  553 0.983    H  552 0.980
   546  C   3.994        C  544 1.018    H  556 0.986    H  555 0.985    H  557 0.983
   547  H   0.965        N  539 0.919
   548  H   0.998        C  540 0.960
   549  H   0.998        C  543 0.962
   550  H   0.998        C  544 0.977
   551  H   0.999        C  544 0.972
   552  H   0.997        C  545 0.980
   553  H   0.999        C  545 0.983
   554  H   0.998        C  545 0.986
   555  H   0.997        C  546 0.985
   556  H   0.999        C  546 0.986
   557  H   0.998        C  546 0.983
   558  H   0.967        N    1 0.957
   559  H   0.995        C  260 0.956
   560  H   0.964        N  272 0.948
   561  H   0.996        C  274 0.956
   562  H   0.968        N  292 0.958
   563  H   0.994        C  310 0.952
   564  H   0.969        N  327 0.946
   565  H   0.995        C  329 0.954
   566  H   0.969        N  346 0.952
   567  H   0.994        C  348 0.954
   568  H   0.967        N  365 0.946
   569  H   0.995        C  367 0.953
   570  H   0.967        N  381 0.944
   571  H   0.995        C  383 0.955
   572  H   0.971        N  400 0.950
   573  H   0.996        C  402 0.956
   574  H   0.969        N  419 0.957
   575  H   0.992        C  421 0.951
   576  H   0.967        N  443 0.957
   577  H   0.993        C  464 0.951
   578  H   0.965        N  472 0.955
   579  H   0.994        C  490 0.954
   580  H   0.969        N  505 0.957
   581  H   0.994        C  527 0.954
   582  H   0.970        N  539 0.958
   583  H   0.996        C  541 0.955
 
molecular dipole:
                 x           y           z       tot (Debye)
 q only:      -13.027       3.772      22.429
   full:      -12.904       3.074      26.442      75.194
molecular quadrupole (traceless):
                xx          xy          yy          xz          yz          zz
 q only:   -13454.251   -1132.164   -1480.320    3915.162    5707.981   14934.571
  q+dip:   -14287.433   -1388.692   -2571.801    5583.310    6214.882   16859.235
   full:   -14288.151   -1388.596   -2564.073    5588.737    6218.152   16852.223


           -------------------------------------------------
          | TOTAL ENERGY             -873.591813765984 Eh   |
          | GRADIENT NORM               0.805562467573 Eh/α |
          | HOMO-LUMO GAP               1.499470685782 eV   |
           -------------------------------------------------

------------------------------------------------------------------------
 * finished run on 2019/05/31 at 05:35:08.529     
------------------------------------------------------------------------
 total:
 * wall-time:     0 d,  0 h,  0 min, 16.687 sec
 *  cpu-time:     0 d,  0 h,  0 min, 32.861 sec
 * ratio c/w:     1.969 speedup
 SCF:
 * wall-time:     0 d,  0 h,  0 min, 15.920 sec
 *  cpu-time:     0 d,  0 h,  0 min, 31.620 sec
 * ratio c/w:     1.986 speedup

