      -----------------------------------------------------------      
     |                   =====================                   |     
     |                           x T B                           |     
     |                   =====================                   |     
     |                         S. Grimme                         |     
     |          Mulliken Center for Theoretical Chemistry        |     
     |                    University of Bonn                     |     
     |                 Version 6.0.1 (SAW181210)                 |     
      -----------------------------------------------------------      

   This program is distributed in the hope that it will be useful,
   but WITHOUT ANY WARRANTY; without even the implied warranty of
   MERCHANTABILITY or FITNESS FOR A PARTICULAR PURPOSE.
   
   FOR NON-COMMERCIAL, ACADEMIA USE ONLY.
   
   Cite this work as:
   S. Grimme, C. Bannwarth, P. Shushkov, J. Comput. Theory Chem., 2017,
   13, 1989-2009.
   C. Bannwarth, S. Ehlert and S. Grimme., ChemRxiv, 2018, preprint.
   http://doi.org/10.26434/chemrxiv.7246238.v1
   
   for sTDA-xTB:
   S. Grimme and C. Bannwarth, J. Chem. Phys., 2016, 145, 054103.
   
   in the mass-spec context:
   V. Asgeirsson, C. Bauer and S. Grimme, Chem. Sci., 2017, 8, 4879.
   
   if GBSA is used:
   P. Shushkov, F. März and S. Grimme, unpublished.
   
   for ANC optimizer:
   S. Grimme, unpublished.
   Rational Function algorithm used in ANCopt:
   F. Eckert, P. Pulay, H.-J. Werner, J. Comput. Chem., 1997, 18, 1473.
   
   with help from (in alphabetical order)
   C. Bannwarth, F. Bohle, G. Brandenburg, E. Caldeweyher, M. Checinski,
   S. Dohm, S. Ehlert, S. Ehrlich, F. März, H. Neugebauer, J. Pisarek,
   P. Pracht, P. Shushkov, and S. Spicher.
   
 * started run on 2019/03/14 at 15:07:35.832     
========================================================================
 # omp threads = 1
========================================================================
number of atoms            : 251
number of electrons        : 664
charge                     : 0
spin                       : .0
first test random number   : .0492
           ------------------------------------------------- 
          |                 G F N 2 - x T B                 |
          | Geometry, Frequencies, Noncovalent interactions |
          |            JCTC 2018 parametrisation            |
           ------------------------------------------------- 
 
      method parameters     
 k(s)        :  1.8500
 k(p)        :  2.2300
 k(d)        :  2.2300
 k(f)        :  2.0000
 kEN (H0ij)  : -2.0000
 D4 a1       :  0.5200
 D4 a2       :  5.0000
 D4 s6       :  1.0000
 D4 s8       :  2.7000
 D4 s9       :  5.0000
 alphaj      :  2.0000

 Solvent             : h2o
 Using internal parameter file: .param_gbsa2_h2o
 Gsolv ref. state (COSMO-RS): gsolv [1 M gas/solution]
 temperature (mdtemp)       :    298.150000000000     
 dielectric constant        :    80.2000000000000     
 rho                        :    1.00000000000000     
 mass                       :    18.0000000000000     
 surface tension            :    15.5689454083859     
 probe radius               :   0.975313790000000     
 vdW radii scaling          :    1.00000000000000     
 Gshift (Eh)                :   1.857443126794793E-003
 c1                         :    1.55243817000000     
 soset                      :   0.130326360000000     
 HB correction              :  T

            Z     q(EN)     CN     RAES       Cart. coordinates
     1  N   5.0   -0.22    3.22    1.96   105.82203   119.74813    68.75401
     2  C   4.0    0.03    4.23    4.06   107.14280   118.38491    66.78243
     3  C   4.0    0.08    3.23    3.04   105.36690   116.40410    65.68745
     4  O   6.0   -0.30    1.12    1.80   105.15937   116.08942    63.40209
     5  C   4.0   -0.05    4.37    4.32   109.52835   117.07499    67.72687
     6  C   4.0   -0.03    4.19    3.99   111.33378   118.82890    69.15392
     7  C   4.0   -0.08    4.11    3.83   113.27577   117.20129    70.52331
     8  C   4.0   -0.07    4.10    3.81   112.56109   120.71995    67.35686
     9  H   1.0    0.08    1.02    1.43   106.51980   119.73864    70.53908
    10  H   1.0    0.04    1.05    1.44   107.58854   119.71294    65.25126
    11  H   1.0    0.04    1.03    1.43   108.95119   115.51551    68.95005
    12  H   1.0    0.04    1.03    1.43   110.51430   116.28815    66.09536
    13  H   1.0    0.04    1.06    1.44   110.26322   119.88285    70.56103
    14  H   1.0    0.04    1.00    1.43   114.30949   118.31148    71.89774
    15  H   1.0    0.04    1.00    1.43   112.33713   115.66492    71.51192
    16  H   1.0    0.04    1.00    1.43   114.58137   116.38374    69.16671
    17  H   1.0    0.04    1.00    1.43   113.34016   122.33915    68.35142
    18  H   1.0    0.05    1.00    1.43   114.08327   119.85259    66.28347
    19  H   1.0    0.04    1.00    1.43   111.16786   121.43938    66.03388
    20  N   5.0   -0.20    3.20    1.96   100.61154   119.93778    61.92163
    21  C   4.0    0.04    4.24    4.08   101.48691   120.82574    59.49877
    22  C   4.0    0.08    3.21    3.04   102.18983   118.59233    57.82249
    23  O   6.0   -0.29    1.12    1.80   101.70110   118.67140    55.55427
    24  C   4.0   -0.04    4.28    4.17   103.60550   122.78311    59.70053
    25  C   4.0   -0.02    3.51    3.12   102.78466   125.47928    60.22910
    26  C   4.0   -0.05    3.47    3.10   104.60254   127.20080    61.04596
    27  C   4.0   -0.04    3.47    3.10   100.35415   126.38020    59.81104
    28  C   4.0   -0.04    3.37    3.07   104.01982   129.72362    61.41211
    29  C   4.0   -0.04    3.38    3.07    99.76179   128.90613    60.17741
    30  C   4.0   -0.04    3.36    3.07   101.59154   130.59420    60.97160
    31  H   1.0    0.09    1.02    1.43   101.82783   120.00967    63.40299
    32  H   1.0    0.05    1.07    1.44    99.85634   121.66650    58.53188
    33  H   1.0    0.04    1.03    1.43   104.92433   122.16633    61.16413
    34  H   1.0    0.05    1.03    1.43   104.63024   122.78423    57.90188
    35  H   1.0    0.04    1.03    1.43   106.51575   126.57190    61.38476
    36  H   1.0    0.05    1.03    1.43    98.86615   125.13627    59.18160
    37  H   1.0    0.04    1.03    1.43   105.47166   131.01616    62.03495
    38  H   1.0    0.05    1.03    1.43    97.85955   129.55884    59.82663
    39  H   1.0    0.05    1.03    1.43   101.13385   132.56400    61.24657
    40  N   5.0   -0.22    3.24    1.97   120.80266   123.98339    45.21592
    41  C   4.0    0.02    4.32    4.24   121.46089   126.33553    46.44657
    42  C   4.0    0.15    3.50    3.11   119.93696   126.56663    48.88554
    43  O   6.0   -0.33    1.38    1.80   120.99929   126.89593    50.94163
    44  C   4.0   -0.04    4.33    4.25   120.96491   128.51951    44.60069
    45  C   4.0   -0.02    3.57    3.15   120.20147   130.97673    45.81154
    46  C   4.0   -0.05    3.47    3.10   118.25066   132.38303    44.75383
    47  C   4.0   -0.03    3.49    3.11   121.42817   131.91371    47.93565
    48  C   4.0   -0.04    3.37    3.07   117.53405   134.67317    45.78887
    49  C   4.0   -0.04    3.37    3.07   120.69662   134.19262    48.99461
    50  C   4.0   -0.04    3.37    3.07   118.75907   135.58255    47.91456
    51  H   1.0    0.08    1.03    1.43   120.14130   124.09252    43.41767
    52  H   1.0    0.04    1.05    1.44   123.45557   126.25911    47.02128
    53  H   1.0    0.04    1.03    1.43   122.68128   128.79861    43.48638
    54  H   1.0    0.04    1.04    1.43   119.45886   127.92897    43.32332
    55  H   1.0    0.04    1.03    1.43   117.29632   131.68472    43.08874
    56  H   1.0    0.06    1.03    1.43   122.96368   130.86406    48.77844
    57  H   1.0    0.05    1.03    1.43   116.01230   135.74047    44.94785
    58  H   1.0    0.05    1.03    1.43   121.64069   134.87569    50.67221
    59  H   1.0    0.05    1.03    1.43   118.21433   137.37240    48.72687
    60  N   5.0   -0.15    3.49    2.07   117.46176   126.35672    48.67314
    61  C   4.0    0.03    4.52    4.57   115.85619   126.59220    50.86396
    62  C   4.0    0.15    3.49    3.11   116.48871   124.60009    52.85962
    63  O   6.0   -0.34    1.41    1.80   116.65242   125.31731    55.06447
    64  C   4.0   -0.03    4.26    4.12   113.04533   126.58455    50.14973
    65  C   4.0   -0.08    4.14    3.89   111.40760   126.61875    52.52295
    66  C   4.0   -0.08    4.13    3.86   112.40406   128.92174    48.58771
    67  H   1.0    0.07    1.06    1.44   116.61034   126.02629    46.97859
    68  H   1.0    0.05    1.06    1.44   116.27773   128.40256    51.80173
    69  H   1.0    0.04    1.05    1.44   112.67145   124.87786    49.04676
    70  H   1.0    0.04    1.00    1.43   109.42660   126.60620    51.98803
    71  H   1.0    0.04    1.00    1.43   111.79791   125.02310    53.75244
    72  H   1.0    0.04    1.00    1.43   111.77101   128.33015    53.60205
    73  H   1.0    0.04    1.00    1.43   110.43250   128.84103    48.01994
    74  H   1.0    0.04    1.00    1.43   112.70404   130.60244    49.72839
    75  H   1.0    0.04    1.00    1.43   113.55418   129.05747    46.89860
    76  N   5.0   -0.15    3.48    2.06   116.77914   122.20229    52.19253
    77  C   4.0    0.03    4.50    4.53   117.25113   120.21571    54.04192
    78  C   4.0    0.15    3.54    3.13   119.87322   120.63185    55.15133
    79  O   6.0   -0.32    1.35    1.80   120.33992   120.53911    57.42451
    80  C   4.0   -0.03    4.29    4.17   116.86000   117.52669    52.95620
    81  C   4.0   -0.05    4.16    3.93   115.75851   115.71910    54.95810
    82  C   4.0   -0.08    4.13    3.86   119.24198   116.40286    51.76550
    83  C   4.0   -0.07    4.03    3.67   117.20157   115.63267    57.44839
    84  H   1.0    0.07    1.06    1.44   116.50660   121.68107    50.36751
    85  H   1.0    0.05    1.07    1.44   115.89396   120.48982    55.57204
    86  H   1.0    0.04    1.06    1.44   115.44470   117.72852    51.45953
    87  H   1.0    0.04    1.03    1.43   113.80539   116.25386    55.35180
    88  H   1.0    0.04    1.03    1.43   115.74947   113.81425    54.16668
    89  H   1.0    0.04    1.00    1.43   118.79400   114.62772    50.82959
    90  H   1.0    0.04    1.00    1.43   120.02603   117.69490    50.37972
    91  H   1.0    0.04    1.00    1.43   120.68937   116.02374    53.17411
    92  H   1.0    0.04    1.00    1.43   116.50246   114.09061    58.60999
    93  H   1.0    0.05    1.00    1.43   119.20552   115.32051    57.12952
    94  H   1.0    0.05    1.00    1.43   116.99979   117.38459    58.49864
    95  N   5.0   -0.14    3.57    2.13   121.64695   121.17612    53.45809
    96  C   4.0    0.04    4.50    4.54   124.17092   121.67993    54.31799
    97  C   4.0    0.17    3.62    3.18   124.08345   123.82862    56.22903
    98  O   6.0   -0.33    1.36    1.80   125.56735   123.82731    58.00208
    99  C   4.0   -0.04    4.08    3.77   126.04440   122.24938    52.19347
   100  S   6.0   -0.05    2.43    3.10   126.74631   125.59133    51.68503
   101  H   1.0    0.08    1.07    1.44   121.26755   121.30881    51.58321
   102  H   1.0    0.05    1.06    1.44   124.84160   120.00801    55.36286
   103  H   1.0    0.04    1.08    1.44   127.88252   121.44316    52.64316
   104  H   1.0    0.04    1.07    1.44   125.35481   121.48021    50.41723
   105  H   1.0    0.07    1.03    1.43   124.39637   126.31065    51.07181
   106  N   5.0   -0.13    3.56    2.12   122.32828   125.61365    55.88891
   107  C   4.0    0.04    4.39    4.37   122.32235   127.86640    57.43561
   108  C   4.0    0.15    3.43    3.09   120.63072   127.62108    59.76728
   109  O   6.0   -0.33    1.39    1.80   121.30508   128.60386    61.75895
   110  C   4.0    0.04    4.15    3.90   121.51287   130.18181    55.86753
   111  O   6.0   -0.26    2.04    1.83   122.27590   132.46686    56.95259
   112  H   1.0    0.12    1.12    1.45   121.41616   125.74775    54.20357
   113  H   1.0    0.06    1.06    1.44   124.24691   128.19897    58.14964
   114  H   1.0    0.06    1.02    1.43   122.43312   130.08438    54.02133
   115  H   1.0    0.05    1.01    1.43   119.45388   130.13392    55.60673
   116  H   1.0    0.13    1.04    1.43   121.73729   132.53713    58.70030
   117  N   5.0   -0.15    3.55    2.12   118.47411   126.36157    59.52010
   118  C   4.0    0.03    4.52    4.56   116.84516   125.88327    61.66955
   119  C   4.0    0.15    3.47    3.10   118.06280   123.88682    63.35716
   120  O   6.0   -0.33    1.33    1.80   117.58985   123.82751    65.62563
   121  C   4.0   -0.02    4.31    4.22   114.13443   124.99916    61.00348
   122  C   4.0   -0.04    4.22    4.04   114.24427   122.31251    59.90948
   123  C   4.0   -0.08    4.12    3.83   112.84290   126.94583    59.31590
   124  C   4.0   -0.08    4.02    3.65   111.91011   121.48116    58.44243
   125  H   1.0    0.12    1.17    1.46   117.89972   125.79333    57.77733
   126  H   1.0    0.05    1.06    1.44   116.72122   127.62913    62.78138
   127  H   1.0    0.04    1.06    1.44   113.11438   124.93261    62.80395
   128  H   1.0    0.06    1.04    1.43   115.87925   122.21711    58.66853
   129  H   1.0    0.04    1.03    1.43   114.56240   120.99235    61.46287
   130  H   1.0    0.03    1.00    1.43   110.92479   126.39613    58.83049
   131  H   1.0    0.04    1.00    1.43   112.75609   128.73368    60.32077
   132  H   1.0    0.06    1.01    1.43   113.90821   127.19433    57.58585
   133  H   1.0    0.04    1.00    1.43   112.00461   119.46690    58.04173
   134  H   1.0    0.04    1.00    1.43   110.19662   121.82266    59.51548
   135  H   1.0    0.04    1.00    1.43   111.78995   122.49443    56.66242
   136  N   5.0   -0.14    3.47    2.06   119.55838   122.25403    62.16848
   137  C   4.0    0.02    4.23    4.06   121.08860   120.35074    63.36158
   138  C   4.0    0.16    3.37    3.07   123.57894   121.44857    64.30212
   139  O   6.0   -0.32    1.38    1.80   124.45311   120.75212    66.32459
   140  H   1.0    0.11    1.13    1.45   119.74930   122.34016    60.26493
   141  H   1.0    0.07    1.04    1.43   120.15791   119.57781    65.04236
   142  H   1.0    0.05    1.02    1.43   121.42466   118.84701    61.98941
   143  N   5.0   -0.14    3.52    2.09   124.68744   123.28319    62.94889
   144  C   4.0    0.05    4.50    4.53   126.89316   124.51389    64.03034
   145  C   4.0    0.16    3.54    3.13   125.97489   126.08517    66.26438
   146  O   6.0   -0.31    1.31    1.80   127.17950   126.20114    68.23625
   147  C   4.0    0.05    4.21    4.02   128.48648   126.09454    62.16013
   148  O   6.0   -0.25    2.11    1.84   131.05505   125.59099    62.73563
   149  C   4.0   -0.07    4.10    3.81   127.91845   128.92543    62.27502
   150  H   1.0    0.12    1.12    1.45   124.36153   123.53244    61.07874
   151  H   1.0    0.07    1.06    1.44   128.17123   123.07467    64.81313
   152  H   1.0    0.07    1.07    1.44   128.09030   125.39344    60.25744
   153  H   1.0    0.12    1.02    1.43   132.10722   126.53716    61.58032
   154  H   1.0    0.04    1.00    1.43   128.94840   129.91829    60.79851
   155  H   1.0    0.06    1.01    1.43   125.91253   129.25956    62.01200
   156  H   1.0    0.05    1.00    1.43   128.48459   129.69149    64.09833
   157  N   5.0   -0.14    3.58    2.14   123.77409   127.26937    65.91568
   158  C   4.0    0.04    4.46    4.48   122.59738   128.61877    67.97685
   159  C   4.0    0.16    3.52    3.13   122.08374   126.64819    70.00434
   160  O   6.0   -0.33    1.47    1.80   123.02461   126.98300    72.09361
   161  C   4.0   -0.04    4.30    4.20   120.26941   130.13048    67.18977
   162  C   4.0    0.00    3.57    3.15   120.80687   132.21591    65.31238
   163  C   4.0   -0.04    3.47    3.10   118.76587   133.38144    64.13095
   164  C   4.0   -0.03    3.49    3.11   123.22863   133.01713    64.69881
   165  C   4.0   -0.04    3.37    3.07   119.13360   135.21149    62.30318
   166  C   4.0   -0.04    3.38    3.07   123.60365   134.84646    62.86341
   167  C   4.0   -0.04    3.39    3.07   121.56302   135.92779    61.63568
   168  H   1.0    0.12    1.15    1.45   122.89426   127.36888    64.21174
   169  H   1.0    0.05    1.06    1.44   123.99367   129.89134    68.84339
   170  H   1.0    0.05    1.03    1.43   118.86139   128.85607    66.37929
   171  H   1.0    0.04    1.03    1.43   119.43193   130.98182    68.88011
   172  H   1.0    0.04    1.03    1.43   116.86424   132.84632    64.64984
   173  H   1.0    0.05    1.04    1.43   124.85762   132.21230    65.62125
   174  H   1.0    0.05    1.03    1.43   117.52779   136.06811    61.38099
   175  H   1.0    0.05    1.03    1.43   125.50056   135.41484    62.37080
   176  H   1.0    0.05    1.03    1.43   121.86398   137.31542    60.17274
   177  N   5.0   -0.13    3.49    2.07   120.75405   124.58838    69.46533
   178  C   4.0    0.04    4.45    4.47   120.09154   122.90204    71.52036
   179  C   4.0    0.17    3.52    3.13   122.41625   121.86176    72.86228
   180  O   6.0   -0.30    1.27    1.80   122.55003   121.86341    75.17817
   181  C   4.0    0.03    4.18    3.97   118.40664   120.74464    70.65149
   182  O   6.0   -0.25    2.08    1.84   119.66640   119.02719    69.05710
   183  H   1.0    0.12    1.15    1.45   119.72086   124.36258    67.84193
   184  H   1.0    0.04    1.07    1.44   119.01353   123.94189    72.94987
   185  H   1.0    0.04    1.02    1.43   117.76529   119.78526    72.36967
   186  H   1.0    0.05    1.02    1.43   116.80623   121.56638    69.63255
   187  H   1.0    0.11    1.03    1.43   118.74994   117.45513    69.13885
   188  N   5.0   -0.13    3.58    2.14   124.22645   121.03340    71.35225
   189  C   4.0    0.04    4.53    4.58   126.52925   120.00826    72.40058
   190  C   4.0    0.16    3.54    3.13   127.75915   122.05565    74.00387
   191  O   6.0   -0.28    1.24    1.80   128.74438   121.55228    76.04974
   192  C   4.0   -0.02    4.34    4.28   128.23800   119.04309    70.26789
   193  C   4.0   -0.04    4.20    4.00   127.25413   116.47236    69.36179
   194  C   4.0   -0.07    4.13    3.87   130.98353   118.85639    71.11315
   195  C   4.0   -0.07    4.01    3.63   128.02791   115.84218    66.66258
   196  H   1.0    0.13    1.14    1.45   123.85604   120.76759    69.48134
   197  H   1.0    0.06    1.05    1.44   126.05653   118.46155    73.71435
   198  H   1.0    0.06    1.07    1.44   128.08944   120.41978    68.73491
   199  H   1.0    0.04    1.03    1.43   127.94151   115.01850    70.65562
   200  H   1.0    0.05    1.03    1.43   125.19581   116.47868    69.47276
   201  H   1.0    0.04    1.00    1.43   132.11380   118.02593    69.61642
   202  H   1.0    0.05    1.00    1.43   131.73877   120.71187    71.56753
   203  H   1.0    0.05    1.00    1.43   131.13588   117.66830    72.78481
   204  H   1.0    0.04    1.00    1.43   127.34097   113.97321    66.16106
   205  H   1.0    0.06    1.00    1.43   127.19622   117.21455    65.38623
   206  H   1.0    0.04    1.00    1.43   130.06798   115.87127    66.43932
   207  N   5.0   -0.13    3.54    2.11   127.68871   124.39897    73.09309
   208  C   4.0    0.04    4.45    4.47   128.55241   126.47007    74.65558
   209  C   4.0    0.17    3.51    3.12   126.90728   126.62598    77.02195
   210  O   6.0   -0.28    1.27    1.80   127.89123   126.86696    79.11481
   211  C   4.0   -0.03    4.32    4.24   128.48889   128.97738    73.22487
   212  C   4.0   -0.01    3.53    3.13   129.55880   131.22713    74.61818
   213  C   4.0   -0.04    3.48    3.10   129.03432   133.62774    73.66905
   214  C   4.0   -0.03    3.48    3.11   131.06079   131.05204    76.76267
   215  C   4.0   -0.04    3.37    3.07   129.91865   135.78118    74.85347
   216  C   4.0   -0.03    3.38    3.07   131.93835   133.21120    77.96602
   217  C   4.0   -0.04    3.37    3.07   131.35526   135.58210    77.03256
   218  H   1.0    0.12    1.11    1.45   127.07676   124.79512    71.31927
   219  H   1.0    0.06    1.06    1.44   130.47394   126.00283    75.28913
   220  H   1.0    0.06    1.03    1.43   129.49686   128.72887    71.43688
   221  H   1.0    0.06    1.04    1.43   126.51160   129.35225    72.76848
   222  H   1.0    0.05    1.03    1.43   127.92472   133.80880    71.96559
   223  H   1.0    0.07    1.03    1.43   131.54993   129.23562    77.54685
   224  H   1.0    0.05    1.03    1.43   129.49771   137.61457    74.06386
   225  H   1.0    0.05    1.03    1.43   133.11310   133.02764    79.62699
   226  H   1.0    0.05    1.03    1.43   132.03750   137.25904    77.97126
   227  N   5.0   -0.13    3.54    2.10   124.42777   126.60428    76.75583
   228  C   4.0    0.05    4.34    4.27   122.77555   126.72889    78.92268
   229  C   4.0    0.11    3.26    3.05   123.47284   124.67296    80.84152
   230  O   6.0   -0.27    1.11    1.80   123.14764   125.02390    83.11050
   231  C   4.0   -0.04    4.33    4.26   119.98810   126.40099    78.18999
   232  C   4.0   -0.02    4.21    4.01   119.12790   128.11379    76.01696
   233  C   4.0   -0.08    4.10    3.80   116.50551   127.40847    75.02580
   234  C   4.0   -0.08    4.11    3.82   119.17411   130.90165    76.71061
   235  H   1.0    0.13    1.17    1.46   123.64737   126.21246    75.05642
   236  H   1.0    0.06    1.05    1.44   123.08703   128.56031    79.85684
   237  H   1.0    0.06    1.03    1.43   119.71872   124.42437    77.64621
   238  H   1.0    0.05    1.03    1.43   118.83466   126.74923    79.85610
   239  H   1.0    0.07    1.11    1.45   120.46401   127.83218    74.49239
   240  H   1.0    0.04    1.00    1.43   116.33864   127.86252    73.02687
   241  H   1.0    0.04    1.00    1.43   116.13650   125.40301    75.27052
   242  H   1.0    0.04    1.00    1.43   115.05401   128.44042    76.03817
   243  H   1.0    0.04    1.00    1.43   118.64288   131.99671    75.05629
   244  H   1.0    0.04    1.00    1.43   117.83423   131.30721    78.21017
   245  H   1.0    0.04    1.00    1.43   121.06170   131.42713    77.30840
   246  H   1.0    0.09    1.07    1.44   105.73951   121.39728    68.34651
   247  H   1.0    0.05    1.05    1.44   104.33368   115.32069    66.84060
   248  H   1.0    0.09    1.07    1.44    99.26706   120.85710    62.41129
   249  H   1.0    0.07    1.04    1.43   103.04103   117.08026    58.57093
   250  H   1.0    0.09    1.07    1.44   122.17443   122.98118    45.13602
   251  H   1.0    0.08    1.04    1.44   124.19806   123.03237    80.24690

  Z AO/shell   Hii/eV     exponent
  1     Wed Apr 25 08:07:45 CEST 2018   EN: 2.200 GM2: 0.406  GM3: 0.0800  RAES: 1.40
     1s    -10.707211    1.230000
  6     Wed Apr 25 08:07:45 CEST 2018   EN: 2.550 GM2: 0.538  GM3: 0.1500  RAES: 3.00
     2s    -13.970922    2.096432
     2p    -10.063292    1.800000
  7     Wed Apr 25 08:07:45 CEST 2018   EN: 3.040 GM2: 0.461  GM3:-0.0640  RAES: 1.90
     2s    -16.686243    2.339881
     2p    -12.523956    2.014332
  8     Wed Apr 25 08:07:45 CEST 2018   EN: 3.440 GM2: 0.452  GM3:-0.0517  RAES: 1.80
     2s    -20.229985    2.439742
     2p    -15.503117    2.137023
 16     Tue Apr 24 11:44:34 CEST 2018   EN: 2.580 GM2: 0.340  GM3:-0.0502  RAES: 3.10
     3s    -20.029654    1.981333
     3p    -11.377694    2.025643
     3d     -0.420282    1.702555
 no old-style atom pair restraining (fixing) potential

molecular fragmentation (1/2 indicates fragments):
111111111111111111122222222222222222222222222222222222222222222222222222
222222222222222222222222222222222222222222222222222222222222222222222222
222222222222222222222222222222222222222222222222222222222222222222222222
22222222222222222222222222222112222
# atoms in fragment 1/2:    21   230
 fragment masses (1/2) :      115.17     1579.96
CMA distance (Bohr)    :  14.536
constraining FC (au)   :  0.0500
           ------------------------------------------------- 
          |        Self-Consistent Charge Iterations        |
           ------------------------------------------------- 

 Ncao       : 617
 Nao        : 616
 Nshell     : 372
 Nel        : 664
 T(el)      :   500.0
 intcut     :    35.0
 scfconv/Eh :  0.100E-06
   qconv/e  :  0.100E-04
 intneglect :  0.100E-08
 broydamp   :      0.400
 iter      E             dE          RMSdq      gap      omega  full diag
   1   -375.5307317 -0.375531E+03  0.439E+00    3.22       0.0  T
   2   -376.2417916 -0.711060E+00  0.214E+00    2.26       1.0  T
   3   -376.2725822 -0.307906E-01  0.114E+00    2.61       1.0  T
   4   -376.3291824 -0.566001E-01  0.221E-01    2.23       1.0  T
   5   -376.3319735 -0.279115E-02  0.983E-02    2.35       1.0  T
   6   -376.3324151 -0.441619E-03  0.417E-02    2.34       1.0  T
   7   -376.3325655 -0.150324E-03  0.177E-02    2.32       1.0  T
   8   -376.3325747 -0.924852E-05  0.787E-03    2.32       1.0  T
   9   -376.3325778 -0.312676E-05  0.322E-03    2.32       2.0  T
  10   -376.3325783 -0.428817E-06  0.146E-03    2.32       4.3  T
  11   -376.3325783 -0.903883E-07  0.663E-04    2.32       9.5  T
  12   -376.3325784 -0.159951E-07  0.299E-04    2.32      21.1  T
  13   -376.3325784 -0.683804E-08  0.142E-04    2.32      44.5  T
  14   -376.3325784 -0.780005E-09  0.660E-05    2.32      95.7  T
  15   -376.3325784 -0.192188E-09  0.266E-05    2.32     237.0  T
speedup  1.00
cpu  time for SCC    2.30 s
wall time for SCC    2.30 s

   *** convergence criteria satisfied after 15 iterations ***

          eigenvalues
 #    :         320        321        322        323        324        325        326        327
 occ. :        2.000      2.000      2.000      2.000      2.000      2.000      2.000      2.000
 eps  :       -10.872    -10.812    -10.805    -10.770    -10.710    -10.666    -10.590    -10.516
 #    :         328        329        330        331        332        333        334        335
 occ. :        2.000      2.000      2.000      2.000      2.000      0.000      0.000      0.000
 eps  :       -10.475    -10.417    -10.313    -10.070     -9.980     -7.663     -7.649     -7.531
 #    :         336        337        338        339        340        341        342        343
 occ. :        0.000      0.000      0.000      0.000      0.000      0.000      0.000      0.000
 eps  :        -7.059     -6.882     -6.774     -6.731     -6.646     -6.506     -6.340     -6.313


   #   Z            q   n(s)   n(p)   n(d)      C6AA      α(0)
   1   7 N     -0.391  1.310  4.081  0.000    30.135     8.153
   2   6 C      0.044  1.053  2.903  0.000    19.851     6.347
   3   6 C      0.196  1.093  2.711  0.000    23.817     7.993
   4   8 O     -0.375  1.756  4.619  0.000    21.190     6.172
   5   6 C     -0.073  1.059  3.013  0.000    21.877     6.657
   6   6 C     -0.011  1.055  2.956  0.000    20.740     6.477
   7   6 C     -0.122  1.042  3.080  0.000    22.886     6.820
   8   6 C     -0.113  1.039  3.074  0.000    22.709     6.795
   9   1 H      0.167  0.833  0.000  0.000     1.294     1.782
  10   1 H      0.045  0.955  0.000  0.000     2.379     2.412
  11   1 H      0.046  0.954  0.000  0.000     2.370     2.407
  12   1 H      0.052  0.948  0.000  0.000     2.295     2.369
  13   1 H      0.039  0.961  0.000  0.000     2.458     2.452
  14   1 H      0.040  0.960  0.000  0.000     2.443     2.444
  15   1 H      0.044  0.956  0.000  0.000     2.396     2.421
  16   1 H      0.040  0.960  0.000  0.000     2.450     2.448
  17   1 H      0.042  0.958  0.000  0.000     2.428     2.437
  18   1 H      0.041  0.959  0.000  0.000     2.441     2.443
  19   1 H      0.044  0.956  0.000  0.000     2.398     2.421
  20   7 N     -0.385  1.314  4.071  0.000    29.960     8.129
  21   6 C      0.040  1.052  2.907  0.000    19.915     6.357
  22   6 C      0.202  1.092  2.706  0.000    23.706     7.974
  23   8 O     -0.385  1.759  4.626  0.000    21.379     6.199
  24   6 C     -0.068  1.056  3.012  0.000    21.802     6.647
  25   6 C      0.013  1.084  2.903  0.000    27.719     8.636
  26   6 C     -0.042  1.080  2.962  0.000    29.052     8.839
  27   6 C     -0.041  1.077  2.963  0.000    29.007     8.832
  28   6 C     -0.033  1.081  2.952  0.000    28.833     8.805
  29   6 C     -0.033  1.081  2.952  0.000    28.812     8.802
  30   6 C     -0.036  1.080  2.956  0.000    28.890     8.814
  31   1 H      0.152  0.848  0.000  0.000     1.389     1.846
  32   1 H      0.064  0.936  0.000  0.000     2.151     2.294
  33   1 H      0.055  0.945  0.000  0.000     2.263     2.353
  34   1 H      0.059  0.941  0.000  0.000     2.214     2.327
  35   1 H      0.039  0.961  0.000  0.000     2.464     2.455
  36   1 H      0.031  0.969  0.000  0.000     2.568     2.506
  37   1 H      0.040  0.960  0.000  0.000     2.455     2.450
  38   1 H      0.032  0.968  0.000  0.000     2.559     2.502
  39   1 H      0.033  0.967  0.000  0.000     2.550     2.497
  40   7 N     -0.394  1.312  4.082  0.000    30.194     8.161
  41   6 C      0.029  1.058  2.913  0.000    20.105     6.387
  42   6 C      0.267  1.049  2.684  0.000    22.488     7.766
  43   8 O     -0.503  1.746  4.757  0.000    23.850     6.548
  44   6 C     -0.081  1.060  3.021  0.000    22.031     6.681
  45   6 C      0.003  1.082  2.915  0.000    27.951     8.672
  46   6 C     -0.044  1.081  2.963  0.000    29.089     8.845
  47   6 C     -0.040  1.079  2.961  0.000    28.982     8.828
  48   6 C     -0.033  1.081  2.952  0.000    28.818     8.803
  49   6 C     -0.032  1.081  2.950  0.000    28.794     8.800
  50   6 C     -0.034  1.080  2.954  0.000    28.856     8.809
  51   1 H      0.173  0.827  0.000  0.000     1.253     1.753
  52   1 H      0.045  0.955  0.000  0.000     2.377     2.411
  53   1 H      0.065  0.935  0.000  0.000     2.140     2.288
  54   1 H      0.063  0.937  0.000  0.000     2.163     2.300
  55   1 H      0.041  0.959  0.000  0.000     2.436     2.441
  56   1 H      0.029  0.971  0.000  0.000     2.606     2.525
  57   1 H      0.039  0.961  0.000  0.000     2.458     2.452
  58   1 H      0.032  0.968  0.000  0.000     2.562     2.503
  59   1 H      0.032  0.968  0.000  0.000     2.552     2.498
  60   7 N     -0.151  1.239  3.911  0.000    24.258     7.315
  61   6 C      0.010  1.066  2.924  0.000    20.410     6.431
  62   6 C      0.271  1.044  2.685  0.000    22.430     7.755
  63   8 O     -0.477  1.729  4.748  0.000    23.278     6.469
  64   6 C     -0.024  1.063  2.960  0.000    20.963     6.512
  65   6 C     -0.120  1.040  3.080  0.000    22.850     6.815
  66   6 C     -0.125  1.042  3.084  0.000    22.952     6.830
  67   1 H      0.229  0.771  0.000  0.000     0.967     1.541
  68   1 H      0.085  0.915  0.000  0.000     1.927     2.171
  69   1 H      0.058  0.942  0.000  0.000     2.221     2.330
  70   1 H      0.061  0.939  0.000  0.000     2.192     2.315
  71   1 H      0.043  0.957  0.000  0.000     2.411     2.428
  72   1 H      0.053  0.947  0.000  0.000     2.279     2.361
  73   1 H      0.063  0.937  0.000  0.000     2.167     2.302
  74   1 H      0.051  0.949  0.000  0.000     2.302     2.373
  75   1 H      0.049  0.951  0.000  0.000     2.336     2.390
  76   7 N     -0.173  1.244  3.929  0.000    24.750     7.389
  77   6 C      0.002  1.068  2.930  0.000    20.549     6.454
  78   6 C      0.279  1.039  2.681  0.000    22.275     7.730
  79   8 O     -0.481  1.744  4.737  0.000    23.378     6.483
  80   6 C     -0.031  1.072  2.960  0.000    21.100     6.534
  81   6 C     -0.068  1.053  3.015  0.000    21.803     6.648
  82   6 C     -0.126  1.041  3.085  0.000    22.972     6.835
  83   6 C     -0.113  1.035  3.078  0.000    22.730     6.799
  84   1 H      0.221  0.779  0.000  0.000     1.003     1.569
  85   1 H      0.103  0.897  0.000  0.000     1.758     2.073
  86   1 H      0.071  0.929  0.000  0.000     2.076     2.253
  87   1 H      0.046  0.954  0.000  0.000     2.371     2.408
  88   1 H      0.057  0.943  0.000  0.000     2.235     2.338
  89   1 H      0.066  0.934  0.000  0.000     2.134     2.284
  90   1 H      0.048  0.952  0.000  0.000     2.342     2.393
  91   1 H      0.042  0.958  0.000  0.000     2.419     2.432
  92   1 H      0.042  0.958  0.000  0.000     2.424     2.435
  93   1 H      0.034  0.966  0.000  0.000     2.525     2.485
  94   1 H      0.042  0.958  0.000  0.000     2.418     2.432
  95   7 N     -0.173  1.240  3.933  0.000    24.736     7.387
  96   6 C      0.022  1.057  2.921  0.000    20.181     6.393
  97   6 C      0.290  1.037  2.674  0.000    22.086     7.697
  98   8 O     -0.486  1.743  4.743  0.000    23.479     6.497
  99   6 C     -0.019  1.066  2.953  0.000    20.917     6.512
 100  16 S     -0.351  1.945  4.365  0.041   156.433    21.051
 101   1 H      0.211  0.789  0.000  0.000     1.050     1.605
 102   1 H      0.085  0.915  0.000  0.000     1.924     2.169
 103   1 H      0.079  0.921  0.000  0.000     1.986     2.204
 104   1 H      0.082  0.918  0.000  0.000     1.956     2.187
 105   1 H      0.213  0.787  0.000  0.000     1.034     1.590
 106   7 N     -0.190  1.255  3.935  0.000    25.115     7.443
 107   6 C      0.009  1.065  2.927  0.000    20.432     6.436
 108   6 C      0.259  1.044  2.697  0.000    22.637     7.791
 109   8 O     -0.497  1.743  4.755  0.000    23.728     6.531
 110   6 C      0.076  1.037  2.886  0.000    19.515     6.328
 111   8 O     -0.450  1.706  4.745  0.000    21.850     6.310
 112   1 H      0.232  0.768  0.000  0.000     0.956     1.532
 113   1 H      0.079  0.921  0.000  0.000     1.994     2.208
 114   1 H      0.079  0.921  0.000  0.000     1.995     2.209
 115   1 H      0.041  0.959  0.000  0.000     2.431     2.438
 116   1 H      0.308  0.692  0.000  0.000     0.696     1.311
 117   7 N     -0.196  1.256  3.940  0.000    25.259     7.464
 118   6 C      0.016  1.066  2.918  0.000    20.311     6.416
 119   6 C      0.266  1.043  2.691  0.000    22.509     7.769
 120   8 O     -0.480  1.733  4.747  0.000    23.349     6.479
 121   6 C     -0.021  1.067  2.955  0.000    20.920     6.505
 122   6 C     -0.068  1.049  3.019  0.000    21.808     6.649
 123   6 C     -0.127  1.039  3.088  0.000    22.997     6.838
 124   6 C     -0.108  1.035  3.073  0.000    22.625     6.783
 125   1 H      0.259  0.741  0.000  0.000     0.849     1.443
 126   1 H      0.074  0.926  0.000  0.000     2.042     2.235
 127   1 H      0.053  0.947  0.000  0.000     2.288     2.366
 128   1 H      0.045  0.955  0.000  0.000     2.378     2.411
 129   1 H      0.032  0.968  0.000  0.000     2.554     2.499
 130   1 H      0.062  0.938  0.000  0.000     2.176     2.307
 131   1 H      0.044  0.956  0.000  0.000     2.398     2.422
 132   1 H      0.068  0.932  0.000  0.000     2.111     2.272
 133   1 H      0.045  0.955  0.000  0.000     2.380     2.412
 134   1 H      0.042  0.958  0.000  0.000     2.425     2.435
 135   1 H      0.046  0.954  0.000  0.000     2.374     2.409
 136   7 N     -0.172  1.239  3.933  0.000    24.727     7.385
 137   6 C     -0.044  1.053  2.991  0.000    21.430     6.605
 138   6 C      0.272  1.043  2.685  0.000    22.400     7.751
 139   8 O     -0.472  1.739  4.733  0.000    23.168     6.453
 140   1 H      0.227  0.773  0.000  0.000     0.980     1.550
 141   1 H      0.119  0.881  0.000  0.000     1.625     1.993
 142   1 H      0.102  0.898  0.000  0.000     1.763     2.077
 143   7 N     -0.203  1.260  3.944  0.000    25.423     7.489
 144   6 C      0.022  1.063  2.915  0.000    20.203     6.399
 145   6 C      0.282  1.040  2.678  0.000    22.227     7.721
 146   8 O     -0.496  1.743  4.753  0.000    23.703     6.527
 147   6 C      0.105  1.050  2.845  0.000    18.950     6.216
 148   8 O     -0.496  1.735  4.761  0.000    22.814     6.448
 149   6 C     -0.133  1.044  3.089  0.000    23.110     6.856
 150   1 H      0.225  0.775  0.000  0.000     0.988     1.557
 151   1 H      0.080  0.920  0.000  0.000     1.980     2.201
 152   1 H      0.066  0.934  0.000  0.000     2.133     2.284
 153   1 H      0.343  0.657  0.000  0.000     0.605     1.222
 154   1 H      0.060  0.940  0.000  0.000     2.202     2.320
 155   1 H      0.060  0.940  0.000  0.000     2.195     2.317
 156   1 H      0.044  0.956  0.000  0.000     2.398     2.422
 157   7 N     -0.198  1.255  3.943  0.000    25.292     7.469
 158   6 C      0.033  1.056  2.912  0.000    20.027     6.372
 159   6 C      0.275  1.042  2.684  0.000    22.358     7.744
 160   8 O     -0.489  1.739  4.750  0.000    23.533     6.504
 161   6 C     -0.075  1.053  3.022  0.000    21.923     6.665
 162   6 C      0.024  1.081  2.895  0.000    27.465     8.596
 163   6 C     -0.042  1.079  2.963  0.000    29.034     8.837
 164   6 C     -0.037  1.077  2.960  0.000    28.922     8.819
 165   6 C     -0.038  1.080  2.957  0.000    28.935     8.821
 166   6 C     -0.034  1.081  2.953  0.000    28.843     8.807
 167   6 C     -0.041  1.080  2.961  0.000    29.026     8.835
 168   1 H      0.238  0.762  0.000  0.000     0.930     1.511
 169   1 H      0.068  0.932  0.000  0.000     2.104     2.268
 170   1 H      0.067  0.933  0.000  0.000     2.123     2.279
 171   1 H      0.067  0.933  0.000  0.000     2.117     2.276
 172   1 H      0.039  0.961  0.000  0.000     2.458     2.452
 173   1 H      0.028  0.972  0.000  0.000     2.608     2.526
 174   1 H      0.046  0.954  0.000  0.000     2.368     2.406
 175   1 H      0.039  0.961  0.000  0.000     2.467     2.456
 176   1 H      0.046  0.954  0.000  0.000     2.374     2.409
 177   7 N     -0.199  1.267  3.932  0.000    25.327     7.474
 178   6 C      0.017  1.057  2.926  0.000    20.275     6.410
 179   6 C      0.283  1.033  2.684  0.000    22.206     7.717
 180   8 O     -0.524  1.756  4.768  0.000    24.323     6.612
 181   6 C      0.064  1.040  2.896  0.000    19.716     6.359
 182   8 O     -0.468  1.719  4.750  0.000    22.216     6.363
 183   1 H      0.248  0.752  0.000  0.000     0.891     1.479
 184   1 H      0.072  0.928  0.000  0.000     2.066     2.248
 185   1 H      0.039  0.961  0.000  0.000     2.462     2.454
 186   1 H      0.080  0.920  0.000  0.000     1.977     2.199
 187   1 H      0.339  0.661  0.000  0.000     0.615     1.231
 188   7 N     -0.198  1.261  3.936  0.000    25.289     7.469
 189   6 C      0.030  1.063  2.907  0.000    20.061     6.376
 190   6 C      0.288  1.039  2.673  0.000    22.121     7.702
 191   8 O     -0.531  1.758  4.773  0.000    24.486     6.634
 192   6 C     -0.023  1.065  2.958  0.000    20.942     6.509
 193   6 C     -0.064  1.053  3.011  0.000    21.725     6.635
 194   6 C     -0.110  1.038  3.072  0.000    22.653     6.786
 195   6 C     -0.111  1.037  3.074  0.000    22.683     6.792
 196   1 H      0.254  0.746  0.000  0.000     0.868     1.460
 197   1 H      0.050  0.950  0.000  0.000     2.319     2.381
 198   1 H      0.056  0.944  0.000  0.000     2.249     2.345
 199   1 H      0.039  0.961  0.000  0.000     2.457     2.451
 200   1 H      0.046  0.954  0.000  0.000     2.371     2.408
 201   1 H      0.061  0.939  0.000  0.000     2.191     2.315
 202   1 H      0.024  0.976  0.000  0.000     2.668     2.554
 203   1 H      0.040  0.960  0.000  0.000     2.454     2.450
 204   1 H      0.050  0.950  0.000  0.000     2.323     2.383
 205   1 H      0.043  0.957  0.000  0.000     2.410     2.428
 206   1 H      0.040  0.960  0.000  0.000     2.455     2.450
 207   7 N     -0.196  1.253  3.943  0.000    25.253     7.463
 208   6 C      0.044  1.055  2.902  0.000    19.843     6.342
 209   6 C      0.285  1.041  2.674  0.000    22.172     7.711
 210   8 O     -0.533  1.755  4.778  0.000    24.530     6.640
 211   6 C     -0.080  1.055  3.025  0.000    22.009     6.678
 212   6 C      0.011  1.084  2.905  0.000    27.766     8.643
 213   6 C     -0.043  1.080  2.963  0.000    29.076     8.843
 214   6 C     -0.037  1.079  2.957  0.000    28.909     8.817
 215   6 C     -0.036  1.080  2.956  0.000    28.892     8.814
 216   6 C     -0.032  1.081  2.952  0.000    28.803     8.801
 217   6 C     -0.038  1.079  2.959  0.000    28.951     8.823
 218   1 H      0.229  0.771  0.000  0.000     0.968     1.541
 219   1 H      0.049  0.951  0.000  0.000     2.336     2.390
 220   1 H      0.073  0.927  0.000  0.000     2.050     2.239
 221   1 H      0.072  0.928  0.000  0.000     2.060     2.244
 222   1 H      0.037  0.963  0.000  0.000     2.485     2.465
 223   1 H      0.024  0.976  0.000  0.000     2.678     2.559
 224   1 H      0.047  0.953  0.000  0.000     2.361     2.403
 225   1 H      0.031  0.969  0.000  0.000     2.570     2.507
 226   1 H      0.042  0.958  0.000  0.000     2.428     2.437
 227   7 N     -0.194  1.252  3.942  0.000    25.209     7.457
 228   6 C      0.043  1.057  2.900  0.000    19.861     6.346
 229   6 C      0.218  1.085  2.697  0.000    23.392     7.921
 230   8 O     -0.383  1.749  4.634  0.000    21.344     6.194
 231   6 C     -0.069  1.057  3.012  0.000    21.823     6.650
 232   6 C     -0.026  1.056  2.970  0.000    21.005     6.519
 233   6 C     -0.120  1.043  3.077  0.000    22.847     6.815
 234   6 C     -0.118  1.041  3.077  0.000    22.818     6.811
 235   1 H      0.251  0.749  0.000  0.000     0.880     1.469
 236   1 H      0.072  0.928  0.000  0.000     2.061     2.245
 237   1 H      0.053  0.947  0.000  0.000     2.284     2.364
 238   1 H      0.060  0.940  0.000  0.000     2.195     2.317
 239   1 H      0.057  0.943  0.000  0.000     2.230     2.335
 240   1 H      0.044  0.956  0.000  0.000     2.403     2.424
 241   1 H      0.037  0.963  0.000  0.000     2.495     2.470
 242   1 H      0.059  0.941  0.000  0.000     2.207     2.323
 243   1 H      0.051  0.949  0.000  0.000     2.313     2.378
 244   1 H      0.047  0.953  0.000  0.000     2.353     2.399
 245   1 H      0.034  0.966  0.000  0.000     2.529     2.487
 246   1 H      0.182  0.818  0.000  0.000     1.203     1.718
 247   1 H      0.072  0.928  0.000  0.000     2.065     2.247
 248   1 H      0.185  0.815  0.000  0.000     1.187     1.707
 249   1 H      0.078  0.922  0.000  0.000     1.997     2.210
 250   1 H      0.183  0.817  0.000  0.000     1.199     1.715
 251   1 H      0.055  0.945  0.000  0.000     2.256     2.348

 Mol. C6AA /au·bohr⁶  :     604077.062987
 Mol. C8AA /au·bohr⁸  :   13822054.342486
 Mol. α(0) /au        :       1179.595552

 
molecular dipole:
                 x           y           z       tot (Debye)
 q only:      -10.213      -0.480     -20.480
   full:       -9.995      -0.748     -22.237      61.998
molecular quadrupole (traceless):
                xx          xy          yy          xz          yz          zz
 q only:    -1137.820   -2024.702    2478.620   -4804.303   -3852.210   -1340.800
  q+dip:     -949.970   -2048.490    2496.562   -5117.081   -4215.814   -1546.591
   full:     -949.422   -2046.775    2497.336   -5122.112   -4215.941   -1547.914
speedup  1.00
cpu  time for grad    2.99 s
wall time for grad    2.99 s

SCC energy    :    -376.3482018
rep           :       4.9054388
ES            :       0.7940865
AES           :      -0.0029543
AXC           :       0.1389503
disp          :      -0.3475077
XB            :       0.0000000
fix           :       0.0000000
Gborn         :       0.0000000
Gsasa         :       0.0000000
Ghb           :       0.0000000
Gshift        :       0.0000000
Gsolv         :      -0.1439541      -90.33
Etot ala COSMO:    -376.3482018
grad norm     :       0.3864579
total E       :    -371.4131725
atomizationE  :      71.4102369    44810.60
(atE without considering molecular charge,
 total energy contains solvation terms)
H-L gap (eV)  :          2.3171

------------------------------------------------------------------------
 * finished run on 2019/03/14 at 15:07:39.251     
------------------------------------------------------------------------
 total:
 * wall-time:     0 d,  0 h,  0 min,  3.417 sec
 *  cpu-time:     0 d,  0 h,  0 min,  3.278 sec
 * ratio c/w:     0.959 speedup
 SCF:
 * wall-time:     0 d,  0 h,  0 min,  3.200 sec
 *  cpu-time:     0 d,  0 h,  0 min,  3.200 sec
 * ratio c/w:     1.000 speedup

