      -----------------------------------------------------------      
     |                   =====================                   |     
     |                           x T B                           |     
     |                   =====================                   |     
     |                         S. Grimme                         |     
     |          Mulliken Center for Theoretical Chemistry        |     
     |                    University of Bonn                     |     
     |                Version 6.1 RC1 (SAW190329)                |     
      -----------------------------------------------------------      

   This program is distributed in the hope that it will be useful,
   but WITHOUT ANY WARRANTY; without even the implied warranty of
   MERCHANTABILITY or FITNESS FOR A PARTICULAR PURPOSE.
   
   FOR NON-COMMERCIAL, ACADEMIA USE ONLY.
   
   Cite this work as:
   S. Grimme, C. Bannwarth, P. Shushkov, J. Comput. Theory Chem., 2017,
   13, 1989-2009. DOI: 10.1021/acs.jctc.7b00118
   C. Bannwarth, S. Ehlert and S. Grimme., J. Comput. Theory Chem., 2019,
   just accepted. DOI: 10.1021/acs.jctc.8b01176
   
   for sTDA-xTB:
   S. Grimme and C. Bannwarth, J. Chem. Phys., 2016, 145, 054103.
   DOI: 10.1063/1.4959605
   
   in the mass-spec context:
   V. Asgeirsson, C. Bauer and S. Grimme, Chem. Sci., 2017, 8, 4879.
   DOI: 10.1039/c7sc00601b
   
   for metadynamics refer to:
   S. Grimme, ChemRxiv, Preprint. DOI: 10.26434/chemrxiv.7660532.v1
   
   with help from (in alphabetical order)
   C. Bannwarth, F. Bohle, G. Brandenburg, E. Caldeweyher, M. Checinski,
   S. Dohm, S. Ehlert, S. Ehrlich, F. März, H. Neugebauer, J. Pisarek,
   P. Pracht, P. Shushkov, and S. Spicher.
   
 * started run on 2019/05/31 at 05:35:28.782     

           -------------------------------------------------
          |                Calculation Setup                |
           -------------------------------------------------

          program call               : /home/lum/install/xtb/xtb-190329/bin/xtb xtb_tmp.xyz --chrg 0 --grad --gfn 2 --etemp 500 --acc 0.1 --gbsa h2o --parallel 2
          hostname                   : cpu02
          coordinate file            : xtb_tmp.xyz
          omp threads                :                     2
          number of atoms            :                    79
          number of electrons        :                   214
          charge                     :                     0
          spin                       :                   0.0
          first test random number   :      0.82467191624321


molecular fragmentation (1/2 indicates fragments):
111111111111111111111111111111111111111111111111111111111111122222222222
2221122
# atoms in fragment 1/2:    63    16
 fragment masses (1/2) :      431.49      103.12
CMA distance (Bohr)    :  16.233
constraining FC (au)   :  0.0500

########################################################################
# WARNING! Please study the warnings concerning your input carefully
#  - XTBPATH is not set, using XTBHOME instead
#  - Process number higher than OMP_NUM_THREADS, I hope you know what you are doing.
########################################################################

           ------------------------------------------------- 
          |                 G F N 2 - x T B                 |
          | Geometry, Frequencies, Noncovalent interactions |
          |            JCTC 2018 parametrisation            |
           ------------------------------------------------- 
 
             k(s)              :                1.8500
             k(p)              :                2.2300
             k(d)              :                2.2300
             k(f)              :                2.0000
             kEN (H0ij)        :               -2.0000
             D4 a1             :                0.5200
             D4 a2             :                5.0000
             D4 s6             :                1.0000
             D4 s8             :                2.7000
             D4 s9             :                5.0000
             alphaj            :                2.0000

  Z AO/shell   Hii/eV     exponent
  1     Wed Apr 25 08:07:45 CEST 2018   EN: 2.200 GM2: 0.406  GM3: 0.0800  RAES: 1.40
     1s    -10.707211    1.230000
  6     Wed Apr 25 08:07:45 CEST 2018   EN: 2.550 GM2: 0.538  GM3: 0.1500  RAES: 3.00
     2s    -13.970922    2.096432
     2p    -10.063292    1.800000
  7     Wed Apr 25 08:07:45 CEST 2018   EN: 3.040 GM2: 0.461  GM3:-0.0640  RAES: 1.90
     2s    -16.686243    2.339881
     2p    -12.523956    2.014332
  8     Wed Apr 25 08:07:45 CEST 2018   EN: 3.440 GM2: 0.452  GM3:-0.0517  RAES: 1.80
     2s    -20.229985    2.439742
     2p    -15.503117    2.137023

 Solvent             : h2o
 Using internal parameter file: .param_gbsa2_h2o
 Gsolv ref. state (COSMO-RS): gsolv [1 M gas/solution]
 temperature (mdtemp)       :    298.150000000000     
 dielectric constant        :    80.2000000000000     
 rho                        :    1.00000000000000     
 mass                       :    18.0000000000000     
 surface tension            :    15.5689454083859     
 probe radius               :   0.975313790000000     
 vdW radii scaling          :    1.00000000000000     
 Gshift (Eh)                :   1.857443126794793E-003
 c1                         :    1.55243817000000     
 soset                      :   0.130326360000000     
 HB correction              :  T
 Number of grid points      :          230

            Z     q(EN)     CN     RAES       Cart. coordinates
     1  N   5.0   -0.73    3.00    1.93   425.65324   118.64681   227.17616
     2  C   4.0    0.07    3.98    3.59   426.40302   118.98851   224.56259
     3  C   4.0    0.29    3.01    3.02   428.29348   121.16336   224.21986
     4  O   6.0   -0.43    1.00    1.80   430.07009   121.02572   222.74578
     5  C   4.0   -0.02    3.98    3.58   424.05038   119.42607   222.91355
     6  O   6.0   -0.46    1.99    1.82   422.95610   121.82483   223.19238
     7  H   1.0    0.25    1.00    1.43   423.94087   119.30438   227.71658
     8  H   1.0    0.11    0.99    1.43   427.35600   117.26462   223.91785
     9  H   1.0    0.12    0.99    1.43   424.58603   119.27520   220.92459
    10  H   1.0    0.11    0.99    1.43   422.67082   117.93632   223.34885
    11  H   1.0    0.25    0.99    1.43   422.74759   122.27550   224.97400
    12  N   5.0   -0.48    3.01    1.93   427.83698   123.20837   225.63025
    13  C   4.0    0.07    4.00    3.61   429.33893   125.46707   225.34941
    14  C   4.0    0.28    3.01    3.02   431.91857   125.28794   226.61968
    15  O   6.0   -0.45    1.00    1.80   433.42702   127.04827   226.41544
    16  C   4.0   -0.21    3.98    3.59   427.86470   127.78530   226.19231
    17  H   1.0    0.24    1.00    1.43   426.31010   123.30501   226.78588
    18  H   1.0    0.14    0.99    1.43   429.81672   125.65057   223.33442
    19  H   1.0    0.11    0.99    1.43   429.00439   129.46474   225.89305
    20  H   1.0    0.11    0.99    1.43   426.12576   127.92951   225.11309
    21  H   1.0    0.11    0.99    1.43   427.38940   127.64618   228.18381
    22  N   5.0   -0.47    3.01    1.93   432.49931   123.13321   227.77748
    23  C   4.0    0.09    3.99    3.61   435.07442   122.53684   228.44250
    24  C   4.0    0.30    3.01    3.02   436.85733   123.22209   226.27226
    25  O   6.0   -0.39    1.00    1.80   438.97879   124.03616   226.71853
    26  C   4.0    0.03    3.98    3.58   435.35522   119.66629   228.99868
    27  O   6.0   -0.45    1.99    1.82   434.35559   118.25217   226.97790
    28  C   4.0   -0.22    3.98    3.58   434.19627   118.93456   231.52893
    29  H   1.0    0.26    1.00    1.43   431.17618   121.78993   228.08187
    30  H   1.0    0.12    0.99    1.43   435.69426   123.63614   230.08857
    31  H   1.0    0.13    0.99    1.43   437.39462   119.28033   229.03528
    32  H   1.0    0.26    0.99    1.43   432.62574   117.76371   227.36428
    33  H   1.0    0.11    0.99    1.43   434.29191   116.89123   231.72278
    34  H   1.0    0.10    0.99    1.43   435.24283   119.80501   233.06265
    35  H   1.0    0.11    0.99    1.43   432.22660   119.51310   231.61564
    36  N   5.0   -0.47    3.00    1.93   435.94929   122.88250   223.93404
    37  C   4.0    0.03    3.99    3.61   437.43858   123.43914   221.71578
    38  C   4.0    0.28    3.01    3.02   438.75278   126.01905   221.70492
    39  O   6.0   -0.40    1.00    1.80   440.56004   126.36747   220.29840
    40  H   1.0    0.29    1.00    1.43   434.27815   121.98840   223.66606
    41  H   1.0    0.14    0.99    1.43   438.93699   122.03358   221.44622
    42  H   1.0    0.11    0.99    1.43   436.19080   123.37652   220.07409
    43  N   5.0   -0.47    3.00    1.93   437.75628   127.84437   223.13664
    44  C   4.0    0.07    3.99    3.61   438.78757   130.37258   223.14132
    45  C   4.0    0.09    3.00    3.02   441.05617   130.76774   224.89851
    46  O   6.0   -0.39    1.00    1.80   442.27096   132.73184   224.78509
    47  C   4.0   -0.13    3.99    3.60   436.72397   132.28891   223.80865
    48  C   4.0   -0.10    3.98    3.58   434.57004   132.33157   221.87355
    49  C   4.0   -0.22    3.98    3.59   432.43704   134.06560   222.74838
    50  C   4.0   -0.21    3.99    3.60   435.52240   133.19425   219.30240
    51  H   1.0    0.30    1.00    1.43   436.25000   127.52281   224.28019
    52  H   1.0    0.15    0.99    1.43   439.52587   130.74155   221.24094
    53  H   1.0    0.13    0.99    1.43   435.97943   131.81664   225.67330
    54  H   1.0    0.13    0.99    1.43   437.59506   134.15366   223.93173
    55  H   1.0    0.13    0.99    1.43   433.80751   130.41567   221.70388
    56  H   1.0    0.10    0.99    1.43   430.88805   134.00384   221.39964
    57  H   1.0    0.11    0.99    1.43   431.73299   133.49728   224.59427
    58  H   1.0    0.11    0.99    1.43   433.07179   136.01721   222.87913
    59  H   1.0    0.11    0.99    1.43   433.96415   133.28640   217.97582
    60  H   1.0    0.13    0.99    1.43   436.34919   135.06728   219.46315
    61  H   1.0    0.11    0.99    1.43   436.93359   131.89390   218.57031
    62  N   5.0   -0.70    3.00    1.93   434.97686   132.52559   211.11086
    63  C   4.0    0.09    3.98    3.59   437.36664   133.03498   212.33243
    64  C   4.0    0.08    3.00    3.02   437.93948   135.84090   212.65019
    65  O   6.0   -0.41    1.00    1.80   439.40121   136.55351   214.29779
    66  C   4.0    0.04    3.98    3.59   439.50644   131.78045   210.79543
    67  O   6.0   -0.47    1.99    1.82   439.07887   132.45849   208.24792
    68  C   4.0   -0.22    3.98    3.59   439.53580   128.92349   211.20219
    69  H   1.0    0.29    1.00    1.43   435.11739   131.64165   209.42466
    70  H   1.0    0.10    0.99    1.43   437.33794   132.22515   214.23914
    71  H   1.0    0.13    0.99    1.43   441.31755   132.57358   211.43661
    72  H   1.0    0.25    0.99    1.43   440.31778   131.63464   207.19738
    73  H   1.0    0.11    0.99    1.43   440.89664   128.03267   209.94589
    74  H   1.0    0.11    0.99    1.43   440.06520   128.49244   213.13835
    75  H   1.0    0.11    0.99    1.43   437.68072   128.10914   210.86074
    76  H   1.0    0.29    1.00    1.43   425.62277   116.98697   227.54568
    77  H   1.0    0.16    1.00    1.43   441.54020   129.42205   226.13378
    78  H   1.0    0.29    1.00    1.43   434.02896   131.52895   212.11124
    79  H   1.0    0.15    1.00    1.43   437.12082   137.10729   211.51128

           ------------------------------------------------- 
          |        Self-Consistent Charge Iterations        |
           ------------------------------------------------- 

          ...................................................
          :                      SETUP                      :
          :.................................................:
          :  # basis functions                 190          :
          :  # atomic orbitals                 190          :
          :  # shells                          116          :
          :  # electrons                       214          :
          :  max. iterations                   250          :
          :  Hamiltonian                  GFN2-xTB          :
          :  restarted?                      false          :
          :  GBSA solvation                   true          :
          :  PC potential                    false          :
          :  electronic temp.          500.0000000     K    :
          :  accuracy                    0.1000000          :
          :  -> integral cutoff          0.3500000E+02      :
          :  -> integral neglect         0.1000000E-08      :
          :  -> SCF convergence          0.1000000E-06 Eh   :
          :  -> wf. convergence          0.1000000E-04 e    :
          :  Broyden damping             0.4000000          :
          ...................................................

 iter      E             dE          RMSdq      gap      omega  full diag
   1   -123.7284097 -0.123728E+03  0.433E+00    2.08       0.0  T
   2   -124.0403341 -0.311924E+00  0.222E+00    1.99       1.0  T
   3   -124.0509203 -0.105862E-01  0.116E+00    2.43       1.0  T
   4   -124.0554741 -0.455384E-02  0.240E-01    2.18       1.0  T
   5   -124.0579963 -0.252216E-02  0.970E-02    2.27       1.0  T
   6   -124.0580670 -0.706763E-04  0.381E-02    2.24       1.0  T
   7   -124.0580728 -0.584910E-05  0.131E-02    2.24       1.0  T
   8   -124.0580753 -0.243822E-05  0.468E-03    2.25       2.4  T
   9   -124.0580755 -0.241063E-06  0.193E-03    2.25       5.8  T
  10   -124.0580755 -0.165976E-07  0.720E-04    2.25      15.6  T
  11   -124.0580755 -0.967933E-08  0.240E-04    2.25      46.9  T
  12   -124.0580755 -0.646580E-09  0.836E-05    2.25     134.5  T
  13   -124.0580755 -0.696474E-10  0.423E-05    2.25     265.7  T

   *** convergence criteria satisfied after 13 iterations ***

         #    Occupation            Energy/Eh            Energy/eV
      -------------------------------------------------------------
         1        2.0000           -0.7271510             -19.7868
       ...           ...                  ...                  ...
       101        2.0000           -0.4135733             -11.2539
       102        2.0000           -0.4089178             -11.1272
       103        2.0000           -0.4062322             -11.0541
       104        2.0000           -0.4028965             -10.9634
       105        2.0000           -0.3959587             -10.7746
       106        2.0000           -0.3871167             -10.5340
       107        2.0000           -0.3658799              -9.9561 (HOMO)
       108                         -0.2833503              -7.7104 (LUMO)
       109                         -0.2799078              -7.6167
       110                         -0.2410503              -6.5593
       111                         -0.2339674              -6.3666
       112                         -0.2244111              -6.1065
       ...                                ...                  ...
       190                          0.6098501              16.5949
      -------------------------------------------------------------
                  HL-Gap            0.0825296 Eh            2.2457 eV
             Fermi-level           -0.3246992 Eh           -8.8355 eV

 SCC (total)                   0 d,  0 h,  0 min,  0.163 sec
 SCC setup                      ...        0 min,  0.008 sec (  4.974%)
 Dispersion                     ...        0 min,  0.002 sec (  1.295%)
 integral evaluation            ...        0 min,  0.024 sec ( 14.859%)
 zeroth order Hamiltonian       ...        0 min,  0.001 sec (  0.370%)
 iterations                     ...        0 min,  0.095 sec ( 57.847%)
 molecular gradient             ...        0 min,  0.033 sec ( 19.946%)
 printout                       ...        0 min,  0.001 sec (  0.664%)

         :::::::::::::::::::::::::::::::::::::::::::::::::::::
         ::                     SUMMARY                     ::
         :::::::::::::::::::::::::::::::::::::::::::::::::::::
         :: total energy             -122.651546747620 Eh   ::
         :: total w/o Gsasa/hb       -122.633162970514 Eh   ::
         :: gradient norm               0.313561311488 Eh/α ::
         :: HOMO-LUMO gap               2.245743999706 eV   ::
         ::.................................................::
         :: SCC energy               -124.059932745344 Eh   ::
         :: -> isotropic ES             0.363298174137 Eh   ::
         :: -> anisotropic ES           0.007494056809 Eh   ::
         :: -> anisotropic XC           0.033943110541 Eh   ::
         :: -> dispersion              -0.077707913922 Eh   ::
         :: -> Gsolv                   -0.063429599810 Eh   ::
         ::    -> Gborn                -0.045045822703 Eh   ::
         ::    -> Gsasa                -0.003714650563 Eh   ::
         ::    -> Ghb                  -0.016526569670 Eh   ::
         ::    -> Gshift                0.001857443127 Eh   ::
         :: repulsion energy            1.405984629932 Eh   ::
         :: add. restraining            0.000000000000 Eh   ::
         :::::::::::::::::::::::::::::::::::::::::::::::::::::

           -------------------------------------------------
          |                Property Printout                |
           -------------------------------------------------

    * Orbital Energies and Occupations

         #    Occupation            Energy/Eh            Energy/eV
      -------------------------------------------------------------
         1        2.0000           -0.7271510             -19.7868
       ...           ...                  ...                  ...
        95        2.0000           -0.4308173             -11.7231
        96        2.0000           -0.4275094             -11.6331
        97        2.0000           -0.4263689             -11.6021
        98        2.0000           -0.4247576             -11.5582
        99        2.0000           -0.4243324             -11.5467
       100        2.0000           -0.4242793             -11.5452
       101        2.0000           -0.4135733             -11.2539
       102        2.0000           -0.4089178             -11.1272
       103        2.0000           -0.4062322             -11.0541
       104        2.0000           -0.4028965             -10.9634
       105        2.0000           -0.3959587             -10.7746
       106        2.0000           -0.3871167             -10.5340
       107        2.0000           -0.3658799              -9.9561 (HOMO)
       108                         -0.2833503              -7.7104 (LUMO)
       109                         -0.2799078              -7.6167
       110                         -0.2410503              -6.5593
       111                         -0.2339674              -6.3666
       112                         -0.2244111              -6.1065
       113                         -0.2164342              -5.8895
       114                         -0.0362844              -0.9873
       115                         -0.0262180              -0.7134
       116                         -0.0089640              -0.2439
       117                         -0.0051864              -0.1411
       118                         -0.0014481              -0.0394
       ...                                ...                  ...
       190                          0.6098501              16.5949
      -------------------------------------------------------------
                  HL-Gap            0.0825296 Eh            2.2457 eV
             Fermi-level           -0.3246992 Eh           -8.8355 eV

   #   Z        covCN         q      C6AA      α(0)
   1   7 N      2.634    -0.395    30.245     8.168
   2   6 C      3.784     0.010    20.421     6.437
   3   6 C      2.757     0.269    22.457     7.760
   4   8 O      0.859    -0.497    23.708     6.528
   5   6 C      3.678     0.074    19.550     6.334
   6   8 O      1.654    -0.476    22.377     6.386
   7   1 H      0.860     0.168     1.286     1.776
   8   1 H      0.924     0.056     2.244     2.343
   9   1 H      0.924     0.048     2.342     2.393
  10   1 H      0.923     0.039     2.465     2.455
  11   1 H      0.803     0.329     0.640     1.257
  12   7 N      2.690    -0.173    24.737     7.387
  13   6 C      3.798     0.022    20.214     6.402
  14   6 C      2.758     0.269    22.450     7.759
  15   8 O      0.859    -0.492    23.609     6.515
  16   6 C      3.756    -0.132    23.085     6.851
  17   1 H      0.860     0.223     0.998     1.565
  18   1 H      0.923     0.088     1.903     2.157
  19   1 H      0.925     0.076     2.021     2.223
  20   1 H      0.925     0.078     1.999     2.211
  21   1 H      0.925     0.068     2.103     2.268
  22   7 N      2.689    -0.167    24.620     7.369
  23   6 C      3.797     0.005    20.496     6.446
  24   6 C      2.758     0.282    22.218     7.719
  25   8 O      0.858    -0.500    23.780     6.538
  26   6 C      3.727     0.111    18.852     6.199
  27   8 O      1.655    -0.474    22.343     6.381
  28   6 C      3.752    -0.146    23.373     6.894
  29   1 H      0.860     0.211     1.051     1.606
  30   1 H      0.924     0.080     1.981     2.201
  31   1 H      0.923     0.048     2.340     2.392
  32   1 H      0.804     0.332     0.631     1.248
  33   1 H      0.925     0.077     2.014     2.219
  34   1 H      0.925     0.067     2.116     2.275
  35   1 H      0.925     0.067     2.117     2.275
  36   7 N      2.684    -0.170    24.689     7.380
  37   6 C      3.744    -0.029    21.168     6.563
  38   6 C      2.753     0.282    22.220     7.719
  39   8 O      0.859    -0.512    24.057     6.576
  40   1 H      0.860     0.220     1.009     1.573
  41   1 H      0.924     0.084     1.943     2.180
  42   1 H      0.924     0.096     1.821     2.110
  43   7 N      2.687    -0.172    24.714     7.383
  44   6 C      3.794     0.030    20.084     6.382
  45   6 C      2.764     0.206    23.631     7.961
  46   8 O      0.856    -0.371    21.111     6.160
  47   6 C      3.811    -0.071    21.855     6.654
  48   6 C      3.850    -0.010    20.723     6.475
  49   6 C      3.757    -0.118    22.803     6.809
  50   6 C      3.758    -0.113    22.709     6.794
  51   1 H      0.860     0.224     0.993     1.561
  52   1 H      0.924     0.096     1.824     2.112
  53   1 H      0.924     0.061     2.191     2.315
  54   1 H      0.924     0.065     2.138     2.287
  55   1 H      0.924     0.040     2.453     2.449
  56   1 H      0.925     0.052     2.292     2.367
  57   1 H      0.925     0.043     2.406     2.426
  58   1 H      0.925     0.044     2.395     2.420
  59   1 H      0.925     0.048     2.344     2.394
  60   1 H      0.925     0.044     2.401     2.423
  61   1 H      0.925     0.028     2.621     2.532
  62   7 N      2.635    -0.387    30.006     8.136
  63   6 C      3.784     0.036    19.992     6.369
  64   6 C      2.765     0.202    23.701     7.973
  65   8 O      0.856    -0.384    21.364     6.197
  66   6 C      3.728     0.124    18.653     6.166
  67   8 O      1.656    -0.483    22.528     6.407
  68   6 C      3.752    -0.131    23.077     6.851
  69   1 H      0.860     0.181     1.209     1.723
  70   1 H      0.924     0.055     2.259     2.350
  71   1 H      0.923     0.011     2.869     2.649
  72   1 H      0.805     0.341     0.610     1.227
  73   1 H      0.925     0.057     2.229     2.334
  74   1 H      0.925     0.049     2.330     2.387
  75   1 H      0.925     0.060     2.199     2.319
  76   1 H      0.862     0.190     1.158     1.686
  77   1 H      0.930     0.069     2.091     2.261
  78   1 H      0.862     0.185     1.187     1.706
  79   1 H      0.930     0.081     1.965     2.192

 Mol. C6AA /au·bohr⁶  :      53830.960832
 Mol. C8AA /au·bohr⁸  :    1169468.366283
 Mol. α(0) /au        :        343.875278


Wiberg/Mayer (AO) data.
largest (>0.10) Wiberg bond orders for each atom
          total WBO             WBO to atom ...
     1  N   2.990        C    2 1.018    H   76 0.952    H    7 0.950
     2  C   3.985        N    1 1.018    H    8 0.963    C    5 0.959    C    3 0.939
     3  C   3.946        O    4 1.634    N   12 1.294    C    2 0.939
     4  O   1.956        C    3 1.634    N   12 0.196
     5  C   3.956        O    6 1.008    H    9 0.971    H   10 0.963    C    2 0.959
     6  O   1.943        C    5 1.008    H   11 0.868
     7  H   0.972        N    1 0.950
     8  H   0.997        C    2 0.963
     9  H   0.998        C    5 0.971
    10  H   0.998        C    5 0.963
    11  H   0.892        O    6 0.868
    12  N   3.473        C    3 1.294    C   13 0.987    H   17 0.914    O    4 0.196
    13  C   3.967        C   16 0.996    N   12 0.987    C   14 0.943    H   18 0.930
    14  C   3.944        O   15 1.605    N   22 1.302    C   13 0.943
    15  O   1.959        C   14 1.605    N   22 0.186
    16  C   3.981        C   13 0.996    H   21 0.982    H   20 0.981    H   19 0.978
    17  H   0.950        N   12 0.914
    18  H   0.992        C   13 0.930
    19  H   0.994        C   16 0.978
    20  H   0.993        C   16 0.981
    21  H   0.995        C   16 0.982
    22  N   3.471        C   14 1.302    C   23 0.986    H   29 0.912    O   15 0.186
    23  C   3.965        N   22 0.986    H   30 0.949    C   26 0.943    C   24 0.940
    24  C   3.949        O   25 1.633    N   36 1.295    C   23 0.940
    25  O   1.948        C   24 1.633    N   36 0.194
    26  C   3.952        C   28 1.003    O   27 0.999    H   31 0.960    C   23 0.943
    27  O   1.954        C   26 0.999    H   32 0.870
    28  C   3.987        C   26 1.003    H   34 0.982    H   33 0.979    H   35 0.979
    29  H   0.955        N   22 0.912
    30  H   0.993        C   23 0.949
    31  H   0.997        C   26 0.960
    32  H   0.890        O   27 0.870
    33  H   0.994        C   28 0.979
    34  H   0.995        C   28 0.982
    35  H   0.995        C   28 0.979
    36  N   3.466        C   24 1.295    C   37 0.998    H   40 0.913    O   25 0.194
    37  C   3.966        N   36 0.998    C   38 0.953    H   41 0.953    H   42 0.951
    38  C   3.952        O   39 1.618    N   43 1.315    C   37 0.953
    39  O   1.930        C   38 1.618    N   43 0.196
    40  H   0.952        N   36 0.913
    41  H   0.993        C   37 0.953
    42  H   0.990        C   37 0.951
    43  N   3.480        C   38 1.315    C   44 0.991    H   51 0.886    O   39 0.196
    44  C   3.967        N   43 0.991    C   45 0.980    C   47 0.960    H   52 0.921
    45  C   3.899        O   46 1.890    C   44 0.980    H   77 0.954
    46  O   2.037        C   45 1.890
    47  C   3.982        C   48 0.992    H   53 0.971    H   54 0.970    C   44 0.960
    48  C   3.994        C   50 1.011    C   49 1.006    C   47 0.992    H   55 0.966
    49  C   3.993        C   48 1.006    H   58 0.986    H   57 0.985    H   56 0.984
    50  C   3.996        C   48 1.011    H   60 0.986    H   59 0.984    H   61 0.977
    51  H   0.950        N   43 0.886
    52  H   0.990        C   44 0.921
    53  H   0.996        C   47 0.971
    54  H   0.995        C   47 0.970
    55  H   0.998        C   48 0.966
    56  H   0.996        C   49 0.984
    57  H   0.998        C   49 0.985
    58  H   0.998        C   49 0.986
    59  H   0.997        C   50 0.984
    60  H   0.998        C   50 0.986
    61  H   0.999        C   50 0.977
    62  N   2.997        C   63 1.028    H   78 0.956    H   69 0.945
    63  C   3.990        N   62 1.028    C   64 0.983    H   70 0.946    C   66 0.937
    64  C   3.891        O   65 1.887    C   63 0.983    H   79 0.952
    65  O   2.028        C   64 1.887
    66  C   3.958        C   68 0.999    O   67 0.992    H   71 0.962    C   63 0.937
    67  O   1.938        C   66 0.992    H   72 0.867
    68  C   3.992        C   66 0.999    H   74 0.984    H   75 0.982    H   73 0.981
    69  H   0.967        N   62 0.945
    70  H   0.997        C   63 0.946
    71  H   1.000        C   66 0.962
    72  H   0.884        O   67 0.867
    73  H   0.997        C   68 0.981
    74  H   0.998        C   68 0.984
    75  H   0.996        C   68 0.982
    76  H   0.964        N    1 0.952
    77  H   0.995        C   45 0.954
    78  H   0.966        N   62 0.956
    79  H   0.993        C   64 0.952
 
molecular dipole:
                 x           y           z       tot (Debye)
 q only:       -6.890      -3.603       2.182
   full:       -7.572      -4.908       2.515      23.809
molecular quadrupole (traceless):
                xx          xy          yy          xz          yz          zz
 q only:    -6036.163   -3657.929    1578.953    -920.950    -807.510    4457.210
  q+dip:    -6530.753   -4627.673    1465.022    -940.847   -1177.606    5065.731
   full:    -6530.843   -4629.136    1464.218    -941.903   -1177.195    5066.624


           -------------------------------------------------
          | TOTAL ENERGY             -122.651546747620 Eh   |
          | GRADIENT NORM               0.313561311488 Eh/α |
          | HOMO-LUMO GAP               2.245743999706 eV   |
           -------------------------------------------------

------------------------------------------------------------------------
 * finished run on 2019/05/31 at 05:35:29.192     
------------------------------------------------------------------------
 total:
 * wall-time:     0 d,  0 h,  0 min,  0.409 sec
 *  cpu-time:     0 d,  0 h,  0 min,  0.585 sec
 * ratio c/w:     1.430 speedup
 SCF:
 * wall-time:     0 d,  0 h,  0 min,  0.164 sec
 *  cpu-time:     0 d,  0 h,  0 min,  0.327 sec
 * ratio c/w:     1.997 speedup

