      -----------------------------------------------------------      
     |                   =====================                   |     
     |                           x T B                           |     
     |                   =====================                   |     
     |                         S. Grimme                         |     
     |          Mulliken Center for Theoretical Chemistry        |     
     |                    University of Bonn                     |     
     |                Version 6.1 RC1 (SAW190329)                |     
      -----------------------------------------------------------      

   This program is distributed in the hope that it will be useful,
   but WITHOUT ANY WARRANTY; without even the implied warranty of
   MERCHANTABILITY or FITNESS FOR A PARTICULAR PURPOSE.
   
   FOR NON-COMMERCIAL, ACADEMIA USE ONLY.
   
   Cite this work as:
   S. Grimme, C. Bannwarth, P. Shushkov, J. Comput. Theory Chem., 2017,
   13, 1989-2009. DOI: 10.1021/acs.jctc.7b00118
   C. Bannwarth, S. Ehlert and S. Grimme., J. Comput. Theory Chem., 2019,
   just accepted. DOI: 10.1021/acs.jctc.8b01176
   
   for sTDA-xTB:
   S. Grimme and C. Bannwarth, J. Chem. Phys., 2016, 145, 054103.
   DOI: 10.1063/1.4959605
   
   in the mass-spec context:
   V. Asgeirsson, C. Bauer and S. Grimme, Chem. Sci., 2017, 8, 4879.
   DOI: 10.1039/c7sc00601b
   
   for metadynamics refer to:
   S. Grimme, ChemRxiv, Preprint. DOI: 10.26434/chemrxiv.7660532.v1
   
   with help from (in alphabetical order)
   C. Bannwarth, F. Bohle, G. Brandenburg, E. Caldeweyher, M. Checinski,
   S. Dohm, S. Ehlert, S. Ehrlich, F. März, H. Neugebauer, J. Pisarek,
   P. Pracht, P. Shushkov, and S. Spicher.
   
 * started run on 2019/05/31 at 05:35:01.807     

           -------------------------------------------------
          |                Calculation Setup                |
           -------------------------------------------------

          program call               : /home/lum/install/xtb/xtb-190329/bin/xtb xtb_tmp.xyz --chrg 0 --grad --gfn 2 --etemp 500 --acc 0.1 --gbsa h2o --parallel 2
          hostname                   : cpu02
          coordinate file            : xtb_tmp.xyz
          omp threads                :                     2
          number of atoms            :                   464
          number of electrons        :                  1256
          charge                     :                     0
          spin                       :                   0.0
          first test random number   :      0.54818645193979


molecular fragmentation (1/2 indicates fragments):
111111111122222222222222222222222222222222222222222222222222222222222222
222222222222222222222222222222222222222222222222222222222222222222222222
222222222222222222222222222222222222222222222222222222222222222222222222
222222222222222222222222222222222222222222222222222222222222222222222222
222222222222222222222222222222222222222222222222222222222222222222222222
222222222222222222222222222222222222222222222222222222222222222222222222
22222222222222221122222222222222
# atoms in fragment 1/2:    12   452
 fragment masses (1/2) :       73.09     3078.55
CMA distance (Bohr)    :  15.083
constraining FC (au)   :  0.0500

########################################################################
# WARNING! Please study the warnings concerning your input carefully
#  - XTBPATH is not set, using XTBHOME instead
#  - Process number higher than OMP_NUM_THREADS, I hope you know what you are doing.
########################################################################

           ------------------------------------------------- 
          |                 G F N 2 - x T B                 |
          | Geometry, Frequencies, Noncovalent interactions |
          |            JCTC 2018 parametrisation            |
           ------------------------------------------------- 
 
             k(s)              :                1.8500
             k(p)              :                2.2300
             k(d)              :                2.2300
             k(f)              :                2.0000
             kEN (H0ij)        :               -2.0000
             D4 a1             :                0.5200
             D4 a2             :                5.0000
             D4 s6             :                1.0000
             D4 s8             :                2.7000
             D4 s9             :                5.0000
             alphaj            :                2.0000

  Z AO/shell   Hii/eV     exponent
  1     Wed Apr 25 08:07:45 CEST 2018   EN: 2.200 GM2: 0.406  GM3: 0.0800  RAES: 1.40
     1s    -10.707211    1.230000
  6     Wed Apr 25 08:07:45 CEST 2018   EN: 2.550 GM2: 0.538  GM3: 0.1500  RAES: 3.00
     2s    -13.970922    2.096432
     2p    -10.063292    1.800000
  7     Wed Apr 25 08:07:45 CEST 2018   EN: 3.040 GM2: 0.461  GM3:-0.0640  RAES: 1.90
     2s    -16.686243    2.339881
     2p    -12.523956    2.014332
  8     Wed Apr 25 08:07:45 CEST 2018   EN: 3.440 GM2: 0.452  GM3:-0.0517  RAES: 1.80
     2s    -20.229985    2.439742
     2p    -15.503117    2.137023

 Solvent             : h2o
 Using internal parameter file: .param_gbsa2_h2o
 Gsolv ref. state (COSMO-RS): gsolv [1 M gas/solution]
 temperature (mdtemp)       :    298.150000000000     
 dielectric constant        :    80.2000000000000     
 rho                        :    1.00000000000000     
 mass                       :    18.0000000000000     
 surface tension            :    15.5689454083859     
 probe radius               :   0.975313790000000     
 vdW radii scaling          :    1.00000000000000     
 Gshift (Eh)                :   1.857443126794793E-003
 c1                         :    1.55243817000000     
 soset                      :   0.130326360000000     
 HB correction              :  T
 Number of grid points      :          230

            Z     q(EN)     CN     RAES       Cart. coordinates
     1  N   5.0   -0.71    3.00    1.93   274.02705   134.20040   220.84984
     2  C   4.0    0.06    3.98    3.58   276.50963   133.40378   219.99844
     3  C   4.0    0.07    3.00    3.02   276.33933   132.29518   217.33349
     4  O   6.0   -0.49    1.00    1.80   277.81635   132.93262   215.65733
     5  C   4.0   -0.22    3.99    3.60   277.56610   131.48914   221.86207
     6  H   1.0    0.26    1.00    1.43   273.39980   133.50889   222.52763
     7  H   1.0    0.11    0.99    1.43   277.75413   135.06113   219.87486
     8  H   1.0    0.10    0.99    1.43   279.45430   130.91331   221.30481
     9  H   1.0    0.10    0.99    1.43   277.66068   132.35556   223.72038
    10  H   1.0    0.10    0.99    1.43   276.33275   129.84773   221.94212
    11  N   5.0   -0.69    3.00    1.93   275.82865   137.19722   212.55484
    12  C   4.0    0.09    3.99    3.60   278.28591   138.27086   211.98686
    13  C   4.0    0.29    3.01    3.02   279.70873   136.57402   210.14127
    14  O   6.0   -0.45    1.00    1.80   280.87080   137.41684   208.30952
    15  C   4.0   -0.14    3.99    3.60   279.85410   138.57145   214.39732
    16  C   4.0   -0.12    3.98    3.58   279.13482   140.96621   215.83175
    17  C   4.0    0.31    2.99    3.02   279.93121   143.30101   214.20921
    18  O   6.0   -0.36    1.00    1.80   282.21208   143.89237   214.27848
    19  O   6.0   -0.38    1.00    1.80   278.24096   144.33670   212.93271
    20  H   1.0    0.28    1.00    1.43   275.37945   136.85395   214.38951
    21  H   1.0    0.15    0.99    1.43   278.04897   140.13061   211.09295
    22  H   1.0    0.13    0.99    1.43   279.59401   136.88735   215.56215
    23  H   1.0    0.13    0.99    1.43   281.84895   138.72287   213.88306
    24  H   1.0    0.12    0.99    1.43   277.10577   141.03580   216.18472
    25  H   1.0    0.11    0.99    1.43   280.16264   141.04407   217.61608
    26  N   5.0   -0.49    3.01    1.93   279.68431   134.12343   210.70218
    27  C   4.0    0.06    4.00    3.61   280.91640   132.29362   209.07262
    28  C   4.0    0.08    3.00    3.02   279.78105   132.48956   206.41235
    29  O   6.0   -0.47    1.00    1.80   281.11291   132.63830   204.52881
    30  C   4.0   -0.09    3.98    3.59   280.69815   129.63041   210.20870
    31  C   4.0   -0.16    3.98    3.59   282.41173   129.49711   212.54463
    32  C   4.0   -0.23    3.98    3.59   281.37371   127.63204   208.24122
    33  C   4.0   -0.24    3.98    3.58   282.08474   127.10520   214.10889
    34  H   1.0    0.29    1.00    1.43   278.80198   133.50954   212.29491
    35  H   1.0    0.12    0.99    1.43   282.92458   132.79426   208.88595
    36  H   1.0    0.12    0.99    1.43   278.72896   129.36279   210.78016
    37  H   1.0    0.10    0.99    1.43   284.37845   129.64651   211.93854
    38  H   1.0    0.12    0.99    1.43   282.00187   131.11779   213.75357
    39  H   1.0    0.09    0.99    1.43   281.20609   125.75508   209.04951
    40  H   1.0    0.10    0.99    1.43   280.10564   127.75613   206.63114
    41  H   1.0    0.10    0.99    1.43   283.29441   127.90075   207.56880
    42  H   1.0    0.10    0.99    1.43   283.40430   127.13684   215.68161
    43  H   1.0    0.10    0.99    1.43   280.17736   127.00001   214.86490
    44  H   1.0    0.10    0.99    1.43   282.45589   125.41604   213.00519
    45  N   5.0   -0.68    3.00    1.93   282.14695   137.76598   202.75105
    46  C   4.0    0.08    3.98    3.59   284.63638   137.24419   201.72342
    47  C   4.0    0.28    3.01    3.02   284.34449   135.73329   199.25646
    48  O   6.0   -0.41    1.00    1.80   285.55978   136.29016   197.36137
    49  C   4.0   -0.10    3.99    3.60   286.26662   135.75668   203.60063
    50  C   4.0    0.28    3.00    3.02   287.52286   137.47465   205.53601
    51  O   6.0   -0.45    1.00    1.80   289.38379   138.73860   205.01021
    52  N   5.0   -0.65    3.00    1.93   286.49875   137.43806   207.85040
    53  H   1.0    0.33    1.00    1.43   281.81601   137.47873   204.61348
    54  H   1.0    0.13    0.99    1.43   285.57894   139.02768   201.22853
    55  H   1.0    0.14    0.99    1.43   285.10300   134.32980   204.51993
    56  H   1.0    0.10    0.99    1.43   287.79304   134.83156   202.56620
    57  H   1.0    0.28    1.00    1.43   287.25386   138.55031   209.20301
    58  H   1.0    0.30    1.00    1.43   284.72178   136.80731   208.14875
    59  N   5.0   -0.49    3.01    1.93   282.78760   133.76777   199.35931
    60  C   4.0    0.07    3.99    3.61   282.45991   132.11078   197.20391
    61  C   4.0    0.09    3.00    3.02   281.21350   133.43556   194.94789
    62  O   6.0   -0.39    1.00    1.80   281.77056   132.84549   192.77104
    63  C   4.0   -0.14    3.99    3.60   280.95658   129.77151   197.99122
    64  C   4.0   -0.10    3.98    3.58   282.36149   128.11873   199.91984
    65  C   4.0   -0.23    3.98    3.59   280.57307   126.12538   200.99782
    66  C   4.0   -0.23    3.98    3.59   284.64469   126.82613   198.72540
    67  H   1.0    0.29    1.00    1.43   281.80748   133.37484   200.96349
    68  H   1.0    0.14    0.99    1.43   284.33765   131.55304   196.52530
    69  H   1.0    0.12    0.99    1.43   279.17371   130.42064   198.79811
    70  H   1.0    0.12    0.99    1.43   280.54570   128.66108   196.30417
    71  H   1.0    0.13    0.99    1.43   282.99342   129.31757   201.47948
    72  H   1.0    0.09    0.99    1.43   281.50099   125.07037   202.49516
    73  H   1.0    0.10    0.99    1.43   278.88973   127.00835   201.77555
    74  H   1.0    0.10    0.99    1.43   279.99191   124.80131   199.53754
    75  H   1.0    0.09    0.99    1.43   285.54868   125.58981   200.09151
    76  H   1.0    0.11    0.99    1.43   284.04973   125.70187   197.11309
    77  H   1.0    0.10    0.99    1.43   286.03813   128.19281   198.09152
    78  N   5.0   -0.72    3.00    1.93   302.32831   134.04510   195.83316
    79  C   4.0    0.08    3.98    3.59   303.66255   132.93392   197.93996
    80  C   4.0    0.27    3.02    3.02   302.88889   134.24481   200.38729
    81  O   6.0   -0.44    1.00    1.80   302.27499   133.04618   202.27123
    82  C   4.0    0.03    3.98    3.58   306.54281   133.07430   197.49715
    83  O   6.0   -0.48    1.99    1.82   307.19542   131.91650   195.18141
    84  C   4.0   -0.19    3.98    3.59   307.95021   131.71007   199.60533
    85  H   1.0    0.25    1.00    1.43   303.34304   134.81313   194.40998
    86  H   1.0    0.11    0.99    1.43   303.11067   130.93935   198.12338
    87  H   1.0    0.11    0.99    1.43   307.07892   135.08302   197.45632
    88  H   1.0    0.25    0.99    1.43   306.56660   132.96834   193.81402
    89  H   1.0    0.12    0.99    1.43   309.96786   132.02152   199.40646
    90  H   1.0    0.13    0.99    1.43   307.31399   132.38201   201.43563
    91  H   1.0    0.13    0.99    1.43   307.57914   129.69489   199.48030
    92  N   5.0   -0.49    3.01    1.93   302.88576   136.76774   200.32384
    93  C   4.0    0.07    4.00    3.62   302.00777   138.16987   202.50811
    94  C   4.0    0.30    3.01    3.02   299.43120   137.13054   203.35170
    95  O   6.0   -0.44    1.00    1.80   299.00339   136.62112   205.57277
    96  C   4.0   -0.16    3.98    3.59   301.80322   140.99911   201.94310
    97  C   4.0   -0.11    3.98    3.59   301.08371   142.44645   204.35121
    98  C   4.0    0.28    3.00    3.02   300.30780   145.15955   203.82309
    99  O   6.0   -0.42    1.00    1.80   298.14831   145.90987   204.15020
   100  N   5.0   -0.65    3.00    1.93   302.17829   146.68330   203.06835
   101  H   1.0    0.23    1.00    1.43   303.47275   137.72691   198.77130
   102  H   1.0    0.13    0.99    1.43   303.31910   137.86082   204.08964
   103  H   1.0    0.10    0.99    1.43   303.61631   141.64527   201.20342
   104  H   1.0    0.12    0.99    1.43   300.38775   141.29222   200.47119
   105  H   1.0    0.14    0.99    1.43   299.49866   141.50196   205.27055
   106  H   1.0    0.11    0.99    1.43   302.66918   142.44765   205.66895
   107  H   1.0    0.25    1.00    1.43   303.90229   145.99245   202.67312
   108  H   1.0    0.28    1.00    1.43   301.77310   148.46353   202.52647
   109  N   5.0   -0.48    3.01    1.93   297.70939   136.97015   201.52302
   110  C   4.0    0.07    4.00    3.61   295.13250   136.18913   202.04127
   111  C   4.0    0.29    3.01    3.02   295.13986   133.67959   203.49151
   112  O   6.0   -0.45    1.00    1.80   293.83594   133.35234   205.38123
   113  C   4.0   -0.16    3.98    3.59   293.64875   135.87441   199.57543
   114  C   4.0   -0.15    3.98    3.58   293.28072   138.34989   198.12759
   115  C   4.0   -0.03    3.98    3.59   291.30640   140.10068   199.34847
   116  N   5.0   -0.47    3.02    1.93   292.13194   142.70956   199.31430
   117  C   4.0    0.38    3.00    3.02   293.02443   144.04920   201.25576
   118  N   5.0   -0.63    3.01    1.93   292.73438   143.33744   203.65158
   119  N   5.0   -0.61    3.02    1.93   294.06030   146.27687   200.72776
   120  H   1.0    0.24    1.00    1.43   298.15913   137.44232   199.71966
   121  H   1.0    0.14    0.99    1.43   294.22591   137.58415   203.28157
   122  H   1.0    0.11    0.99    1.43   294.67479   134.53848   198.39094
   123  H   1.0    0.11    0.99    1.43   291.80684   135.06969   200.02485
   124  H   1.0    0.12    0.99    1.43   295.07805   139.34979   197.99927
   125  H   1.0    0.11    0.99    1.43   292.69129   137.89589   196.20725
   126  H   1.0    0.13    0.99    1.43   289.52910   139.98018   198.30812
   127  H   1.0    0.15    0.99    1.43   290.93073   139.51893   201.28445
   128  H   1.0    0.23    1.00    1.43   292.71984   143.38153   197.60640
   129  H   1.0    0.30    1.00    1.43   291.72712   141.80779   204.18073
   130  H   1.0    0.29    1.00    1.43   293.56462   144.38647   205.00275
   131  H   1.0    0.25    0.99    1.43   294.61965   146.50756   198.85537
   132  H   1.0    0.31    1.00    1.43   295.11704   147.10259   202.08448
   133  N   5.0   -0.47    3.01    1.93   296.56491   131.88739   202.43936
   134  C   4.0    0.07    4.00    3.61   296.68218   129.35058   203.45976
   135  C   4.0    0.30    3.01    3.02   297.58539   129.43813   206.20556
   136  O   6.0   -0.42    1.00    1.80   296.46259   128.42854   207.95982
   137  C   4.0   -0.13    3.99    3.60   298.47028   127.66511   201.94438
   138  C   4.0   -0.10    3.98    3.58   297.65191   127.18821   199.20511
   139  C   4.0   -0.22    3.98    3.59   299.72029   125.69652   197.85150
   140  C   4.0   -0.22    3.98    3.59   295.15175   125.75638   199.07987
   141  H   1.0    0.25    1.00    1.43   297.59248   132.31865   200.87860
   142  H   1.0    0.12    0.99    1.43   294.78151   128.52258   203.50103
   143  H   1.0    0.13    0.99    1.43   300.34943   128.51736   201.96011
   144  H   1.0    0.13    0.99    1.43   298.59360   125.85613   202.93418
   145  H   1.0    0.11    0.99    1.43   297.42846   129.00676   198.24608
   146  H   1.0    0.10    0.99    1.43   299.22778   125.38295   195.88304
   147  H   1.0    0.11    0.99    1.43   301.52199   126.68168   197.93560
   148  H   1.0    0.11    0.99    1.43   299.97747   123.85034   198.72266
   149  H   1.0    0.10    0.99    1.43   294.82116   125.07016   197.17349
   150  H   1.0    0.12    0.99    1.43   295.20269   124.12880   200.33888
   151  H   1.0    0.10    0.99    1.43   293.57978   126.95263   199.63847
   152  N   5.0   -0.46    3.01    1.93   299.68896   130.79855   206.52763
   153  C   4.0    0.09    4.00    3.62   300.87377   130.98234   208.98095
   154  C   4.0    0.30    3.01    3.02   298.93523   131.93506   210.90233
   155  O   6.0   -0.45    1.00    1.80   298.76448   131.02261   213.03209
   156  C   4.0   -0.10    3.99    3.60   303.11878   132.79213   208.86392
   157  C   4.0    0.28    3.00    3.02   305.31268   131.68272   207.34993
   158  O   6.0   -0.39    1.00    1.80   305.17061   129.73278   206.13455
   159  N   5.0   -0.66    3.00    1.93   307.43217   133.08144   207.44541
   160  H   1.0    0.31    1.00    1.43   300.68654   131.43251   205.01904
   161  H   1.0    0.15    0.99    1.43   301.48927   129.09708   209.60825
   162  H   1.0    0.14    0.99    1.43   302.49413   134.54671   207.97366
   163  H   1.0    0.11    0.99    1.43   303.75860   133.19916   210.78024
   164  H   1.0    0.28    1.00    1.43   309.00308   132.40034   206.61017
   165  H   1.0    0.26    1.00    1.43   307.58128   134.59920   208.57993
   166  N   5.0   -0.48    3.01    1.93   297.55696   133.89389   210.12944
   167  C   4.0    0.09    4.00    3.62   295.70572   135.04098   211.78399
   168  C   4.0    0.30    3.02    3.02   293.66592   133.14016   212.50040
   169  O   6.0   -0.44    1.00    1.80   292.99797   132.85565   214.70800
   170  C   4.0   -0.13    3.98    3.59   294.55840   137.39084   210.56356
   171  C   4.0   -0.10    3.98    3.58   292.50620   138.56438   212.21211
   172  C   4.0    0.32    2.99    3.02   293.32536   139.27529   214.93040
   173  O   6.0   -0.46    1.00    1.80   295.58963   139.06571   215.55343
   174  O   6.0   -0.45    1.00    1.80   291.60531   140.04251   216.35327
   175  H   1.0    0.31    1.00    1.43   297.78386   134.61844   208.36784
   176  H   1.0    0.16    0.99    1.43   296.63953   135.59275   213.55241
   177  H   1.0    0.13    0.99    1.43   296.07299   138.75926   210.28080
   178  H   1.0    0.14    0.99    1.43   293.75624   136.86744   208.73514
   179  H   1.0    0.13    0.99    1.43   291.79308   140.29244   211.33777
   180  H   1.0    0.13    0.99    1.43   290.90613   137.27245   212.41471
   181  N   5.0   -0.48    3.01    1.93   292.63807   131.84584   210.59942
   182  C   4.0    0.08    4.00    3.63   290.80025   129.88438   211.11943
   183  C   4.0    0.30    3.01    3.02   291.74990   128.25651   213.30683
   184  O   6.0   -0.48    1.00    1.80   290.39040   127.71384   215.11027
   185  C   4.0   -0.08    3.98    3.59   290.27293   128.27055   208.76236
   186  C   4.0   -0.16    3.98    3.59   288.80830   129.85124   206.82285
   187  C   4.0   -0.22    3.98    3.59   288.85498   125.87022   209.51231
   188  C   4.0   -0.24    3.98    3.58   288.42141   128.49664   204.31068
   189  H   1.0    0.30    1.00    1.43   293.26320   132.06975   208.80177
   190  H   1.0    0.11    0.99    1.43   289.03340   130.76485   211.77906
   191  H   1.0    0.15    0.99    1.43   292.10144   127.72675   207.95924
   192  H   1.0    0.10    0.99    1.43   286.97674   130.36730   207.62199
   193  H   1.0    0.14    0.99    1.43   289.85560   131.59408   206.48273
   194  H   1.0    0.10    0.99    1.43   288.37637   124.76605   207.85166
   195  H   1.0    0.13    0.99    1.43   290.03386   124.69576   210.72406
   196  H   1.0    0.10    0.99    1.43   287.13639   126.33074   210.54027
   197  H   1.0    0.10    0.99    1.43   287.64644   129.80083   202.92812
   198  H   1.0    0.11    0.99    1.43   290.21433   127.77555   203.61195
   199  H   1.0    0.09    0.99    1.43   287.12583   126.91749   204.50494
   200  N   5.0   -0.46    3.01    1.93   294.12494   127.45184   213.08976
   201  C   4.0    0.09    4.00    3.62   295.20384   125.72273   214.91343
   202  C   4.0    0.29    3.02    3.02   295.41020   126.92799   217.51344
   203  O   6.0   -0.44    1.00    1.80   294.89616   125.75192   219.45382
   204  C   4.0   -0.09    3.98    3.59   297.76292   124.82301   213.96174
   205  C   4.0    0.32    3.00    3.02   297.29790   123.21460   211.54820
   206  O   6.0   -0.48    1.00    1.80   295.42037   121.78817   211.62510
   207  O   6.0   -0.42    1.00    1.80   298.77725   123.45321   209.73878
   208  H   1.0    0.30    1.00    1.43   295.12654   127.82556   211.50330
   209  H   1.0    0.14    0.99    1.43   293.95245   124.07050   215.10501
   210  H   1.0    0.15    0.99    1.43   298.97497   126.42622   213.51390
   211  H   1.0    0.12    0.99    1.43   298.66985   123.63566   215.38229
   212  N   5.0   -0.47    3.01    1.93   296.22903   129.29888   217.55123
   213  C   4.0    0.08    4.00    3.62   296.40043   130.66564   219.91631
   214  C   4.0    0.31    3.01    3.02   293.83403   130.53076   221.26344
   215  O   6.0   -0.43    1.00    1.80   293.63204   129.83980   223.46319
   216  C   4.0   -0.14    3.98    3.59   297.25499   133.37640   219.42467
   217  C   4.0   -0.14    3.98    3.59   298.08893   134.66235   221.86731
   218  C   4.0   -0.03    3.99    3.60   298.68028   137.46882   221.46923
   219  N   5.0   -0.46    3.02    1.93   296.47362   138.89931   220.73328
   220  C   4.0    0.38    3.01    3.02   294.69877   139.72631   222.29245
   221  N   5.0   -0.63    3.01    1.93   294.90225   139.51606   224.80630
   222  N   5.0   -0.63    3.02    1.93   292.78404   141.04215   221.31836
   223  H   1.0    0.31    1.00    1.43   296.72996   130.17859   215.92394
   224  H   1.0    0.13    0.99    1.43   297.76688   129.69426   221.14428
   225  H   1.0    0.12    0.99    1.43   298.82288   133.31059   218.08411
   226  H   1.0    0.15    0.99    1.43   295.71762   134.41671   218.52634
   227  H   1.0    0.16    0.99    1.43   296.59353   134.45979   223.26880
   228  H   1.0    0.11    0.99    1.43   299.77541   133.71631   222.57648
   229  H   1.0    0.13    0.99    1.43   299.46672   138.27424   223.19828
   230  H   1.0    0.12    0.99    1.43   300.05423   137.67423   219.94754
   231  H   1.0    0.30    1.00    1.43   296.12274   139.05288   218.82158
   232  H   1.0    0.31    1.00    1.43   295.97649   138.16696   225.64140
   233  H   1.0    0.27    1.00    1.43   293.44754   140.15057   225.85352
   234  H   1.0    0.33    1.00    1.43   292.40640   140.90431   219.41053
   235  H   1.0    0.27    1.00    1.43   291.33967   141.56673   222.43714
   236  N   5.0   -0.48    3.01    1.93   291.87146   131.27714   219.86796
   237  C   4.0    0.08    4.00    3.62   289.31219   131.21697   220.84489
   238  C   4.0    0.30    3.01    3.02   288.71129   128.58165   221.86305
   239  O   6.0   -0.46    1.00    1.80   287.84343   128.26315   223.99914
   240  C   4.0   -0.09    3.98    3.59   287.40833   131.99173   218.79259
   241  C   4.0   -0.23    3.98    3.59   284.70280   131.53704   219.68911
   242  C   4.0   -0.20    3.98    3.59   287.76341   134.76951   218.10429
   243  H   1.0    0.30    1.00    1.43   292.11898   131.70035   218.01913
   244  H   1.0    0.13    0.99    1.43   289.17631   132.53197   222.44785
   245  H   1.0    0.14    0.99    1.43   287.78464   130.82490   217.12526
   246  H   1.0    0.10    0.99    1.43   283.38337   132.17687   218.25089
   247  H   1.0    0.11    0.99    1.43   284.36998   129.53820   220.02970
   248  H   1.0    0.12    0.99    1.43   284.33784   132.57287   221.42569
   249  H   1.0    0.11    0.99    1.43   286.41694   135.31894   216.65270
   250  H   1.0    0.12    0.99    1.43   287.45050   135.96688   219.74224
   251  H   1.0    0.15    0.99    1.43   289.64756   135.13835   217.37475
   252  N   5.0   -0.49    3.01    1.93   289.15466   126.69975   220.26461
   253  C   4.0    0.09    3.99    3.61   288.59585   124.09500   220.86634
   254  C   4.0    0.32    3.01    3.02   289.44930   123.39849   223.54137
   255  O   6.0   -0.40    1.00    1.80   288.07442   122.31110   225.03728
   256  C   4.0   -0.01    3.98    3.59   289.96373   122.35743   218.97634
   257  O   6.0   -0.47    1.99    1.82   289.57767   119.78991   219.50204
   258  H   1.0    0.30    1.00    1.43   289.80324   127.06974   218.49686
   259  H   1.0    0.11    0.99    1.43   286.55063   123.75252   220.74838
   260  H   1.0    0.13    0.99    1.43   289.31743   122.82829   217.06417
   261  H   1.0    0.15    0.99    1.43   291.99803   122.70005   219.09096
   262  H   1.0    0.31    0.99    1.43   287.92880   119.34233   218.83360
   263  N   5.0   -0.47    3.00    1.93   291.86297   123.98713   224.03729
   264  C   4.0    0.03    4.00    3.61   293.08025   123.05493   226.28925
   265  C   4.0    0.28    3.01    3.02   292.65726   124.64354   228.66197
   266  O   6.0   -0.45    1.00    1.80   292.94085   123.72278   230.75875
   267  H   1.0    0.30    1.00    1.43   292.91952   124.83192   222.68838
   268  H   1.0    0.14    0.99    1.43   292.35955   121.15815   226.69412
   269  H   1.0    0.11    0.99    1.43   295.11155   122.93312   225.95275
   270  N   5.0   -0.47    3.01    1.93   292.04540   127.06651   228.29012
   271  C   4.0    0.07    4.00    3.61   291.93677   128.82336   230.37777
   272  C   4.0    0.28    3.01    3.02   289.26138   129.41675   231.30857
   273  O   6.0   -0.43    1.00    1.80   288.89903   130.08260   233.49187
   274  C   4.0   -0.12    3.98    3.59   293.28088   131.29034   229.67410
   275  C   4.0   -0.11    3.99    3.60   296.08324   130.81963   229.17106
   276  C   4.0    0.27    3.00    3.02   297.46582   133.19363   228.36931
   277  O   6.0   -0.44    1.00    1.80   296.40407   135.13618   227.70908
   278  N   5.0   -0.66    3.00    1.93   299.99417   132.99988   228.41948
   279  H   1.0    0.30    1.00    1.43   291.96001   127.76728   226.51224
   280  H   1.0    0.14    0.99    1.43   292.91875   127.92199   231.96714
   281  H   1.0    0.15    0.99    1.43   292.42021   132.06817   227.96981
   282  H   1.0    0.13    0.99    1.43   293.05099   132.65103   231.20327
   283  H   1.0    0.11    0.99    1.43   296.99093   130.01861   230.83789
   284  H   1.0    0.13    0.99    1.43   296.25453   129.47483   227.61235
   285  H   1.0    0.26    1.00    1.43   300.86279   131.37157   228.86986
   286  H   1.0    0.28    1.00    1.43   301.05762   134.47573   227.85680
   287  N   5.0   -0.46    3.01    1.93   287.40184   129.27347   229.60453
   288  C   4.0    0.09    4.00    3.62   284.85070   129.97218   230.33260
   289  C   4.0    0.28    3.01    3.02   283.93741   128.19842   232.42490
   290  O   6.0   -0.43    1.00    1.80   284.13224   125.90494   232.23061
   291  C   4.0    0.04    3.98    3.58   283.05139   129.80468   228.03959
   292  O   6.0   -0.50    1.99    1.82   283.97046   131.25451   226.01358
   293  C   4.0   -0.21    3.98    3.59   280.44381   130.80659   228.75152
   294  H   1.0    0.29    1.00    1.43   287.69542   128.53423   227.86664
   295  H   1.0    0.13    0.99    1.43   284.89723   131.92478   231.02594
   296  H   1.0    0.12    0.99    1.43   282.91097   127.80257   227.49356
   297  H   1.0    0.30    0.99    1.43   285.38646   130.36848   225.23872
   298  H   1.0    0.10    0.99    1.43   279.15988   130.53242   227.17601
   299  H   1.0    0.12    0.99    1.43   279.70192   129.82625   230.39249
   300  H   1.0    0.12    0.99    1.43   280.56456   132.81876   229.14349
   301  N   5.0   -0.48    3.01    1.93   282.90962   129.31579   234.45233
   302  C   4.0    0.07    3.99    3.60   282.04063   127.85959   236.59223
   303  C   4.0    0.08    3.00    3.02   279.60691   128.93406   237.71175
   304  O   6.0   -0.37    1.00    1.80   279.04224   131.16656   237.55215
   305  C   4.0   -0.13    3.98    3.59   284.08492   127.68917   238.66530
   306  C   4.0   -0.10    3.98    3.59   285.03461   130.24860   239.60128
   307  C   4.0    0.30    3.00    3.02   283.09822   131.67636   241.15661
   308  O   6.0   -0.38    1.00    1.80   281.60886   130.61015   242.58423
   309  N   5.0   -0.64    3.00    1.93   283.23236   134.19078   241.00490
   310  H   1.0    0.25    1.00    1.43   282.61082   131.19758   234.51038
   311  H   1.0    0.12    0.99    1.43   281.67277   125.94116   235.91774
   312  H   1.0    0.11    0.99    1.43   283.30677   126.59500   240.22728
   313  H   1.0    0.11    0.99    1.43   285.67824   126.66584   237.85940
   314  H   1.0    0.11    0.99    1.43   286.65402   129.93657   240.84494
   315  H   1.0    0.13    0.99    1.43   285.68481   131.37251   238.00438
   316  H   1.0    0.26    1.00    1.43   284.38735   135.06017   239.77141
   317  H   1.0    0.29    1.00    1.43   281.99975   135.25059   241.99569
   318  N   5.0   -0.70    3.00    1.93   283.81755   119.37935   237.02022
   319  C   4.0    0.07    3.98    3.58   284.65841   120.09846   234.50116
   320  C   4.0    0.09    3.00    3.02   282.82052   118.95327   232.56022
   321  O   6.0   -0.44    1.00    1.80   283.16269   116.91091   231.52295
   322  C   4.0   -0.13    3.98    3.59   287.37475   119.21130   234.09593
   323  C   4.0   -0.16    3.98    3.58   289.21857   120.23765   236.07314
   324  C   4.0   -0.14    3.98    3.59   289.52447   123.10061   235.86625
   325  C   4.0   -0.05    3.98    3.58   291.50540   124.18004   237.65287
   326  N   5.0   -0.72    3.98    2.81   291.10591   123.31327   240.30670
   327  H   1.0    0.26    1.00    1.43   284.60873   117.79286   237.72830
   328  H   1.0    0.13    0.99    1.43   284.53495   122.15479   234.32619
   329  H   1.0    0.12    0.99    1.43   287.39793   117.14982   234.12735
   330  H   1.0    0.12    0.99    1.43   287.95892   119.82633   232.21886
   331  H   1.0    0.10    0.99    1.43   288.51684   119.73560   237.94328
   332  H   1.0    0.11    0.99    1.43   291.03843   119.32989   235.75060
   333  H   1.0    0.15    0.99    1.43   290.09486   123.57914   233.94617
   334  H   1.0    0.11    0.99    1.43   287.71202   124.00712   236.21556
   335  H   1.0    0.12    0.99    1.43   293.38328   123.59799   237.03934
   336  H   1.0    0.12    0.99    1.43   291.39126   126.23605   237.58449
   337  H   1.0    0.24    1.00    1.43   292.09713   124.42967   241.54637
   338  H   1.0    0.23    0.99    1.43   289.18428   123.30294   240.80990
   339  H   1.0    0.23    1.00    1.43   291.72257   121.48120   240.49284
   340  N   5.0   -0.70    3.00    1.93   281.01535   119.45502   226.96499
   341  C   4.0    0.07    3.98    3.59   281.59897   118.69839   224.40644
   342  C   4.0    0.28    3.01    3.02   283.86605   116.92250   224.21001
   343  O   6.0   -0.46    1.00    1.80   284.73049   116.34571   222.13546
   344  C   4.0   -0.13    3.99    3.60   282.10127   121.00017   222.72670
   345  C   4.0   -0.11    3.98    3.58   279.78437   122.65722   222.23237
   346  C   4.0   -0.23    3.99    3.60   280.62748   125.08732   220.92606
   347  C   4.0   -0.23    3.98    3.59   277.82427   121.29562   220.61842
   348  H   1.0    0.28    1.00    1.43   282.20203   120.69459   227.80064
   349  H   1.0    0.11    0.99    1.43   279.97634   117.61876   223.69907
   350  H   1.0    0.14    0.99    1.43   283.58511   122.11342   223.63874
   351  H   1.0    0.12    0.99    1.43   282.83458   120.30391   220.92902
   352  H   1.0    0.11    0.99    1.43   278.91470   123.14491   224.04567
   353  H   1.0    0.09    0.99    1.43   279.00693   126.26304   220.47565
   354  H   1.0    0.11    0.99    1.43   281.89424   126.16257   222.13816
   355  H   1.0    0.10    0.99    1.43   281.60292   124.63481   219.17507
   356  H   1.0    0.10    0.99    1.43   276.20479   122.51556   220.29627
   357  H   1.0    0.10    0.99    1.43   278.63291   120.78560   218.80129
   358  H   1.0    0.10    0.99    1.43   277.16878   119.57753   221.53257
   359  N   5.0   -0.47    3.01    1.93   284.82146   116.04568   226.37654
   360  C   4.0    0.07    3.99    3.60   287.09412   114.53086   226.43996
   361  C   4.0    0.07    3.00    3.02   286.60550   111.69900   226.22917
   362  O   6.0   -0.46    1.00    1.80   288.16274   110.30673   225.23504
   363  C   4.0   -0.20    3.99    3.60   288.54773   115.02121   228.88051
   364  H   1.0    0.30    1.00    1.43   284.01111   116.47948   228.06362
   365  H   1.0    0.16    0.99    1.43   288.23954   115.05636   224.79356
   366  H   1.0    0.12    0.99    1.43   290.20492   113.81442   228.96220
   367  H   1.0    0.12    0.99    1.43   289.13050   116.98738   228.94725
   368  H   1.0    0.13    0.99    1.43   287.32510   114.61930   230.47985
   369  N   5.0   -0.70    3.00    1.93   280.67510   110.22598   219.96292
   370  C   4.0    0.07    3.99    3.60   283.14620   111.27199   219.38497
   371  C   4.0    0.28    3.01    3.02   283.09811   112.39858   216.70745
   372  O   6.0   -0.41    1.00    1.80   282.97536   111.04493   214.82435
   373  C   4.0   -0.13    3.98    3.59   285.21768   109.26842   219.52842
   374  C   4.0   -0.10    3.99    3.60   287.79635   110.52989   219.16674
   375  C   4.0    0.28    3.00    3.02   289.98688   108.67072   219.16600
   376  O   6.0   -0.40    1.00    1.80   291.39190   108.42839   217.33589
   377  N   5.0   -0.64    3.00    1.93   290.27303   107.34614   221.29127
   378  H   1.0    0.27    1.00    1.43   280.40799   108.34236   219.73416
   379  H   1.0    0.14    0.99    1.43   283.51786   112.79754   220.73132
   380  H   1.0    0.13    0.99    1.43   285.12158   108.32302   221.35403
   381  H   1.0    0.14    0.99    1.43   284.88516   107.86477   218.05269
   382  H   1.0    0.15    0.99    1.43   287.80765   111.53513   217.36774
   383  H   1.0    0.14    0.99    1.43   288.08850   111.88423   220.69360
   384  H   1.0    0.31    1.00    1.43   289.39141   107.92150   222.88663
   385  H   1.0    0.29    1.00    1.43   291.76700   106.17356   221.43701
   386  N   5.0   -0.49    3.01    1.93   283.20860   114.91011   216.61841
   387  C   4.0    0.08    4.00    3.62   283.22783   116.33615   214.27838
   388  C   4.0    0.26    3.01    3.02   285.70058   117.82309   214.17262
   389  O   6.0   -0.47    1.00    1.80   286.12251   119.55752   215.64528
   390  C   4.0   -0.08    3.98    3.59   280.97490   118.16475   214.10334
   391  C   4.0   -0.15    3.98    3.58   278.45595   116.75733   214.37145
   392  C   4.0   -0.24    3.98    3.59   281.13975   119.65678   211.63771
   393  C   4.0   -0.22    3.98    3.58   278.03512   114.66060   212.43706
   394  H   1.0    0.26    1.00    1.43   283.30946   115.89701   218.25751
   395  H   1.0    0.13    0.99    1.43   283.15293   114.99639   212.71490
   396  H   1.0    0.11    0.99    1.43   281.13983   119.49755   215.68020
   397  H   1.0    0.12    0.99    1.43   278.34789   115.95650   216.27184
   398  H   1.0    0.09    0.99    1.43   276.93803   118.14105   214.19107
   399  H   1.0    0.09    0.99    1.43   279.48907   120.86265   211.43716
   400  H   1.0    0.11    0.99    1.43   282.82011   120.84050   211.62893
   401  H   1.0    0.09    0.99    1.43   281.24614   118.39263   210.02395
   402  H   1.0    0.11    0.99    1.43   276.12594   113.93164   212.61799
   403  H   1.0    0.10    0.99    1.43   278.26793   115.35099   210.51820
   404  H   1.0    0.14    0.99    1.43   279.33475   113.09770   212.72440
   405  N   5.0   -0.48    3.01    1.93   287.33935   117.07455   212.40447
   406  C   4.0    0.08    4.00    3.61   289.69085   118.38132   211.92415
   407  C   4.0    0.28    3.02    3.02   290.47622   117.80797   209.21016
   408  O   6.0   -0.44    1.00    1.80   289.25542   116.35707   207.87154
   409  C   4.0   -0.08    3.99    3.60   291.74303   117.65065   213.84808
   410  C   4.0    0.30    3.00    3.02   292.26523   114.84394   213.73060
   411  O   6.0   -0.35    1.00    1.80   292.76057   113.76381   211.72873
   412  N   5.0   -0.64    3.00    1.93   292.13114   113.63279   215.92881
   413  H   1.0    0.26    1.00    1.43   286.94335   115.63192   211.19675
   414  H   1.0    0.11    0.99    1.43   289.37117   120.42414   212.08559
   415  H   1.0    0.14    0.99    1.43   293.46149   118.70224   213.40560
   416  H   1.0    0.14    0.99    1.43   291.11191   118.19647   215.73101
   417  H   1.0    0.33    1.00    1.43   292.27954   111.71451   216.04303
   418  H   1.0    0.27    1.00    1.43   291.81384   114.61736   217.52627
   419  N   5.0   -0.49    3.01    1.93   292.50677   119.04864   208.38909
   420  C   4.0    0.09    4.00    3.61   293.25669   118.80068   205.78432
   421  C   4.0    0.09    3.00    3.02   293.34537   116.04145   204.94030
   422  O   6.0   -0.41    1.00    1.80   292.70904   115.43739   202.79428
   423  C   4.0   -0.01    3.98    3.59   295.89104   119.94662   205.31503
   424  O   6.0   -0.49    1.99    1.82   295.91052   122.58183   205.49197
   425  H   1.0    0.30    1.00    1.43   293.57350   120.20974   209.53797
   426  H   1.0    0.13    0.99    1.43   291.89760   119.78766   204.55999
   427  H   1.0    0.13    0.99    1.43   297.24144   119.09233   206.63041
   428  H   1.0    0.12    0.99    1.43   296.42922   119.42700   203.38177
   429  H   1.0    0.33    0.99    1.43   296.82615   123.07136   207.03418
   430  N   5.0   -0.69    3.00    1.93   286.82909   112.42111   204.59575
   431  C   4.0    0.07    3.98    3.58   285.51325   113.39147   202.40180
   432  C   4.0    0.09    3.00    3.02   286.64684   112.31458   199.96570
   433  O   6.0   -0.40    1.00    1.80   285.32758   111.68721   198.17724
   434  C   4.0   -0.13    3.99    3.60   285.65496   116.27434   202.34900
   435  C   4.0   -0.10    3.98    3.58   284.19274   117.54601   204.50708
   436  C   4.0   -0.23    3.98    3.59   284.85110   120.35723   204.57674
   437  C   4.0   -0.23    3.98    3.59   281.34519   117.19714   204.23497
   438  H   1.0    0.32    1.00    1.43   287.78770   113.64797   205.70344
   439  H   1.0    0.12    0.99    1.43   283.54404   112.74249   202.46112
   440  H   1.0    0.14    0.99    1.43   287.64921   116.80676   202.47289
   441  H   1.0    0.11    0.99    1.43   284.92179   116.92259   200.53441
   442  H   1.0    0.13    0.99    1.43   284.80815   116.68668   206.28527
   443  H   1.0    0.09    0.99    1.43   283.81640   121.29439   206.08324
   444  H   1.0    0.11    0.99    1.43   286.86477   120.61170   204.91707
   445  H   1.0    0.09    0.99    1.43   284.36721   121.24094   202.78573
   446  H   1.0    0.09    0.99    1.43   280.37037   118.10870   205.79445
   447  H   1.0    0.10    0.99    1.43   280.67870   118.03191   202.48180
   448  H   1.0    0.10    0.99    1.43   280.83433   115.21071   204.22944
   449  H   1.0    0.29    1.00    1.43   274.00264   135.89195   221.02486
   450  H   1.0    0.13    1.00    1.43   275.00450   131.02198   216.92329
   451  H   1.0    0.30    1.00    1.43   274.60930   138.24464   211.99927
   452  H   1.0    0.14    1.00    1.43   277.90521   132.49805   206.18387
   453  H   1.0    0.31    1.00    1.43   281.76412   139.40501   202.50695
   454  H   1.0    0.15    1.00    1.43   279.93330   134.79463   195.23953
   455  H   1.0    0.29    1.00    1.43   301.36266   132.86180   195.08491
   456  H   1.0    0.13    1.00    1.43   278.40152   127.79634   238.61933
   457  H   1.0    0.28    1.00    1.43   284.18045   120.62700   238.11759
   458  H   1.0    0.14    1.00    1.43   281.24705   119.88545   232.08450
   459  H   1.0    0.29    1.00    1.43   279.48517   120.19642   227.00272
   460  H   1.0    0.14    1.00    1.43   285.00164   110.96393   226.90621
   461  H   1.0    0.29    1.00    1.43   280.29983   110.52432   221.59471
   462  H   1.0    0.17    1.00    1.43   293.92692   114.70400   206.14200
   463  H   1.0    0.30    1.00    1.43   285.71513   111.67403   205.64146
   464  H   1.0    0.16    1.00    1.43   288.51832   112.10739   199.80541

           ------------------------------------------------- 
          |        Self-Consistent Charge Iterations        |
           ------------------------------------------------- 

          ...................................................
          :                      SETUP                      :
          :.................................................:
          :  # basis functions                1124          :
          :  # atomic orbitals                1124          :
          :  # shells                          684          :
          :  # electrons                      1256          :
          :  max. iterations                   250          :
          :  Hamiltonian                  GFN2-xTB          :
          :  restarted?                      false          :
          :  GBSA solvation                   true          :
          :  PC potential                    false          :
          :  electronic temp.          500.0000000     K    :
          :  accuracy                    0.1000000          :
          :  -> integral cutoff          0.3500000E+02      :
          :  -> integral neglect         0.1000000E-08      :
          :  -> SCF convergence          0.1000000E-06 Eh   :
          :  -> wf. convergence          0.1000000E-04 e    :
          :  Broyden damping             0.4000000          :
          ...................................................

 iter      E             dE          RMSdq      gap      omega  full diag
   1   -722.0583673 -0.722058E+03  0.426E+00    1.98       0.0  T
   2   -724.0029004 -0.194453E+01  0.219E+00    1.75       1.0  T
   3   -724.0738826 -0.709822E-01  0.117E+00    1.92       1.0  T
   4   -724.0959798 -0.220972E-01  0.267E-01    1.24       1.0  T
   5   -724.1129067 -0.169268E-01  0.117E-01    1.46       1.0  T
   6   -724.1137077 -0.801014E-03  0.526E-02    1.53       1.0  T
   7   -724.1138229 -0.115253E-03  0.208E-02    1.58       1.0  T
   8   -724.1138651 -0.421622E-04  0.926E-03    1.58       1.0  T
   9   -724.1138728 -0.773328E-05  0.436E-03    1.58       1.1  T
  10   -724.1138744 -0.153702E-05  0.189E-03    1.58       2.5  T
  11   -724.1138748 -0.421617E-06  0.820E-04    1.58       5.7  T
  12   -724.1138749 -0.676866E-07  0.386E-04    1.58      12.0  T
  13   -724.1138749 -0.121308E-07  0.156E-04    1.58      29.7  T
  14   -724.1138749 -0.242085E-08  0.593E-05    1.58      78.2  T
  15   -724.1138749 -0.292289E-09  0.252E-05    1.58     184.1  T

   *** convergence criteria satisfied after 15 iterations ***

         #    Occupation            Energy/Eh            Energy/eV
      -------------------------------------------------------------
         1        2.0000           -0.7379029             -20.0794
       ...           ...                  ...                  ...
       622        2.0000           -0.3739972             -10.1770
       623        2.0000           -0.3708041             -10.0901
       624        2.0000           -0.3657248              -9.9519
       625        2.0000           -0.3640766              -9.9070
       626        2.0000           -0.3623934              -9.8612
       627        2.0000           -0.3556609              -9.6780
       628        2.0000           -0.3544841              -9.6460 (HOMO)
       629                         -0.2965366              -8.0692 (LUMO)
       630                         -0.2961821              -8.0595
       631                         -0.2953562              -8.0370
       632                         -0.2883476              -7.8463
       633                         -0.2870564              -7.8112
       ...                                ...                  ...
      1124                          0.6368681              17.3301
      -------------------------------------------------------------
                  HL-Gap            0.0579475 Eh            1.5768 eV
             Fermi-level           -0.3258504 Eh           -8.8668 eV

 SCC (total)                   0 d,  0 h,  0 min,  8.186 sec
 SCC setup                      ...        0 min,  0.133 sec (  1.619%)
 Dispersion                     ...        0 min,  0.141 sec (  1.722%)
 integral evaluation            ...        0 min,  0.321 sec (  3.924%)
 zeroth order Hamiltonian       ...        0 min,  0.004 sec (  0.054%)
 iterations                     ...        0 min,  6.339 sec ( 77.433%)
 molecular gradient             ...        0 min,  1.206 sec ( 14.732%)
 printout                       ...        0 min,  0.042 sec (  0.516%)

         :::::::::::::::::::::::::::::::::::::::::::::::::::::
         ::                     SUMMARY                     ::
         :::::::::::::::::::::::::::::::::::::::::::::::::::::
         :: total energy             -715.608674123118 Eh   ::
         :: total w/o Gsasa/hb       -715.521639669971 Eh   ::
         :: gradient norm               0.627194937127 Eh/α ::
         :: HOMO-LUMO gap               1.576831612886 eV   ::
         ::.................................................::
         :: SCC energy               -724.134508209829 Eh   ::
         :: -> isotropic ES             2.341638296515 Eh   ::
         :: -> anisotropic ES          -0.137653886401 Eh   ::
         :: -> anisotropic XC           0.215270829805 Eh   ::
         :: -> dispersion              -0.610725060436 Eh   ::
         :: -> Gsolv                   -0.538338602932 Eh   ::
         ::    -> Gborn                -0.451304149785 Eh   ::
         ::    -> Gsasa                -0.022490774999 Eh   ::
         ::    -> Ghb                  -0.066401121275 Eh   ::
         ::    -> Gshift                0.001857443127 Eh   ::
         :: repulsion energy            8.463874389587 Eh   ::
         :: add. restraining            0.000000000000 Eh   ::
         :::::::::::::::::::::::::::::::::::::::::::::::::::::

           -------------------------------------------------
          |                Property Printout                |
           -------------------------------------------------

    * Orbital Energies and Occupations

         #    Occupation            Energy/Eh            Energy/eV
      -------------------------------------------------------------
         1        2.0000           -0.7379029             -20.0794
       ...           ...                  ...                  ...
       616        2.0000           -0.3934721             -10.7069
       617        2.0000           -0.3900582             -10.6140
       618        2.0000           -0.3885884             -10.5740
       619        2.0000           -0.3783033             -10.2942
       620        2.0000           -0.3771905             -10.2639
       621        2.0000           -0.3758626             -10.2277
       622        2.0000           -0.3739972             -10.1770
       623        2.0000           -0.3708041             -10.0901
       624        2.0000           -0.3657248              -9.9519
       625        2.0000           -0.3640766              -9.9070
       626        2.0000           -0.3623934              -9.8612
       627        2.0000           -0.3556609              -9.6780
       628        2.0000           -0.3544841              -9.6460 (HOMO)
       629                         -0.2965366              -8.0692 (LUMO)
       630                         -0.2961821              -8.0595
       631                         -0.2953562              -8.0370
       632                         -0.2883476              -7.8463
       633                         -0.2870564              -7.8112
       634                         -0.2845923              -7.7442
       635                         -0.2796369              -7.6093
       636                         -0.2740281              -7.4567
       637                         -0.2508187              -6.8251
       638                         -0.2466609              -6.7120
       639                         -0.2454914              -6.6802
       ...                                ...                  ...
      1124                          0.6368681              17.3301
      -------------------------------------------------------------
                  HL-Gap            0.0579475 Eh            1.5768 eV
             Fermi-level           -0.3258504 Eh           -8.8668 eV

   #   Z        covCN         q      C6AA      α(0)
   1   7 N      2.637    -0.393    30.184     8.160
   2   6 C      3.781     0.046    19.817     6.342
   3   6 C      2.766     0.194    23.848     7.998
   4   8 O      0.856    -0.373    21.157     6.167
   5   6 C      3.758    -0.123    22.912     6.824
   6   1 H      0.860     0.181     1.210     1.723
   7   1 H      0.923     0.036     2.501     2.473
   8   1 H      0.925     0.056     2.245     2.343
   9   1 H      0.925     0.070     2.081     2.256
  10   1 H      0.925     0.066     2.127     2.281
  11   7 N      2.635    -0.387    30.022     8.138
  12   6 C      3.788     0.043    19.857     6.347
  13   6 C      2.761     0.266    22.513     7.770
  14   8 O      0.859    -0.520    24.241     6.601
  15   6 C      3.809    -0.047    21.402     6.585
  16   6 C      3.799    -0.090    22.210     6.710
  17   6 C      2.685     0.373    20.675     7.441
  18   8 O      0.856    -0.653    27.469     7.027
  19   8 O      0.856    -0.653    27.453     7.025
  20   1 H      0.860     0.159     1.343     1.816
  21   1 H      0.923     0.023     2.691     2.565
  22   1 H      0.924     0.054     2.266     2.354
  23   1 H      0.924     0.011     2.870     2.649
  24   1 H      0.924     0.017     2.778     2.606
  25   1 H      0.924     0.020     2.730     2.584
  26   7 N      2.692    -0.176    24.815     7.398
  27   6 C      3.800     0.027    20.114     6.386
  28   6 C      2.765     0.203    23.681     7.969
  29   8 O      0.856    -0.338    20.488     6.069
  30   6 C      3.853    -0.028    21.030     6.522
  31   6 C      3.805    -0.060    21.643     6.623
  32   6 C      3.755    -0.121    22.881     6.820
  33   6 C      3.751    -0.107    22.611     6.781
  34   1 H      0.860     0.244     0.909     1.493
  35   1 H      0.923     0.062     2.170     2.304
  36   1 H      0.924     0.069     2.093     2.263
  37   1 H      0.924     0.027     2.637     2.539
  38   1 H      0.924     0.042     2.429     2.437
  39   1 H      0.925     0.062     2.177     2.308
  40   1 H      0.925     0.055     2.261     2.351
  41   1 H      0.925     0.051     2.304     2.374
  42   1 H      0.925     0.033     2.544     2.494
  43   1 H      0.925     0.052     2.290     2.367
  44   1 H      0.925     0.043     2.415     2.430
  45   7 N      2.635    -0.397    30.280     8.172
  46   6 C      3.785     0.040    19.922     6.357
  47   6 C      2.759     0.265    22.532     7.773
  48   8 O      0.859    -0.500    23.784     6.539
  49   6 C      3.809    -0.103    22.457     6.746
  50   6 C      2.743     0.291    22.071     7.692
  51   8 O      0.859    -0.484    23.436     6.491
  52   7 N      2.638    -0.276    27.143     7.738
  53   1 H      0.860     0.168     1.288     1.777
  54   1 H      0.923     0.041     2.436     2.441
  55   1 H      0.925     0.078     2.002     2.213
  56   1 H      0.924     0.068     2.113     2.273
  57   1 H      0.860     0.198     1.118     1.656
  58   1 H      0.860     0.211     1.051     1.606
  59   7 N      2.689    -0.169    24.654     7.374
  60   6 C      3.795     0.025    20.162     6.394
  61   6 C      2.763     0.206    23.632     7.961
  62   8 O      0.856    -0.371    21.103     6.159
  63   6 C      3.810    -0.076    21.950     6.669
  64   6 C      3.850    -0.017    20.847     6.494
  65   6 C      3.757    -0.119    22.824     6.811
  66   6 C      3.757    -0.120    22.858     6.817
  67   1 H      0.860     0.236     0.938     1.518
  68   1 H      0.924     0.093     1.851     2.128
  69   1 H      0.924     0.062     2.179     2.308
  70   1 H      0.924     0.067     2.119     2.277
  71   1 H      0.924     0.048     2.341     2.393
  72   1 H      0.925     0.047     2.355     2.400
  73   1 H      0.925     0.040     2.452     2.449
  74   1 H      0.925     0.047     2.359     2.402
  75   1 H      0.925     0.045     2.388     2.417
  76   1 H      0.925     0.047     2.354     2.399
  77   1 H      0.925     0.039     2.467     2.456
  78   7 N      2.637    -0.389    30.075     8.145
  79   6 C      3.787     0.013    20.374     6.429
  80   6 C      2.762     0.263    22.569     7.780
  81   8 O      0.859    -0.497    23.721     6.530
  82   6 C      3.726     0.115    18.802     6.191
  83   8 O      1.655    -0.482    22.504     6.404
  84   6 C      3.754    -0.123    22.918     6.826
  85   1 H      0.860     0.173     1.256     1.756
  86   1 H      0.923     0.042     2.418     2.432
  87   1 H      0.923     0.030     2.593     2.518
  88   1 H      0.804     0.334     0.627     1.244
  89   1 H      0.925     0.065     2.146     2.291
  90   1 H      0.925     0.044     2.399     2.422
  91   1 H      0.925     0.053     2.278     2.360
  92   7 N      2.690    -0.174    24.761     7.390
  93   6 C      3.803     0.010    20.410     6.432
  94   6 C      2.757     0.278    22.294     7.732
  95   8 O      0.858    -0.494    23.642     6.519
  96   6 C      3.805    -0.086    22.137     6.698
  97   6 C      3.807    -0.106    22.514     6.755
  98   6 C      2.743     0.286    22.162     7.708
  99   8 O      0.859    -0.494    23.653     6.521
 100   7 N      2.639    -0.281    27.269     7.756
 101   1 H      0.860     0.236     0.941     1.519
 102   1 H      0.923     0.082     1.962     2.191
 103   1 H      0.924     0.090     1.874     2.141
 104   1 H      0.924     0.077     2.008     2.216
 105   1 H      0.924     0.063     2.165     2.301
 106   1 H      0.924     0.078     2.001     2.212
 107   1 H      0.860     0.233     0.954     1.530
 108   1 H      0.860     0.238     0.930     1.510
 109   7 N      2.690    -0.176    24.821     7.399
 110   6 C      3.798     0.009    20.433     6.436
 111   6 C      2.758     0.277    22.312     7.735
 112   8 O      0.858    -0.499    23.758     6.535
 113   6 C      3.806    -0.082    22.054     6.685
 114   6 C      3.801    -0.091    22.227     6.712
 115   6 C      3.736    -0.032    21.239     6.577
 116   7 N      2.702    -0.152    24.278     7.318
 117   6 C      2.735     0.230    23.164     7.880
 118   7 N      2.647    -0.241    26.292     7.615
 119   7 N      2.655    -0.265    26.869     7.699
 120   1 H      0.860     0.229     0.969     1.542
 121   1 H      0.923     0.089     1.885     2.147
 122   1 H      0.925     0.072     2.060     2.244
 123   1 H      0.925     0.062     2.171     2.304
 124   1 H      0.924     0.077     2.008     2.216
 125   1 H      0.925     0.088     1.898     2.155
 126   1 H      0.924     0.084     1.940     2.178
 127   1 H      0.925     0.089     1.884     2.147
 128   1 H      0.860     0.238     0.933     1.513
 129   1 H      0.860     0.234     0.946     1.524
 130   1 H      0.860     0.242     0.913     1.497
 131   1 H      0.858     0.251     0.880     1.470
 132   1 H      0.860     0.260     0.845     1.440
 133   7 N      2.691    -0.171    24.704     7.382
 134   6 C      3.799     0.027    20.120     6.387
 135   6 C      2.761     0.286    22.158     7.709
 136   8 O      0.858    -0.513    24.066     6.577
 137   6 C      3.811    -0.076    21.950     6.669
 138   6 C      3.849    -0.010    20.729     6.476
 139   6 C      3.757    -0.116    22.763     6.802
 140   6 C      3.756    -0.121    22.868     6.818
 141   1 H      0.860     0.213     1.040     1.597
 142   1 H      0.924     0.068     2.105     2.269
 143   1 H      0.924     0.058     2.223     2.332
 144   1 H      0.924     0.052     2.296     2.370
 145   1 H      0.924     0.042     2.416     2.431
 146   1 H      0.925     0.057     2.237     2.339
 147   1 H      0.925     0.039     2.465     2.455
 148   1 H      0.925     0.036     2.505     2.475
 149   1 H      0.925     0.058     2.227     2.334
 150   1 H      0.925     0.037     2.485     2.465
 151   1 H      0.925     0.039     2.466     2.456
 152   7 N      2.694    -0.189    25.102     7.441
 153   6 C      3.801     0.044    19.829     6.340
 154   6 C      2.761     0.279    22.276     7.729
 155   8 O      0.858    -0.515    24.120     6.585
 156   6 C      3.811    -0.114    22.674     6.778
 157   6 C      2.743     0.293    22.027     7.685
 158   8 O      0.859    -0.485    23.444     6.492
 159   7 N      2.639    -0.292    27.519     7.791
 160   1 H      0.860     0.245     0.904     1.490
 161   1 H      0.923     0.052     2.291     2.367
 162   1 H      0.924     0.100     1.785     2.089
 163   1 H      0.924     0.082     1.957     2.188
 164   1 H      0.860     0.237     0.935     1.515
 165   1 H      0.860     0.239     0.927     1.509
 166   7 N      2.691    -0.188    25.067     7.436
 167   6 C      3.802     0.032    20.038     6.373
 168   6 C      2.762     0.283    22.200     7.716
 169   8 O      0.859    -0.510    24.015     6.570
 170   6 C      3.805    -0.064    21.722     6.635
 171   6 C      3.800    -0.088    22.185     6.706
 172   6 C      2.684     0.366    20.794     7.462
 173   8 O      0.856    -0.585    25.759     6.805
 174   8 O      0.857    -0.605    26.247     6.869
 175   1 H      0.860     0.234     0.949     1.526
 176   1 H      0.924     0.085     1.932     2.174
 177   1 H      0.924     0.071     2.077     2.253
 178   1 H      0.924     0.055     2.264     2.353
 179   1 H      0.924     0.043     2.412     2.429
 180   1 H      0.924     0.014     2.831     2.631
 181   7 N      2.691    -0.191    25.150     7.448
 182   6 C      3.806     0.036    19.960     6.360
 183   6 C      2.760     0.292    22.047     7.689
 184   8 O      0.859    -0.504    23.880     6.552
 185   6 C      3.853    -0.019    20.886     6.500
 186   6 C      3.804    -0.065    21.739     6.638
 187   6 C      3.755    -0.106    22.586     6.776
 188   6 C      3.752    -0.110    22.668     6.790
 189   1 H      0.860     0.228     0.975     1.546
 190   1 H      0.923     0.053     2.278     2.360
 191   1 H      0.924     0.046     2.369     2.407
 192   1 H      0.924     0.038     2.477     2.461
 193   1 H      0.924     0.046     2.370     2.408
 194   1 H      0.925     0.061     2.192     2.315
 195   1 H      0.925     0.009     2.913     2.669
 196   1 H      0.925     0.055     2.264     2.353
 197   1 H      0.925     0.058     2.220     2.330
 198   1 H      0.925     0.035     2.520     2.482
 199   1 H      0.925     0.051     2.303     2.373
 200   7 N      2.692    -0.189    25.103     7.441
 201   6 C      3.805     0.052    19.701     6.319
 202   6 C      2.762     0.271    22.421     7.754
 203   8 O      0.859    -0.511    24.018     6.571
 204   6 C      3.805    -0.099    22.377     6.734
 205   6 C      2.688     0.376    20.635     7.434
 206   8 O      0.857    -0.600    26.107     6.851
 207   8 O      0.856    -0.597    26.045     6.842
 208   1 H      0.860     0.210     1.056     1.609
 209   1 H      0.923     0.054     2.276     2.359
 210   1 H      0.925     0.047     2.353     2.399
 211   1 H      0.924     0.045     2.390     2.417
 212   7 N      2.693    -0.180    24.909     7.412
 213   6 C      3.803     0.024    20.162     6.393
 214   6 C      2.757     0.277    22.308     7.734
 215   8 O      0.859    -0.478    23.300     6.472
 216   6 C      3.806    -0.074    21.914     6.664
 217   6 C      3.803    -0.081    22.036     6.683
 218   6 C      3.740    -0.022    21.038     6.544
 219   7 N      2.700    -0.163    24.531     7.356
 220   6 C      2.738     0.238    23.029     7.857
 221   7 N      2.647    -0.267    26.919     7.706
 222   7 N      2.655    -0.292    27.522     7.792
 223   1 H      0.860     0.220     1.008     1.573
 224   1 H      0.923     0.075     2.027     2.226
 225   1 H      0.924     0.060     2.201     2.320
 226   1 H      0.924     0.051     2.302     2.372
 227   1 H      0.925     0.064     2.158     2.297
 228   1 H      0.925     0.073     2.053     2.241
 229   1 H      0.924     0.094     1.837     2.120
 230   1 H      0.924     0.083     1.945     2.181
 231   1 H      0.859     0.232     0.957     1.532
 232   1 H      0.860     0.255     0.865     1.457
 233   1 H      0.860     0.235     0.945     1.523
 234   1 H      0.859     0.240     0.923     1.505
 235   1 H      0.860     0.227     0.977     1.548
 236   7 N      2.691    -0.189    25.089     7.439
 237   6 C      3.802     0.023    20.183     6.396
 238   6 C      2.757     0.283    22.205     7.717
 239   8 O      0.858    -0.494    23.646     6.520
 240   6 C      3.853    -0.017    20.842     6.493
 241   6 C      3.756    -0.120    22.857     6.817
 242   6 C      3.757    -0.110    22.650     6.786
 243   1 H      0.860     0.217     1.025     1.586
 244   1 H      0.923     0.077     2.014     2.219
 245   1 H      0.924     0.042     2.429     2.437
 246   1 H      0.925     0.055     2.261     2.352
 247   1 H      0.925     0.036     2.496     2.471
 248   1 H      0.925     0.070     2.089     2.260
 249   1 H      0.925     0.039     2.464     2.455
 250   1 H      0.925     0.055     2.262     2.352
 251   1 H      0.925     0.038     2.480     2.462
 252   7 N      2.691    -0.184    24.995     7.425
 253   6 C      3.796     0.022    20.211     6.402
 254   6 C      2.760     0.289    22.100     7.699
 255   8 O      0.858    -0.467    23.072     6.440
 256   6 C      3.680     0.076    19.517     6.327
 257   8 O      1.655    -0.463    22.102     6.346
 258   1 H      0.860     0.219     1.015     1.578
 259   1 H      0.923     0.065     2.143     2.289
 260   1 H      0.924     0.033     2.538     2.491
 261   1 H      0.924     0.054     2.274     2.358
 262   1 H      0.804     0.328     0.643     1.260
 263   7 N      2.687    -0.177    24.843     7.403
 264   6 C      3.748    -0.031    21.198     6.567
 265   6 C      2.754     0.272    22.408     7.752
 266   8 O      0.859    -0.460    22.909     6.417
 267   1 H      0.860     0.203     1.092     1.637
 268   1 H      0.924     0.093     1.854     2.130
 269   1 H      0.924     0.090     1.879     2.143
 270   7 N      2.688    -0.173    24.734     7.386
 271   6 C      3.799     0.008    20.444     6.438
 272   6 C      2.760     0.268    22.481     7.765
 273   8 O      0.859    -0.466    23.037     6.435
 274   6 C      3.808    -0.066    21.750     6.639
 275   6 C      3.809    -0.107    22.538     6.758
 276   6 C      2.744     0.287    22.129     7.702
 277   8 O      0.859    -0.491    23.581     6.511
 278   7 N      2.640    -0.288    27.432     7.779
 279   1 H      0.860     0.201     1.099     1.642
 280   1 H      0.924     0.106     1.730     2.057
 281   1 H      0.924     0.057     2.238     2.339
 282   1 H      0.925     0.078     1.996     2.209
 283   1 H      0.925     0.084     1.938     2.177
 284   1 H      0.924     0.075     2.034     2.230
 285   1 H      0.860     0.228     0.973     1.545
 286   1 H      0.860     0.229     0.970     1.542
 287   7 N      2.689    -0.171    24.706     7.382
 288   6 C      3.801     0.006    20.471     6.442
 289   6 C      2.758     0.273    22.391     7.749
 290   8 O      0.859    -0.472    23.175     6.454
 291   6 C      3.727     0.122    18.680     6.171
 292   8 O      1.655    -0.474    22.350     6.382
 293   6 C      3.754    -0.133    23.112     6.855
 294   1 H      0.860     0.205     1.080     1.628
 295   1 H      0.924     0.068     2.105     2.269
 296   1 H      0.923     0.020     2.740     2.589
 297   1 H      0.804     0.314     0.680     1.295
 298   1 H      0.925     0.067     2.118     2.276
 299   1 H      0.925     0.053     2.287     2.365
 300   1 H      0.925     0.068     2.111     2.272
 301   7 N      2.689    -0.154    24.337     7.327
 302   6 C      3.793     0.019    20.272     6.412
 303   6 C      2.765     0.204    23.668     7.967
 304   8 O      0.856    -0.372    21.122     6.162
 305   6 C      3.805    -0.072    21.864     6.657
 306   6 C      3.806    -0.111    22.616     6.770
 307   6 C      2.743     0.291    22.057     7.690
 308   8 O      0.859    -0.517    24.173     6.592
 309   7 N      2.639    -0.288    27.433     7.779
 310   1 H      0.860     0.207     1.069     1.620
 311   1 H      0.924     0.101     1.780     2.086
 312   1 H      0.925     0.087     1.908     2.160
 313   1 H      0.925     0.087     1.907     2.159
 314   1 H      0.924     0.106     1.731     2.058
 315   1 H      0.925     0.077     2.015     2.220
 316   1 H      0.860     0.227     0.977     1.548
 317   1 H      0.860     0.221     1.005     1.570
 318   7 N      2.637    -0.386    29.997     8.134
 319   6 C      3.782     0.026    20.157     6.396
 320   6 C      2.765     0.198    23.778     7.986
 321   8 O      0.856    -0.370    21.089     6.157
 322   6 C      3.806    -0.074    21.916     6.664
 323   6 C      3.802    -0.084    22.107     6.694
 324   6 C      3.803    -0.090    22.215     6.710
 325   6 C      3.730    -0.050    21.574     6.630
 326   7 N      3.481    -0.143    24.084     7.289
 327   1 H      0.860     0.173     1.257     1.756
 328   1 H      0.924     0.073     2.057     2.243
 329   1 H      0.924     0.053     2.283     2.363
 330   1 H      0.925     0.032     2.556     2.500
 331   1 H      0.925     0.064     2.158     2.297
 332   1 H      0.925     0.067     2.121     2.277
 333   1 H      0.925     0.078     1.999     2.211
 334   1 H      0.925     0.059     2.211     2.326
 335   1 H      0.925     0.120     1.615     1.988
 336   1 H      0.924     0.114     1.661     2.015
 337   1 H      0.859     0.306     0.695     1.306
 338   1 H      0.857     0.289     0.746     1.353
 339   1 H      0.859     0.296     0.726     1.335
 340   7 N      2.634    -0.380    29.833     8.112
 341   6 C      3.786     0.029    20.109     6.387
 342   6 C      2.758     0.267    22.497     7.767
 343   8 O      0.859    -0.522    24.276     6.606
 344   6 C      3.813    -0.064    21.718     6.633
 345   6 C      3.850    -0.011    20.737     6.477
 346   6 C      3.758    -0.109    22.642     6.784
 347   6 C      3.756    -0.118    22.814     6.810
 348   1 H      0.860     0.149     1.409     1.860
 349   1 H      0.924     0.056     2.250     2.346
 350   1 H      0.924     0.035     2.522     2.484
 351   1 H      0.924     0.028     2.610     2.526
 352   1 H      0.924     0.035     2.517     2.481
 353   1 H      0.925     0.048     2.341     2.393
 354   1 H      0.925     0.024     2.667     2.554
 355   1 H      0.925     0.030     2.591     2.517
 356   1 H      0.925     0.050     2.317     2.380
 357   1 H      0.925     0.036     2.496     2.471
 358   1 H      0.925     0.041     2.442     2.444
 359   7 N      2.688    -0.177    24.825     7.400
 360   6 C      3.793     0.032    20.040     6.375
 361   6 C      2.768     0.200    23.748     7.981
 362   8 O      0.856    -0.364    20.977     6.141
 363   6 C      3.759    -0.131    23.066     6.847
 364   1 H      0.860     0.240     0.924     1.505
 365   1 H      0.924     0.080     1.982     2.202
 366   1 H      0.925     0.078     1.995     2.209
 367   1 H      0.925     0.075     2.032     2.229
 368   1 H      0.925     0.089     1.889     2.149
 369   7 N      2.635    -0.392    30.150     8.155
 370   6 C      3.789     0.028    20.123     6.389
 371   6 C      2.756     0.275    22.342     7.740
 372   8 O      0.858    -0.501    23.801     6.541
 373   6 C      3.806    -0.064    21.714     6.634
 374   6 C      3.809    -0.096    22.319     6.725
 375   6 C      2.743     0.288    22.112     7.699
 376   8 O      0.859    -0.519    24.211     6.597
 377   7 N      2.638    -0.287    27.403     7.775
 378   1 H      0.860     0.167     1.288     1.778
 379   1 H      0.924     0.048     2.345     2.395
 380   1 H      0.925     0.056     2.245     2.343
 381   1 H      0.924     0.049     2.331     2.387
 382   1 H      0.924     0.038     2.476     2.461
 383   1 H      0.924     0.064     2.150     2.293
 384   1 H      0.860     0.251     0.881     1.470
 385   1 H      0.860     0.234     0.950     1.527
 386   7 N      2.692    -0.173    24.738     7.387
 387   6 C      3.800     0.020    20.233     6.404
 388   6 C      2.759     0.274    22.374     7.746
 389   8 O      0.859    -0.482    23.393     6.485
 390   6 C      3.853    -0.017    20.836     6.492
 391   6 C      3.802    -0.064    21.731     6.637
 392   6 C      3.755    -0.113    22.721     6.797
 393   6 C      3.751    -0.113    22.732     6.799
 394   1 H      0.860     0.208     1.064     1.616
 395   1 H      0.924     0.067     2.122     2.278
 396   1 H      0.924     0.044     2.397     2.421
 397   1 H      0.924     0.040     2.455     2.450
 398   1 H      0.924     0.056     2.245     2.343
 399   1 H      0.925     0.066     2.127     2.281
 400   1 H      0.925     0.024     2.667     2.554
 401   1 H      0.925     0.046     2.372     2.408
 402   1 H      0.925     0.046     2.370     2.408
 403   1 H      0.925     0.042     2.424     2.435
 404   1 H      0.925     0.037     2.494     2.470
 405   7 N      2.692    -0.174    24.764     7.391
 406   6 C      3.798     0.045    19.830     6.341
 407   6 C      2.767     0.281    22.252     7.725
 408   8 O      0.859    -0.481    23.358     6.480
 409   6 C      3.809    -0.110    22.593     6.766
 410   6 C      2.745     0.291    22.067     7.692
 411   8 O      0.859    -0.518    24.186     6.594
 412   7 N      2.639    -0.283    27.299     7.760
 413   1 H      0.860     0.206     1.077     1.626
 414   1 H      0.924     0.061     2.192     2.315
 415   1 H      0.924     0.087     1.911     2.162
 416   1 H      0.925     0.078     2.004     2.214
 417   1 H      0.860     0.243     0.913     1.497
 418   1 H      0.860     0.215     1.031     1.591
 419   7 N      2.689    -0.196    25.250     7.463
 420   6 C      3.798     0.031    20.052     6.376
 421   6 C      2.768     0.206    23.630     7.961
 422   8 O      0.856    -0.356    20.829     6.119
 423   6 C      3.680     0.091    19.271     6.287
 424   8 O      1.653    -0.460    22.044     6.338
 425   1 H      0.859     0.236     0.939     1.518
 426   1 H      0.923     0.082     1.959     2.189
 427   1 H      0.924     0.028     2.612     2.527
 428   1 H      0.924     0.052     2.295     2.369
 429   1 H      0.802     0.318     0.669     1.285
 430   7 N      2.636    -0.401    30.388     8.187
 431   6 C      3.782     0.044    19.855     6.347
 432   6 C      2.766     0.203    23.691     7.971
 433   8 O      0.856    -0.382    21.327     6.192
 434   6 C      3.811    -0.064    21.716     6.633
 435   6 C      3.849    -0.006    20.643     6.462
 436   6 C      3.757    -0.108    22.623     6.781
 437   6 C      3.756    -0.116    22.782     6.805
 438   1 H      0.860     0.170     1.275     1.769
 439   1 H      0.924     0.051     2.308     2.376
 440   1 H      0.924     0.042     2.427     2.436
 441   1 H      0.924     0.044     2.397     2.421
 442   1 H      0.924     0.027     2.623     2.533
 443   1 H      0.925     0.043     2.405     2.425
 444   1 H      0.925     0.017     2.777     2.606
 445   1 H      0.925     0.052     2.296     2.370
 446   1 H      0.925     0.046     2.371     2.408
 447   1 H      0.925     0.051     2.307     2.375
 448   1 H      0.925     0.035     2.511     2.478
 449   1 H      0.862     0.176     1.234     1.740
 450   1 H      0.930     0.089     1.891     2.150
 451   1 H      0.862     0.180     1.214     1.726
 452   1 H      0.930     0.081     1.971     2.195
 453   1 H      0.862     0.174     1.246     1.748
 454   1 H      0.930     0.073     2.053     2.241
 455   1 H      0.862     0.187     1.172     1.696
 456   1 H      0.930     0.083     1.946     2.181
 457   1 H      0.862     0.193     1.140     1.672
 458   1 H      0.930     0.067     2.113     2.273
 459   1 H      0.862     0.187     1.174     1.697
 460   1 H      0.930     0.085     1.927     2.171
 461   1 H      0.862     0.189     1.163     1.689
 462   1 H      0.930     0.071     2.075     2.253
 463   1 H      0.862     0.176     1.238     1.743
 464   1 H      0.930     0.067     2.124     2.279

 Mol. C6AA /au·bohr⁶  :    1908640.663354
 Mol. C8AA /au·bohr⁸  :   41769700.992332
 Mol. α(0) /au        :       2054.536627


Wiberg/Mayer (AO) data.
largest (>0.10) Wiberg bond orders for each atom
          total WBO             WBO to atom ...
     1  N   2.996        C    2 1.009    H  449 0.958    H    6 0.949
     2  C   3.986        N    1 1.009    C    5 0.978    C    3 0.977    H    7 0.961
     3  C   3.880        O    4 1.869    C    2 0.977    H  450 0.952
     4  O   2.060        C    3 1.869
     5  C   3.987        H   10 0.982    H    8 0.981    C    2 0.978    H    9 0.972
     6  H   0.967        N    1 0.949
     7  H   0.999        C    2 0.961
     8  H   0.997        C    5 0.981
     9  H   0.995        C    5 0.972
    10  H   0.996        C    5 0.982
    11  N   2.993        C   12 1.014    H  451 0.957    H   20 0.953
    12  C   3.985        N   11 1.014    C   15 0.975    H   21 0.961    C   13 0.943
    13  C   3.945        O   14 1.577    N   26 1.336    C   12 0.943
    14  O   1.928        C   13 1.577    N   26 0.191
    15  C   3.995        C   16 0.999    H   23 0.976    C   12 0.975    H   22 0.963
    16  C   3.992        C   15 0.999    H   24 0.980    H   25 0.976    C   17 0.914
    17  C   3.930        O   18 1.502    O   19 1.495    C   16 0.914
    18  O   1.790        C   17 1.502    O   19 0.216
    19  O   1.788        C   17 1.495    O   18 0.216
    20  H   0.975        N   11 0.953
    21  H   0.999        C   12 0.961
    22  H   0.997        C   15 0.963
    23  H   1.000        C   15 0.976
    24  H   1.000        C   16 0.980
    25  H   0.999        C   16 0.976
    26  N   3.482        C   13 1.336    C   27 0.974    H   34 0.876    O   14 0.191
    27  C   3.962        N   26 0.974    C   28 0.971    C   30 0.954    H   35 0.946
    28  C   3.901        O   29 1.887    C   27 0.971    H  452 0.953
    29  O   2.074        C   28 1.887
    30  C   3.983        C   32 1.008    C   31 0.994    H   36 0.961    C   27 0.954
    31  C   3.995        C   33 1.018    C   30 0.994    H   37 0.972    H   38 0.970
    32  C   3.991        C   30 1.008    H   41 0.981    H   39 0.979    H   40 0.978
    33  C   3.993        C   31 1.018    H   43 0.986    H   42 0.984    H   44 0.982
    34  H   0.941        N   26 0.876
    35  H   0.996        C   27 0.946
    36  H   0.995        C   30 0.961
    37  H   0.999        C   31 0.972
    38  H   0.998        C   31 0.970
    39  H   0.996        C   32 0.979
    40  H   0.997        C   32 0.978
    41  H   0.997        C   32 0.981
    42  H   0.998        C   33 0.984
    43  H   0.997        C   33 0.986
    44  H   0.998        C   33 0.982
    45  N   2.994        C   46 1.017    H  453 0.957    H   53 0.935
    46  C   3.983        N   45 1.017    C   49 0.965    H   54 0.961    C   47 0.927
    47  C   3.951        O   48 1.620    N   59 1.326    C   46 0.927
    48  O   1.935        C   47 1.620    N   59 0.200
    49  C   3.991        C   50 0.970    C   46 0.965    H   55 0.961    H   56 0.959
    50  C   3.940        O   51 1.623    N   52 1.308    C   49 0.970
    51  O   1.949        C   50 1.623    N   52 0.190
    52  N   3.398        C   50 1.308    H   57 0.937    H   58 0.912    O   51 0.190
    53  H   0.972        N   45 0.935
    54  H   0.998        C   46 0.961
    55  H   0.994        C   49 0.961
    56  H   0.995        C   49 0.959
    57  H   0.960        N   52 0.937
    58  H   0.955        N   52 0.912
    59  N   3.485        C   47 1.326    C   60 0.984    H   67 0.889    O   48 0.200
    60  C   3.966        N   59 0.984    C   61 0.977    C   63 0.963    H   68 0.936
    61  C   3.899        O   62 1.892    C   60 0.977    H  454 0.954
    62  O   2.033        C   61 1.892
    63  C   3.983        C   64 0.989    H   69 0.971    H   70 0.971    C   60 0.963
    64  C   3.993        C   66 1.011    C   65 1.006    C   63 0.989    H   71 0.962
    65  C   3.993        C   64 1.006    H   74 0.986    H   73 0.985    H   72 0.983
    66  C   3.995        C   64 1.011    H   76 0.985    H   75 0.983    H   77 0.981
    67  H   0.944        N   59 0.889
    68  H   0.991        C   60 0.936
    69  H   0.996        C   63 0.971
    70  H   0.995        C   63 0.971
    71  H   0.998        C   64 0.962
    72  H   0.996        C   65 0.983
    73  H   0.998        C   65 0.985
    74  H   0.998        C   65 0.986
    75  H   0.998        C   66 0.983
    76  H   0.998        C   66 0.985
    77  H   0.998        C   66 0.981
    78  N   2.995        C   79 1.016    H  455 0.954    H   85 0.944
    79  C   3.985        N   78 1.016    H   86 0.959    C   82 0.947    C   80 0.942
    80  C   3.942        O   81 1.611    N   92 1.303    C   79 0.942
    81  O   1.977        C   80 1.611    N   92 0.195
    82  C   3.957        C   84 1.007    O   83 0.993    H   87 0.960    C   79 0.947
    83  O   1.944        C   82 0.993    H   88 0.865
    84  C   3.992        C   82 1.007    H   91 0.984    H   89 0.984    H   90 0.982
    85  H   0.970        N   78 0.944
    86  H   0.998        C   79 0.959
    87  H   0.999        C   82 0.960
    88  H   0.889        O   83 0.865
    89  H   0.996        C   84 0.984
    90  H   0.998        C   84 0.982
    91  H   0.997        C   84 0.984
    92  N   3.463        C   80 1.303    C   93 0.978    H  101 0.910    O   81 0.195
    93  C   3.963        C   96 0.981    N   92 0.978    H  102 0.950    C   94 0.931
    94  C   3.943        O   95 1.618    N  109 1.305    C   93 0.931
    95  O   1.977        C   94 1.618    N  109 0.192
    96  C   3.983        C   97 0.993    C   93 0.981    H  104 0.970    H  103 0.966
    97  C   3.990        C   96 0.993    H  105 0.972    C   98 0.967    H  106 0.960
    98  C   3.948        O   99 1.629    N  100 1.323    C   97 0.967
    99  O   1.953        C   98 1.629    N  100 0.201
   100  N   3.407        C   98 1.323    H  107 0.927    H  108 0.922    O   99 0.201
   101  H   0.944        N   92 0.910
   102  H   0.993        C   93 0.950
   103  H   0.991        C   96 0.966
   104  H   0.994        C   96 0.970
   105  H   0.996        C   97 0.972
   106  H   0.994        C   97 0.960
[...]
   127  H   0.992        C  115 0.950
   128  H   0.943        N  116 0.908
   129  H   0.945        N  118 0.907
   130  H   0.941        N  118 0.920
   131  H   0.937        N  119 0.911
   132  H   0.932        N  119 0.894
   133  N   3.475        C  111 1.307    C  134 0.980    H  141 0.913    O  112 0.193
   134  C   3.965        C  137 0.980    N  133 0.980    H  142 0.947    C  135 0.933
   135  C   3.940        O  136 1.608    N  152 1.314    C  134 0.933
   136  O   1.960        C  135 1.608    N  152 0.193
   137  C   3.983        C  138 0.991    C  134 0.980    H  144 0.969    H  143 0.967
   138  C   3.994        C  140 1.010    C  139 1.007    C  137 0.991    H  145 0.965
   139  C   3.993        C  138 1.007    H  148 0.987    H  146 0.984    H  147 0.983
   140  C   3.994        C  138 1.010    H  150 0.986    H  151 0.984    H  149 0.983
   141  H   0.954        N  133 0.913
   142  H   0.995        C  134 0.947
   143  H   0.997        C  137 0.967
   144  H   0.997        C  137 0.969
   145  H   0.998        C  138 0.965
   146  H   0.996        C  139 0.984
   147  H   0.998        C  139 0.983
   148  H   0.999        C  139 0.987
   149  H   0.996        C  140 0.983
   150  H   0.999        C  140 0.986
   151  H   0.998        C  140 0.984
   152  N   3.463        C  135 1.314    C  153 0.984    H  160 0.878    O  136 0.193
   153  C   3.972        C  156 0.985    N  152 0.984    H  161 0.953    C  154 0.937
   154  C   3.946        O  155 1.587    N  166 1.332    C  153 0.937
   155  O   1.939        C  154 1.587    N  166 0.194
   156  C   3.987        C  153 0.985    C  157 0.960    H  163 0.960    H  162 0.947
   157  C   3.950        O  158 1.666    N  159 1.297    C  156 0.960
   158  O   1.973        C  157 1.666    N  159 0.202
   159  N   3.378        C  157 1.297    H  165 0.925    H  164 0.923    O  158 0.202
   160  H   0.940        N  152 0.878
   161  H   0.997        C  153 0.953
   162  H   0.990        C  156 0.947
   163  H   0.993        C  156 0.960
   164  H   0.943        N  159 0.923
   165  H   0.943        N  159 0.925
   166  N   3.480        C  154 1.332    C  167 0.975    H  175 0.885    O  155 0.194
   167  C   3.960        C  170 0.980    N  166 0.975    H  176 0.942    C  168 0.941
   168  C   3.941        O  169 1.586    N  181 1.325    C  167 0.941
   169  O   1.945        C  168 1.586    N  181 0.191
   170  C   3.989        C  171 1.010    C  167 0.980    H  177 0.971    H  178 0.970
   171  C   3.987        C  170 1.010    H  180 0.968    H  179 0.964    C  172 0.930
   172  C   3.937        O  173 1.489    O  174 1.488    C  171 0.930
   173  O   1.882        C  172 1.489    O  174 0.210
   174  O   1.872        C  172 1.488    O  173 0.210
   175  H   0.945        N  166 0.885
   176  H   0.992        C  167 0.942
   177  H   0.995        C  170 0.971
   178  H   0.997        C  170 0.970
   179  H   0.998        C  171 0.964
   180  H   1.000        C  171 0.968
   181  N   3.475        C  168 1.325    C  182 0.977    H  189 0.888    O  169 0.191
   182  C   3.963        N  181 0.977    C  185 0.964    H  190 0.951    C  183 0.940
   183  C   3.942        O  184 1.585    N  200 1.318    C  182 0.940
   184  O   1.942        C  183 1.585    N  200 0.186
   185  C   3.984        C  187 1.007    C  186 0.993    C  182 0.964    H  191 0.958
   186  C   3.993        C  188 1.018    C  185 0.993    H  192 0.971    H  193 0.969
   187  C   3.993        C  185 1.007    H  195 0.982    H  196 0.982    H  194 0.979
   188  C   3.992        C  186 1.018    H  198 0.984    H  197 0.982    H  199 0.982
   189  H   0.948        N  181 0.888
   190  H   0.997        C  182 0.951
   191  H   0.997        C  185 0.958
   192  H   0.998        C  186 0.971
   193  H   0.998        C  186 0.969
   194  H   0.996        C  187 0.979
   195  H   1.000        C  187 0.982
   196  H   0.997        C  187 0.982
   197  H   0.996        C  188 0.982
   198  H   0.999        C  188 0.984
   199  H   0.997        C  188 0.982
   200  N   3.475        C  183 1.318    C  201 0.976    H  208 0.904    O  184 0.186
   201  C   3.966        C  204 0.982    N  200 0.976    H  209 0.947    C  202 0.942
   202  C   3.953        O  203 1.580    N  212 1.342    C  201 0.942
   203  O   1.924        C  202 1.580    N  212 0.196
   204  C   3.985        C  201 0.982    H  210 0.971    H  211 0.964    C  205 0.916
   205  C   3.935        O  207 1.509    O  206 1.472    C  204 0.916
   206  O   1.877        C  205 1.472    O  207 0.212
   207  O   1.869        C  205 1.509    O  206 0.212
   208  H   0.956        N  200 0.904
   209  H   0.997        C  201 0.947
   210  H   0.997        C  204 0.971
   211  H   0.997        C  204 0.964
   212  N   3.489        C  202 1.342    C  213 0.968    H  223 0.889    O  203 0.196
   213  C   3.954        C  216 0.983    N  212 0.968    H  224 0.951    C  214 0.932
   214  C   3.950        O  215 1.617    N  236 1.318    C  213 0.932
   215  O   1.952        C  214 1.617    N  236 0.197
   216  C   3.985        C  217 1.005    C  213 0.983    H  226 0.970    H  225 0.969
   217  C   3.990        C  216 1.005    C  218 0.994    H  228 0.971    H  227 0.969
   218  C   3.958        C  217 0.994    N  219 0.992    H  230 0.969    H  229 0.962
   219  N   3.472        C  220 1.333    C  218 0.992    H  231 0.851    N  222 0.103
   220  C   3.975        N  219 1.333    N  222 1.310    N  221 1.296
   221  N   3.359        C  220 1.296    H  233 0.925    H  232 0.887
   222  N   3.366        C  220 1.310    H  235 0.927    H  234 0.851    N  219 0.103
   223  H   0.951        N  212 0.889
   224  H   0.994        C  213 0.951
   225  H   0.996        C  216 0.969
   226  H   0.997        C  216 0.970
   227  H   0.996        C  217 0.969
   228  H   0.994        C  217 0.971
   229  H   0.991        C  218 0.962
   230  H   0.993        C  218 0.969
   231  H   0.946        N  219 0.851
   232  H   0.935        N  221 0.887
   233  H   0.945        N  221 0.925
   234  H   0.942        N  222 0.851
   235  H   0.948        N  222 0.927
   236  N   3.476        C  214 1.318    C  237 0.976    H  243 0.895    O  215 0.197
   237  C   3.962        N  236 0.976    C  240 0.966    H  244 0.951    C  238 0.940
   238  C   3.945        O  239 1.567    N  252 1.342    C  237 0.940
   239  O   1.948        C  238 1.567    N  252 0.189
   240  C   3.988        C  242 1.008    C  241 1.006    C  237 0.966    H  245 0.960
   241  C   3.991        C  240 1.006    H  246 0.982    H  247 0.981    H  248 0.980
   242  C   3.993        C  240 1.008    H  250 0.984    H  249 0.984    H  251 0.981
   243  H   0.953        N  236 0.895
   244  H   0.994        C  237 0.951
   245  H   0.998        C  240 0.960
   246  H   0.997        C  241 0.982
   247  H   0.999        C  241 0.981
   248  H   0.995        C  241 0.980
   249  H   0.998        C  242 0.984
   250  H   0.997        C  242 0.984
   251  H   0.999        C  242 0.981
   252  N   3.493        C  238 1.342    C  253 0.979    H  258 0.885    O  239 0.189
   253  C   3.963        N  252 0.979    C  256 0.963    H  259 0.948    C  254 0.936
   254  C   3.955        O  255 1.650    N  263 1.294    C  253 0.936
   255  O   1.966        C  254 1.650    N  263 0.196
   256  C   3.958        O  257 1.014    H  260 0.965    C  253 0.963    H  261 0.960
   257  O   1.956        C  256 1.014    H  262 0.855
   258  H   0.952        N  252 0.885
   259  H   0.995        C  253 0.948
   260  H   0.999        C  256 0.965
   261  H   0.997        C  256 0.960
   262  H   0.893        O  257 0.855
   263  N   3.468        C  254 1.294    C  264 0.992    H  267 0.916    O  255 0.196
   264  C   3.955        N  263 0.992    H  268 0.954    H  269 0.951    C  265 0.949
   265  C   3.959        O  266 1.633    N  270 1.305    C  264 0.949
   266  O   1.959        C  265 1.633    N  270 0.198
   267  H   0.959        N  263 0.916
   268  H   0.991        C  264 0.954
   269  H   0.991        C  264 0.951
   270  N   3.482        C  265 1.305    C  271 0.982    H  279 0.912    O  266 0.198
   271  C   3.956        N  270 0.982    C  274 0.973    H  280 0.942    C  272 0.937
   272  C   3.952        O  273 1.635    N  287 1.302    C  271 0.937
   273  O   1.953        C  272 1.635    N  287 0.198
   274  C   3.988        C  275 1.006    C  271 0.973    H  281 0.972    H  282 0.970
   275  C   3.993        C  274 1.006    C  276 0.976    H  283 0.960    H  284 0.946
   276  C   3.945        O  277 1.627    N  278 1.306    C  275 0.976
   277  O   1.960        C  276 1.627    N  278 0.194
   278  N   3.391        C  276 1.306    H  285 0.930    H  286 0.926    O  277 0.194
   279  H   0.959        N  270 0.912
   280  H   0.988        C  271 0.942
   281  H   0.997        C  274 0.972
   282  H   0.993        C  274 0.970
   283  H   0.993        C  275 0.960
   284  H   0.994        C  275 0.946
   285  H   0.948        N  278 0.930
   286  H   0.947        N  278 0.926
   287  N   3.476        C  272 1.302    C  288 0.981    H  294 0.909    O  273 0.198
   288  C   3.965        N  287 0.981    H  295 0.953    C  291 0.951    C  289 0.936
   289  C   3.955        O  290 1.642    N  301 1.295    C  288 0.936
   290  O   1.968        C  289 1.642    N  301 0.200
   291  C   3.957        C  293 1.004    O  292 0.999    H  296 0.961    C  288 0.951
   292  O   1.951        C  291 0.999    H  297 0.845
   293  C   3.988        C  291 1.004    H  300 0.983    H  299 0.983    H  298 0.978
   294  H   0.958        N  287 0.909
   295  H   0.995        C  288 0.953
   296  H   1.000        C  291 0.961
   297  H   0.901        O  292 0.845
   298  H   0.995        C  293 0.978
   299  H   0.997        C  293 0.983
   300  H   0.995        C  293 0.983
   301  N   3.479        C  289 1.295    C  302 0.986    H  310 0.923    O  290 0.200
   302  C   3.963        C  303 0.987    N  301 0.986    C  305 0.943    H  311 0.940
   303  C   3.898        O  304 1.892    C  302 0.987    H  456 0.953
   304  O   2.043        C  303 1.892
   305  C   3.981        C  306 1.009    H  312 0.968    H  313 0.955    C  302 0.943
   306  C   3.992        C  305 1.009    C  307 0.973    H  315 0.966    H  314 0.941
   307  C   3.938        O  308 1.628    N  309 1.308    C  306 0.973
   308  O   1.931        C  307 1.628    N  309 0.193
   309  N   3.396        C  307 1.308    H  317 0.929    H  316 0.929    O  308 0.193
   310  H   0.957        N  301 0.923
   311  H   0.990        C  302 0.940
   312  H   0.992        C  305 0.968
   313  H   0.992        C  305 0.955
   314  H   0.989        C  306 0.941
   315  H   0.994        C  306 0.966
   316  H   0.948        N  309 0.929
   317  H   0.951        N  309 0.929
   318  N   3.004        C  319 1.000    H  327 0.952    H  457 0.950
   319  C   3.980        N  318 1.000    C  322 0.986    C  320 0.964    H  328 0.947
   320  C   3.878        O  321 1.880    C  319 0.964    H  458 0.954
   321  O   2.049        C  320 1.880
   322  C   3.993        C  323 1.005    C  319 0.986    H  330 0.973    H  329 0.970
   323  C   3.993        C  324 1.007    C  322 1.005    H  332 0.973    H  331 0.968
   324  C   3.986        C  325 1.012    C  323 1.007    H  334 0.958    H  333 0.958
   325  C   3.916        C  324 1.012    H  336 0.966    H  335 0.963    N  326 0.953
   326  N   3.667        C  325 0.953    H  338 0.898    H  339 0.897    H  337 0.894
   327  H   0.970        N  318 0.952
   328  H   0.994        C  319 0.947
   329  H   0.997        C  322 0.970
   330  H   0.999        C  322 0.973
   331  H   0.996        C  323 0.968
   332  H   0.995        C  323 0.973
   333  H   0.994        C  324 0.958
   334  H   0.996        C  324 0.958
   335  H   0.985        C  325 0.963
   336  H   0.987        C  325 0.966
   337  H   0.906        N  326 0.894
   338  H   0.916        N  326 0.898
   339  H   0.912        N  326 0.897
   340  N   3.005        C  341 1.024    H  348 0.957    H  459 0.949
   341  C   3.986        N  340 1.024    C  344 0.973    C  342 0.948    H  349 0.940
   342  C   3.943        O  343 1.594    N  359 1.318    C  341 0.948
   343  O   1.931        C  342 1.594    N  359 0.188
   344  C   3.992        C  345 0.995    C  341 0.973    H  351 0.971    H  350 0.969
   345  C   3.995        C  347 1.011    C  346 1.007    C  344 0.995    H  352 0.965
   346  C   3.995        C  345 1.007    H  354 0.985    H  355 0.984    H  353 0.982
   347  C   3.995        C  345 1.011    H  356 0.985    H  358 0.981    H  357 0.981
   348  H   0.978        N  340 0.957
   349  H   0.997        C  341 0.940
   350  H   0.999        C  344 0.969
   351  H   0.999        C  344 0.971
   352  H   0.998        C  345 0.965
   353  H   0.997        C  346 0.982
   354  H   0.999        C  346 0.985
   355  H   0.999        C  346 0.984
   356  H   0.997        C  347 0.985
   357  H   0.999        C  347 0.981
   358  H   0.998        C  347 0.981
   359  N   3.474        C  342 1.318    C  360 0.987    H  364 0.879    O  343 0.188
   360  C   3.968        N  359 0.987    C  361 0.982    C  363 0.966    H  365 0.943
   361  C   3.894        O  362 1.875    C  360 0.982    H  460 0.951
   362  O   2.056        C  361 1.875
   363  C   3.976        H  366 0.980    H  368 0.975    H  367 0.975    C  360 0.966
   364  H   0.942        N  359 0.879
   365  H   0.993        C  360 0.943
   366  H   0.993        C  363 0.980
   367  H   0.994        C  363 0.975
   368  H   0.992        C  363 0.975
   369  N   2.996        C  370 1.012    H  378 0.955    H  461 0.954
   370  C   3.985        N  369 1.012    C  373 0.981    H  379 0.954    C  371 0.931
   371  C   3.939        O  372 1.631    N  386 1.301    C  370 0.931
   372  O   1.943        C  371 1.631    N  386 0.195
   373  C   3.993        C  374 0.992    C  370 0.981    H  381 0.975    H  380 0.972
   374  C   3.995        C  373 0.992    H  382 0.973    C  375 0.970    H  383 0.957
   375  C   3.944        O  376 1.605    N  377 1.337    C  374 0.970
   376  O   1.940        C  375 1.605    N  377 0.194
   377  N   3.400        C  375 1.337    H  385 0.924    H  384 0.892    O  376 0.194
   378  H   0.972        N  369 0.955
   379  H   0.998        C  370 0.954
   380  H   0.996        C  373 0.972
   381  H   0.997        C  373 0.975
   382  H   0.999        C  374 0.973
   383  H   0.996        C  374 0.957
   384  H   0.937        N  377 0.892
   385  H   0.945        N  377 0.924
   386  N   3.476        C  371 1.301    C  387 0.976    H  394 0.912    O  372 0.195
   387  C   3.962        N  386 0.976    C  390 0.959    H  395 0.954    C  388 0.935
   388  C   3.941        O  389 1.617    N  405 1.303    C  387 0.935
   389  O   1.958        C  388 1.617    N  405 0.193
   390  C   3.987        C  392 1.007    C  391 0.994    H  396 0.960    C  387 0.959
   391  C   3.994        C  393 1.020    C  390 0.994    H  397 0.977    H  398 0.974
   392  C   3.994        C  390 1.007    H  400 0.983    H  399 0.982    H  401 0.979
   393  C   3.995        C  391 1.020    H  402 0.986    H  403 0.984    H  404 0.983
   394  H   0.957        N  386 0.912
   395  H   0.995        C  387 0.954
   396  H   0.998        C  390 0.960
   397  H   0.998        C  391 0.977
   398  H   0.996        C  391 0.974
   399  H   0.995        C  392 0.982
   400  H   0.999        C  392 0.983
   401  H   0.998        C  392 0.979
   402  H   0.998        C  393 0.986
   403  H   0.998        C  393 0.984
   404  H   0.999        C  393 0.983
   405  N   3.477        C  388 1.303    C  406 0.990    H  413 0.913    O  389 0.193
   406  C   3.971        N  405 0.990    C  409 0.962    C  407 0.946    H  414 0.942
   407  C   3.952        O  408 1.597    N  419 1.329    C  406 0.946
   408  O   1.979        C  407 1.597    N  419 0.195
   409  C   3.987        C  410 0.973    C  406 0.962    H  416 0.961    H  415 0.941
   410  C   3.949        O  411 1.619    N  412 1.332    C  409 0.973
   411  O   1.927        C  410 1.619    N  412 0.202
   412  N   3.412        C  410 1.332    H  418 0.932    H  417 0.887    O  411 0.202
   413  H   0.958        N  405 0.913
   414  H   0.996        C  406 0.942
   415  H   0.992        C  409 0.941
   416  H   0.994        C  409 0.961
   417  H   0.941        N  412 0.887
   418  H   0.954        N  412 0.932
   419  N   3.470        C  407 1.329    C  420 0.988    H  425 0.842    O  408 0.195
   420  C   3.970        N  419 0.988    C  421 0.978    C  423 0.946    H  426 0.943
   421  C   3.910        O  422 1.886    C  420 0.978    H  462 0.955
   422  O   2.037        C  421 1.886
   423  C   3.965        O  424 1.021    H  427 0.973    H  428 0.966    C  420 0.946
   424  O   1.958        C  423 1.021    H  429 0.831
   425  H   0.944        N  419 0.842
   426  H   0.993        C  420 0.943
   427  H   0.999        C  423 0.973
   428  H   0.997        C  423 0.966
   429  H   0.899        O  424 0.831
   430  N   2.997        C  431 1.015    H  463 0.957    H  438 0.937
   431  C   3.985        N  430 1.015    C  432 0.976    C  434 0.960    H  439 0.953
   432  C   3.890        O  433 1.886    C  431 0.976    H  464 0.955
   433  O   2.024        C  432 1.886
   434  C   3.991        C  435 0.990    H  441 0.974    H  440 0.972    C  431 0.960
   435  C   3.994        C  437 1.011    C  436 1.006    C  434 0.990    H  442 0.963
   436  C   3.994        C  435 1.006    H  444 0.986    H  443 0.985    H  445 0.984
   437  C   3.995        C  435 1.011    H  447 0.985    H  448 0.982    H  446 0.981
   438  H   0.971        N  430 0.937
   439  H   0.997        C  431 0.953
   440  H   0.998        C  434 0.972
   441  H   0.998        C  434 0.974
   442  H   0.999        C  435 0.963
   443  H   0.997        C  436 0.985
   444  H   1.000        C  436 0.986
   445  H   0.997        C  436 0.984
   446  H   0.997        C  437 0.981
   447  H   0.997        C  437 0.985
   448  H   0.999        C  437 0.982
   449  H   0.969        N    1 0.958
   450  H   0.992        C    3 0.952
   451  H   0.968        N   11 0.957
   452  H   0.993        C   28 0.953
   453  H   0.970        N   45 0.957
   454  H   0.995        C   61 0.954
   455  H   0.965        N   78 0.954
   456  H   0.992        C  303 0.953
   457  H   0.963        N  318 0.950
   458  H   0.995        C  320 0.954
   459  H   0.965        N  340 0.949
   460  H   0.993        C  361 0.951
   461  H   0.964        N  369 0.954
   462  H   0.995        C  421 0.955
   463  H   0.969        N  430 0.957
   464  H   0.996        C  432 0.955
 
molecular dipole:
                 x           y           z       tot (Debye)
 q only:       14.730      11.215      21.533
   full:       16.251      12.627      20.817      74.406
molecular quadrupole (traceless):
                xx          xy          yy          xz          yz          zz
 q only:     2241.169    8237.920   -6634.379   13962.258    7139.811    4393.210
  q+dip:     3160.183    9117.744   -6554.053   14099.232    7445.007    3393.870
   full:     3161.097    9116.836   -6551.144   14102.800    7443.968    3390.046


           -------------------------------------------------
          | TOTAL ENERGY             -715.608674123118 Eh   |
          | GRADIENT NORM               0.627194937127 Eh/α |
          | HOMO-LUMO GAP               1.576831612886 eV   |
           -------------------------------------------------

------------------------------------------------------------------------
 * finished run on 2019/05/31 at 05:35:10.772     
------------------------------------------------------------------------
 total:
 * wall-time:     0 d,  0 h,  0 min,  8.965 sec
 *  cpu-time:     0 d,  0 h,  0 min, 16.727 sec
 * ratio c/w:     1.866 speedup
 SCF:
 * wall-time:     0 d,  0 h,  0 min,  8.188 sec
 *  cpu-time:     0 d,  0 h,  0 min, 15.726 sec
 * ratio c/w:     1.921 speedup

