      -----------------------------------------------------------      
     |                   =====================                   |     
     |                           x T B                           |     
     |                   =====================                   |     
     |                         S. Grimme                         |     
     |          Mulliken Center for Theoretical Chemistry        |     
     |                    University of Bonn                     |     
     |                 Version 6.0.1 (SAW181210)                 |     
      -----------------------------------------------------------      

   This program is distributed in the hope that it will be useful,
   but WITHOUT ANY WARRANTY; without even the implied warranty of
   MERCHANTABILITY or FITNESS FOR A PARTICULAR PURPOSE.
   
   FOR NON-COMMERCIAL, ACADEMIA USE ONLY.
   
   Cite this work as:
   S. Grimme, C. Bannwarth, P. Shushkov, J. Comput. Theory Chem., 2017,
   13, 1989-2009.
   C. Bannwarth, S. Ehlert and S. Grimme., ChemRxiv, 2018, preprint.
   http://doi.org/10.26434/chemrxiv.7246238.v1
   
   for sTDA-xTB:
   S. Grimme and C. Bannwarth, J. Chem. Phys., 2016, 145, 054103.
   
   in the mass-spec context:
   V. Asgeirsson, C. Bauer and S. Grimme, Chem. Sci., 2017, 8, 4879.
   
   if GBSA is used:
   P. Shushkov, F. März and S. Grimme, unpublished.
   
   for ANC optimizer:
   S. Grimme, unpublished.
   Rational Function algorithm used in ANCopt:
   F. Eckert, P. Pulay, H.-J. Werner, J. Comput. Chem., 1997, 18, 1473.
   
   with help from (in alphabetical order)
   C. Bannwarth, F. Bohle, G. Brandenburg, E. Caldeweyher, M. Checinski,
   S. Dohm, S. Ehlert, S. Ehrlich, F. März, H. Neugebauer, J. Pisarek,
   P. Pracht, P. Shushkov, and S. Spicher.
   
 * started run on 2019/03/14 at 15:07:35.922     
========================================================================
 # omp threads = 1
========================================================================
number of atoms            : 429
number of electrons        : 1090
charge                     : 0
spin                       : .0
first test random number   : .7518
           ------------------------------------------------- 
          |                 G F N 2 - x T B                 |
          | Geometry, Frequencies, Noncovalent interactions |
          |            JCTC 2018 parametrisation            |
           ------------------------------------------------- 
 
      method parameters     
 k(s)        :  1.8500
 k(p)        :  2.2300
 k(d)        :  2.2300
 k(f)        :  2.0000
 kEN (H0ij)  : -2.0000
 D4 a1       :  0.5200
 D4 a2       :  5.0000
 D4 s6       :  1.0000
 D4 s8       :  2.7000
 D4 s9       :  5.0000
 alphaj      :  2.0000

 Solvent             : h2o
 Using internal parameter file: .param_gbsa2_h2o
 Gsolv ref. state (COSMO-RS): gsolv [1 M gas/solution]
 temperature (mdtemp)       :    298.150000000000     
 dielectric constant        :    80.2000000000000     
 rho                        :    1.00000000000000     
 mass                       :    18.0000000000000     
 surface tension            :    15.5689454083859     
 probe radius               :   0.975313790000000     
 vdW radii scaling          :    1.00000000000000     
 Gshift (Eh)                :   1.857443126794793E-003
 c1                         :    1.55243817000000     
 soset                      :   0.130326360000000     
 HB correction              :  T

            Z     q(EN)     CN     RAES       Cart. coordinates
     1  N   5.0   -0.22    3.20    1.96    68.10842    49.91275    61.14428
     2  C   4.0    0.03    4.22    4.04    67.85543    52.00047    59.39712
     3  C   4.0    0.07    3.23    3.04    70.29877    52.34325    57.89913
     4  O   6.0   -0.31    1.14    1.80    70.26369    53.00776    55.68317
     5  C   4.0   -0.05    4.37    4.32    67.29528    54.50773    60.71789
     6  C   4.0   -0.03    4.18    3.97    65.09932    54.48172    62.60197
     7  C   4.0   -0.08    4.11    3.82    65.03248    57.05519    63.90805
     8  C   4.0   -0.08    4.11    3.82    62.60384    53.91481    61.29183
     9  H   1.0    0.08    1.02    1.43    68.07432    50.26996    63.02666
    10  H   1.0    0.04    1.05    1.44    66.37606    51.55031    58.01389
    11  H   1.0    0.04    1.03    1.43    69.00939    55.10281    61.70019
    12  H   1.0    0.04    1.03    1.43    66.87480    55.87992    59.23454
    13  H   1.0    0.04    1.06    1.44    65.44408    53.03784    64.03103
    14  H   1.0    0.04    1.00    1.43    63.38512    57.21503    65.12088
    15  H   1.0    0.04    1.00    1.43    66.71907    57.29806    65.05760
    16  H   1.0    0.04    1.00    1.43    64.98082    58.56628    62.51714
    17  H   1.0    0.04    1.00    1.43    61.05343    53.93204    62.63902
    18  H   1.0    0.03    1.00    1.43    62.24427    55.33178    59.85357
    19  H   1.0    0.04    1.00    1.43    62.65313    52.06713    60.39797
    20  N   5.0   -0.20    3.20    1.96    70.74134    47.89379    53.50071
    21  C   4.0    0.04    4.24    4.08    69.36753    48.91854    51.37404
    22  C   4.0    0.09    3.22    3.04    71.01545    50.80858    49.93847
    23  O   6.0   -0.33    1.24    1.80    70.84571    50.97539    47.63423
    24  C   4.0   -0.03    4.33    4.26    66.89534    50.21606    52.17231
    25  C   4.0   -0.02    3.58    3.15    64.90579    49.81003    50.19500
    26  C   4.0   -0.04    3.48    3.11    64.75096    51.36039    48.08981
    27  C   4.0   -0.05    3.47    3.10    63.24129    47.79623    50.44117
    28  C   4.0   -0.05    3.40    3.08    62.86518    50.98003    46.31711
    29  C   4.0   -0.04    3.37    3.07    61.36670    47.40669    48.66488
    30  C   4.0   -0.04    3.38    3.07    61.14902    49.03249    46.62720
    31  H   1.0    0.09    1.03    1.43    70.02131    48.17493    55.25855
    32  H   1.0    0.05    1.06    1.44    68.95435    47.37956    50.03668
    33  H   1.0    0.04    1.03    1.43    66.25957    49.38906    53.95092
    34  H   1.0    0.06    1.04    1.43    67.25737    52.22516    52.45501
    35  H   1.0    0.05    1.03    1.43    66.10727    52.86779    47.84306
    36  H   1.0    0.05    1.03    1.43    63.42437    46.54032    52.04217
    37  H   1.0    0.05    1.03    1.43    62.70893    52.23436    44.71393
    38  H   1.0    0.05    1.03    1.43    60.07125    45.84588    48.86854
    39  H   1.0    0.05    1.03    1.43    59.64151    48.78487    45.27870
    40  N   5.0   -0.21    3.24    1.97    72.85199    48.65458    43.57627
    41  C   4.0    0.04    4.27    4.13    72.54278    50.46414    41.56543
    42  C   4.0    0.08    3.21    3.04    75.09166    51.42441    40.64303
    43  O   6.0   -0.28    1.12    1.80    75.38675    51.75649    38.35672
    44  C   4.0   -0.04    4.33    4.26    70.81942    52.62801    42.34048
    45  C   4.0   -0.02    4.17    3.94    67.97190    51.99511    42.25644
    46  C   4.0   -0.07    4.13    3.86    66.76205    53.17688    39.92737
    47  C   4.0   -0.07    4.13    3.86    67.24404    49.20303    42.32575
    48  H   1.0    0.12    1.10    1.44    72.21802    49.19684    45.30871
    49  H   1.0    0.05    1.06    1.44    71.70340    49.55160    39.90055
    50  H   1.0    0.06    1.04    1.43    71.37122    53.21981    44.22817
    51  H   1.0    0.04    1.04    1.43    71.17651    54.18327    41.03703
    52  H   1.0    0.04    1.06    1.44    67.11565    52.88673    43.90421
    53  H   1.0    0.05    1.00    1.43    64.72208    53.06028    40.10270
    54  H   1.0    0.04    1.01    1.43    67.31657    55.13984    39.76880
    55  H   1.0    0.06    1.00    1.43    67.30949    52.23477    38.18107
    56  H   1.0    0.05    1.01    1.43    65.19901    49.07668    42.46847
    57  H   1.0    0.05    1.00    1.43    67.76403    48.27049    40.57038
    58  H   1.0    0.05    1.00    1.43    68.05830    48.19037    43.91241
    59  N   5.0   -0.21    3.21    1.96    52.78323    79.96471    49.60136
    60  C   4.0    0.03    4.30    4.21    52.15800    77.69659    48.19380
    61  C   4.0    0.07    3.23    3.04    50.14102    78.34582    46.25498
    62  O   6.0   -0.33    1.26    1.80    50.38409    77.70190    44.03833
    63  C   4.0   -0.03    4.24    4.08    51.42582    75.38725    49.81055
    64  C   4.0   -0.08    4.15    3.90    53.69045    74.59829    51.40436
    65  C   4.0   -0.08    4.10    3.81    49.11649    75.84042    51.47074
    66  H   1.0    0.08    1.02    1.43    52.06448    80.21767    51.35848
    67  H   1.0    0.04    1.07    1.44    53.81192    77.17382    47.06271
    68  H   1.0    0.04    1.06    1.44    51.02085    73.87095    48.46675
    69  H   1.0    0.04    1.01    1.43    53.20415    73.07482    52.68906
    70  H   1.0    0.04    1.02    1.43    55.18609    73.90016    50.19225
    71  H   1.0    0.04    1.00    1.43    54.37005    76.18983    52.49871
    72  H   1.0    0.04    1.00    1.43    48.75985    74.19208    52.64309
    73  H   1.0    0.04    1.00    1.43    49.46812    77.43774    52.70320
    74  H   1.0    0.04    1.00    1.43    47.43437    76.19662    50.34965
    75  N   5.0   -0.19    3.24    1.97    54.09828    80.49764    41.79796
    76  C   4.0    0.03    4.40    4.38    55.48436    78.37639    40.75009
    77  C   4.0    0.15    3.44    3.09    53.91333    76.62612    39.06699
    78  O   6.0   -0.31    1.22    1.80    54.95925    75.04772    37.76083
    79  C   4.0   -0.02    4.26    4.13    56.83995    76.82479    42.82329
    80  C   4.0   -0.07    4.15    3.91    55.60135    74.26833    43.35458
    81  C   4.0   -0.08    4.13    3.87    59.54887    76.37528    41.96422
    82  H   1.0    0.08    1.02    1.43    54.51369    80.96230    43.62651
    83  H   1.0    0.04    1.07    1.44    56.94170    79.14518    39.49229
    84  H   1.0    0.04    1.06    1.44    56.83189    77.98623    44.52839
    85  H   1.0    0.03    1.00    1.43    56.44806    73.38702    45.00701
    86  H   1.0    0.06    1.00    1.43    53.57550    74.42075    43.64484
    87  H   1.0    0.05    1.01    1.43    55.91352    73.02183    41.75133
    88  H   1.0    0.03    1.00    1.43    60.58043    75.19707    43.28930
    89  H   1.0    0.05    1.01    1.43    59.47414    75.39332    40.16243
    90  H   1.0    0.04    1.00    1.43    60.52875    78.16177    41.72097
    91  N   5.0   -0.14    3.51    2.09    51.40375    77.02014    39.13606
    92  C   4.0    0.04    4.33    4.26    49.55618    75.58006    37.77733
    93  C   4.0    0.06    3.24    3.04    47.99326    77.11507    35.96857
    94  O   6.0   -0.28    1.09    1.80    46.81386    75.90404    34.11784
    95  C   4.0   -0.03    4.42    4.42    47.63934    74.54906    39.68801
    96  C   4.0   -0.01    3.59    3.16    48.65982    72.33198    41.09557
    97  C   4.0   -0.05    3.50    3.11    48.87471    72.42841    43.69942
    98  C   4.0   -0.05    3.49    3.11    49.11859    70.08522    39.81883
    99  C   4.0   -0.05    3.46    3.10    49.53072    70.30539    45.04599
   100  C   4.0   -0.06    3.53    3.13    49.63675    67.91057    41.16067
   101  C   4.0    0.06    3.53    3.13    49.83609    68.02749    43.78716
   102  O   6.0   -0.25    2.20    1.86    50.09382    65.97096    45.26898
   103  H   1.0    0.11    1.16    1.45    50.74869    77.79432    40.75797
   104  H   1.0    0.06    1.05    1.44    50.52883    74.06967    36.72762
   105  H   1.0    0.05    1.04    1.43    47.15520    76.08492    40.97415
   106  H   1.0    0.05    1.04    1.43    45.91761    73.99055    38.71159
   107  H   1.0    0.06    1.05    1.44    48.41119    74.14831    44.67263
   108  H   1.0    0.05    1.03    1.43    48.86699    69.98011    37.79519
   109  H   1.0    0.05    1.03    1.43    49.65273    70.30066    47.07593
   110  H   1.0    0.05    1.03    1.43    49.73552    66.11135    40.20049
   111  H   1.0    0.14    1.06    1.44    50.70865    64.48842    44.38467
   112  N   5.0   -0.22    3.21    1.96    67.12032    74.36037    47.38818
   113  C   4.0    0.03    4.25    4.11    66.93896    72.08403    48.90244
   114  C   4.0    0.07    3.22    3.04    68.91581    72.14878    50.98622
   115  O   6.0   -0.30    1.13    1.80    68.37283    71.66075    53.20365
   116  C   4.0   -0.05    4.34    4.28    67.23421    69.68944    47.32243
   117  C   4.0   -0.02    4.21    4.02    65.33894    69.57201    45.13671
   118  C   4.0   -0.08    4.14    3.89    65.40469    66.94911    43.97152
   119  C   4.0   -0.07    4.13    3.87    62.64420    70.21381    45.90688
   120  H   1.0    0.08    1.02    1.43    67.12070    74.19212    45.47656
   121  H   1.0    0.06    1.08    1.44    65.10232    72.00955    49.84014
   122  H   1.0    0.04    1.03    1.43    69.15256    69.59201    46.57232
   123  H   1.0    0.05    1.03    1.43    66.94938    68.07768    48.58161
   124  H   1.0    0.04    1.06    1.44    65.89437    70.93720    43.69690
   125  H   1.0    0.04    1.01    1.43    64.22339    66.95905    42.29225
   126  H   1.0    0.04    1.00    1.43    67.32740    66.41306    43.47967
   127  H   1.0    0.05    1.00    1.43    64.65016    65.57838    45.30372
   128  H   1.0    0.04    1.00    1.43    61.37423    69.78569    44.35361
   129  H   1.0    0.06    1.01    1.43    62.06215    69.12084    47.53974
   130  H   1.0    0.04    1.00    1.43    62.46667    72.20641    46.36893
   131  N   5.0   -0.20    3.22    1.96    67.26721    77.67447    55.74165
   132  C   4.0    0.03    4.22    4.04    65.04086    77.06851    57.19785
   133  C   4.0    0.09    3.21    3.04    65.71636    74.99898    59.11222
   134  O   6.0   -0.29    1.11    1.80    64.90045    75.08906    61.27721
   135  C   4.0   -0.05    4.23    4.07    62.81937    76.43459    55.43708
   136  C   4.0   -0.03    4.25    4.10    62.98644    73.75349    54.41765
   137  C   4.0    0.14    3.28    3.05    61.40001    72.96461    52.18267
   138  O   6.0   -0.31    1.45    1.80    61.41393    70.74756    51.53409
   139  N   5.0   -0.20    3.20    1.95    60.19515    74.72754    50.81595
   140  H   1.0    0.08    1.02    1.43    67.21244    77.44419    53.83454
   141  H   1.0    0.05    1.05    1.44    64.53609    78.72750    58.34493
   142  H   1.0    0.04    1.03    1.43    61.07877    76.71450    56.49660
   143  H   1.0    0.04    1.03    1.43    62.90354    77.78429    53.87911
   144  H   1.0    0.07    1.06    1.44    64.91375    73.44368    53.75477
   145  H   1.0    0.05    1.03    1.43    62.64357    72.36163    55.90062
   146  H   1.0    0.07    1.03    1.43    59.87845    76.47310    51.49212
   147  H   1.0    0.08    1.03    1.43    59.12717    74.11610    49.35998
   148  N   5.0   -0.22    3.22    1.96    52.25113    61.54655    66.18559
   149  C   4.0    0.02    4.32    4.24    53.05552    59.33089    64.81460
   150  C   4.0    0.14    3.46    3.10    51.82244    59.19420    62.22371
   151  O   6.0   -0.34    1.36    1.80    52.97575    58.15980    60.48574
   152  C   4.0   -0.05    4.34    4.28    52.41076    56.85121    66.16275
   153  C   4.0   -0.05    4.05    3.71    54.38896    56.10925    68.10967
   154  S   6.0   -0.05    2.46    3.10    53.77159    53.05265    69.56818
   155  C   4.0   -0.07    3.88    3.44    51.14422    53.90109    71.60794
   156  H   1.0    0.08    1.02    1.43    51.67085    61.27454    67.99728
   157  H   1.0    0.04    1.05    1.44    55.10620    59.47105    64.48909
   158  H   1.0    0.04    1.03    1.43    50.54951    57.06798    67.01624
   159  H   1.0    0.04    1.04    1.43    52.29589    55.36141    64.73702
   160  H   1.0    0.04    1.08    1.44    56.21119    55.85882    67.18802
   161  H   1.0    0.04    1.06    1.44    54.53585    57.51759    69.60218
   162  H   1.0    0.04    1.04    1.43    50.86828    52.35964    72.92769
   163  H   1.0    0.04    1.04    1.43    51.65119    55.62712    72.58648
   164  H   1.0    0.04    1.04    1.43    49.45493    54.16728    70.47555
   165  N   5.0   -0.15    3.49    2.07    49.49603    60.09743    61.97274
   166  C   4.0    0.03    4.46    4.48    48.23633    59.92327    59.56572
   167  C   4.0    0.15    3.52    3.12    48.82470    62.17399    57.87493
   168  O   6.0   -0.32    1.42    1.80    48.83497    61.86910    55.56730
   169  C   4.0   -0.05    4.34    4.27    45.37126    59.65722    59.76175
   170  C   4.0   -0.03    4.16    3.92    44.41354    57.30664    61.18974
   171  C   4.0   -0.08    4.12    3.83    41.87081    56.52852    60.06845
   172  C   4.0   -0.08    4.12    3.84    46.21124    55.05007    61.11088
   173  H   1.0    0.07    1.06    1.44    48.46328    60.68099    63.48184
   174  H   1.0    0.06    1.07    1.44    49.01312    58.28129    58.55836
   175  H   1.0    0.04    1.03    1.43    44.62396    61.36219    60.65078
   176  H   1.0    0.05    1.04    1.43    44.68592    59.58504    57.81578
   177  H   1.0    0.04    1.05    1.44    44.14225    57.82314    63.17313
   178  H   1.0    0.04    1.00    1.43    41.15867    54.85627    61.01630
   179  H   1.0    0.04    1.00    1.43    40.50053    58.04239    60.27737
   180  H   1.0    0.04    1.00    1.43    42.07247    56.07409    58.07269
   181  H   1.0    0.04    1.00    1.43    45.37098    53.49488    62.15685
   182  H   1.0    0.04    1.00    1.43    46.53811    54.40894    59.18476
   183  H   1.0    0.04    1.00    1.43    48.01951    55.48888    61.97765
   184  N   5.0   -0.15    3.52    2.09    49.26243    64.41822    58.91812
   185  C   4.0    0.03    4.53    4.58    50.30336    66.36056    57.28782
   186  C   4.0    0.16    3.57    3.15    52.76082    65.22339    56.28600
   187  O   6.0   -0.33    1.43    1.80    53.18080    65.30168    53.99928
   188  C   4.0   -0.03    4.29    4.19    50.56718    69.05147    58.39491
   189  C   4.0   -0.05    4.19    3.98    52.93297    69.37818    60.02687
   190  C   4.0   -0.08    4.10    3.81    48.15479    69.81301    59.78304
   191  C   4.0   -0.08    4.06    3.73    55.27771    69.74638    58.38125
   192  H   1.0    0.07    1.06    1.44    49.27473    64.64091    60.81974
   193  H   1.0    0.05    1.06    1.44    49.06887    66.52079    55.62448
   194  H   1.0    0.04    1.06    1.44    50.78806    70.30126    56.75386
   195  H   1.0    0.04    1.03    1.43    52.69594    71.03796    61.22537
   196  H   1.0    0.04    1.03    1.43    53.16619    67.74847    61.25635
   197  H   1.0    0.04    1.00    1.43    48.32310    71.72566    60.51295
   198  H   1.0    0.04    1.00    1.43    46.53991    69.74803    58.51742
   199  H   1.0    0.04    1.00    1.43    47.80898    68.54458    61.35203
   200  H   1.0    0.04    1.00    1.43    56.96061    69.02988    59.29802
   201  H   1.0    0.05    1.04    1.44    55.08983    68.76839    56.59342
   202  H   1.0    0.04    1.00    1.43    55.55230    71.73044    57.93763
   203  N   5.0   -0.14    3.54    2.11    54.23674    64.06455    57.95550
   204  C   4.0    0.03    4.49    4.53    56.67674    62.96705    57.39983
   205  C   4.0    0.15    3.53    3.13    56.40726    60.86585    55.45843
   206  O   6.0   -0.33    1.33    1.80    57.87649    60.72532    53.66516
   207  C   4.0   -0.03    4.27    4.14    57.94367    62.03002    59.84982
   208  C   4.0   -0.07    4.15    3.89    59.89054    59.97915    59.29994
   209  C   4.0   -0.08    4.11    3.82    59.19630    64.24904    61.20583
   210  H   1.0    0.07    1.08    1.44    53.76895    64.04329    59.81485
   211  H   1.0    0.05    1.06    1.44    57.91266    64.39385    56.52842
   212  H   1.0    0.05    1.06    1.44    56.46779    61.22983    61.04705
   213  H   1.0    0.03    1.00    1.43    60.76094    59.37932    61.05867
   214  H   1.0    0.04    1.01    1.43    59.04189    58.33026    58.41580
   215  H   1.0    0.04    1.00    1.43    61.32622    60.69444    58.01637
   216  H   1.0    0.04    1.00    1.43    60.11479    63.62911    62.93413
   217  H   1.0    0.04    1.00    1.43    60.61514    65.08255    59.97466
   218  H   1.0    0.04    1.00    1.43    57.82127    65.68615    61.70562
   219  N   5.0   -0.14    3.54    2.11    54.49343    59.26282    55.80061
   220  C   4.0    0.03    4.49    4.53    54.20434    57.19677    54.02447
   221  C   4.0    0.16    3.56    3.14    53.28400    58.31269    51.55288
   222  O   6.0   -0.33    1.41    1.80    54.28077    57.77848    49.52925
   223  C   4.0   -0.04    4.32    4.24    52.43676    55.10575    54.90823
   224  C   4.0   -0.04    4.05    3.71    53.60330    53.47730    56.97055
   225  S   6.0   -0.06    2.48    3.10    56.06055    51.35789    55.77317
   226  C   4.0   -0.07    3.88    3.44    58.87251    53.28695    56.19210
   227  H   1.0    0.12    1.14    1.45    53.63695    59.10970    57.52230
   228  H   1.0    0.05    1.08    1.44    56.08342    56.42062    53.64843
   229  H   1.0    0.05    1.03    1.43    50.66371    55.92309    55.57212
   230  H   1.0    0.04    1.04    1.43    52.00693    53.90534    53.28334
   231  H   1.0    0.06    1.07    1.44    54.41270    54.61815    58.47762
   232  H   1.0    0.04    1.08    1.44    52.16791    52.22566    57.74495
   233  H   1.0    0.04    1.04    1.43    60.46211    52.01469    56.42227
   234  H   1.0    0.04    1.04    1.43    59.18123    54.46878    54.54852
   235  H   1.0    0.04    1.04    1.43    58.63552    54.42009    57.88032
   236  N   5.0   -0.13    3.59    2.15    51.41834    59.96395    51.72052
   237  C   4.0    0.05    4.51    4.55    50.72776    61.30765    49.45740
   238  C   4.0    0.17    3.51    3.12    53.08584    62.51194    48.30901
   239  O   6.0   -0.33    1.48    1.80    53.29452    62.56766    45.99808
   240  C   4.0   -0.03    4.32    4.23    48.62850    63.19020    50.02157
   241  C   4.0    0.16    3.26    3.04    46.24467    61.74975    50.75373
   242  O   6.0   -0.31    1.22    1.80    45.74557    59.66792    49.90236
   243  N   5.0   -0.18    3.19    1.95    44.69412    62.96746    52.34607
   244  H   1.0    0.13    1.15    1.45    50.59743    60.46363    53.38653
   245  H   1.0    0.06    1.06    1.44    50.04927    59.93839    48.04271
   246  H   1.0    0.06    1.03    1.43    49.23757    64.47371    51.50582
   247  H   1.0    0.06    1.05    1.44    48.23606    64.28560    48.32060
   248  H   1.0    0.09    1.03    1.43    43.08680    62.10347    52.88362
   249  H   1.0    0.08    1.03    1.43    45.15453    64.63400    53.12754
   250  N   5.0   -0.13    3.58    2.14    54.85920    63.42020    49.82420
   251  C   4.0    0.04    4.51    4.55    57.08881    64.69476    48.88093
   252  C   4.0    0.15    3.48    3.10    58.88311    62.83407    47.59642
   253  O   6.0   -0.33    1.29    1.80    60.07432    63.42016    45.69607
   254  C   4.0   -0.02    4.13    3.86    58.42551    66.12064    50.98805
   255  S   6.0   -0.03    2.70    3.10    56.87756    69.10650    51.62789
   256  H   1.0    0.12    1.16    1.46    54.49077    63.64900    51.69763
   257  H   1.0    0.05    1.08    1.44    56.54892    66.05262    47.40742
   258  H   1.0    0.06    1.07    1.44    58.54423    65.00474    52.71256
   259  H   1.0    0.06    1.08    1.44    60.34483    66.60181    50.42608
   260  H   1.0    0.07    1.01    1.43    54.58021    68.16624    52.10606
   261  N   5.0   -0.14    3.57    2.13    59.02411    60.53447    48.60135
   262  C   4.0    0.04    4.55    4.61    60.58655    58.69396    47.33930
   263  C   4.0    0.15    3.48    3.11    59.21535    57.63625    45.02404
   264  O   6.0   -0.34    1.30    1.80    60.41835    56.74760    43.24336
   265  C   4.0   -0.02    4.27    4.14    61.51302    56.50814    49.00688
   266  C   4.0   -0.07    4.11    3.82    62.65400    57.50188    51.45678
   267  C   4.0   -0.07    4.15    3.91    59.41357    54.59334    49.47166
   268  H   1.0    0.12    1.11    1.45    58.18439    60.15589    50.27918
   269  H   1.0    0.05    1.07    1.44    62.24452    59.72193    46.61786
   270  H   1.0    0.04    1.08    1.44    63.00075    55.60022    47.90506
   271  H   1.0    0.04    1.00    1.43    63.39179    55.96408    52.60243
   272  H   1.0    0.04    1.00    1.43    64.20626    58.77407    51.02311
   273  H   1.0    0.06    1.01    1.43    61.23107    58.51532    52.53147
   274  H   1.0    0.04    1.00    1.43    60.02450    53.12875    50.77359
   275  H   1.0    0.06    1.01    1.43    57.74377    55.52776    50.20363
   276  H   1.0    0.05    1.01    1.43    58.90131    53.66942    47.71145
   277  N   5.0   -0.14    3.54    2.11    56.70716    57.78080    45.09816
   278  C   4.0    0.04    4.50    4.53    55.11858    56.94510    43.04607
   279  C   4.0    0.15    3.51    3.12    55.11653    58.95547    40.97547
   280  O   6.0   -0.34    1.46    1.80    55.36585    58.25976    38.78380
   281  C   4.0   -0.02    4.32    4.24    52.40887    56.22913    43.83264
   282  C   4.0   -0.04    4.19    3.98    52.42266    53.89334    45.54501
   283  C   4.0   -0.07    4.15    3.90    50.82879    55.72722    41.46862
   284  C   4.0   -0.07    4.01    3.64    49.88488    53.45772    46.84161
   285  H   1.0    0.12    1.15    1.45    55.85633    58.24345    46.75160
   286  H   1.0    0.05    1.06    1.44    56.00800    55.27590    42.18487
   287  H   1.0    0.06    1.05    1.44    51.60118    57.82376    44.86669
   288  H   1.0    0.04    1.03    1.43    52.91541    52.24359    44.40853
   289  H   1.0    0.05    1.04    1.43    53.87019    54.14410    46.98685
   290  H   1.0    0.04    1.00    1.43    48.99202    54.96765    41.97177
   291  H   1.0    0.05    1.00    1.43    50.54040    57.44679    40.38928
   292  H   1.0    0.04    1.00    1.43    51.78259    54.36564    40.25918
   293  H   1.0    0.04    1.00    1.43    50.01429    51.88163    48.15239
   294  H   1.0    0.05    1.00    1.43    49.32364    55.13285    47.89242
   295  H   1.0    0.04    1.00    1.43    48.41335    53.02471    45.47782
   296  N   5.0   -0.15    3.52    2.09    54.87677    61.38251    41.58647
   297  C   4.0    0.03    4.52    4.57    55.06061    63.32744    39.66183
   298  C   4.0    0.16    3.58    3.16    57.55673    63.09298    38.29832
   299  O   6.0   -0.33    1.36    1.80    57.74901    63.54450    36.03690
   300  C   4.0   -0.02    4.32    4.23    54.94715    66.06059    40.65602
   301  C   4.0   -0.07    4.16    3.93    57.00405    66.76789    42.52685
   302  C   4.0   -0.07    4.15    3.91    54.99136    67.91776    38.44459
   303  H   1.0    0.12    1.19    1.46    54.58141    61.89167    43.41419
   304  H   1.0    0.04    1.05    1.44    53.55024    63.04385    38.25865
   305  H   1.0    0.05    1.13    1.45    53.19555    66.25168    41.68877
   306  H   1.0    0.04    1.00    1.43    56.40525    68.47744    43.49514
   307  H   1.0    0.07    1.04    1.43    57.26776    65.29122    43.90615
   308  H   1.0    0.04    1.00    1.43    58.82323    67.10205    41.63890
   309  H   1.0    0.05    1.00    1.43    54.58445    69.82601    39.08762
   310  H   1.0    0.06    1.01    1.43    56.85939    67.91934    37.59074
   311  H   1.0    0.05    1.00    1.43    53.64320    67.43206    36.97432
   312  N   5.0   -0.14    3.60    2.16    59.50507    62.54118    39.78011
   313  C   4.0    0.03    4.43    4.44    62.00487    62.03626    38.80019
   314  C   4.0    0.16    3.52    3.12    61.78187    59.75025    37.05367
   315  O   6.0   -0.28    1.26    1.80    62.37901    59.84385    34.82822
   316  C   4.0   -0.05    4.41    4.40    63.73198    61.65177    41.08160
   317  C   4.0   -0.02    4.22    4.05    66.00269    59.95158    40.62626
   318  C   4.0   -0.07    4.16    3.93    67.64130    61.16412    38.61332
   319  C   4.0   -0.08    4.12    3.83    67.54899    59.68597    43.04514
   320  H   1.0    0.10    1.09    1.44    59.33754    62.53820    41.68534
   321  H   1.0    0.06    1.05    1.44    62.61355    63.60146    37.58162
   322  H   1.0    0.04    1.06    1.44    64.42927    63.48605    41.65003
   323  H   1.0    0.06    1.04    1.43    62.60648    60.91117    42.63363
   324  H   1.0    0.05    1.06    1.44    65.34402    58.10356    40.00047
   325  H   1.0    0.05    1.01    1.43    69.39254    60.14627    38.38753
   326  H   1.0    0.06    1.00    1.43    66.64373    61.25278    36.82101
   327  H   1.0    0.04    1.01    1.43    68.12063    63.03864    39.24633
   328  H   1.0    0.04    1.00    1.43    69.26456    58.62791    42.65765
   329  H   1.0    0.04    1.00    1.43    68.08703    61.55010    43.71672
   330  H   1.0    0.04    1.00    1.43    66.50812    58.72025    44.52800
   331  N   5.0   -0.14    3.55    2.12    60.73117    57.69940    38.09775
   332  C   4.0    0.05    4.46    4.48    60.49448    55.39214    36.65081
   333  C   4.0    0.17    3.44    3.09    58.94784    55.82656    34.23474
   334  O   6.0   -0.26    1.21    1.80    59.32324    54.55801    32.32110
   335  C   4.0   -0.03    4.30    4.21    59.33020    53.30405    38.27784
   336  C   4.0    0.16    3.23    3.04    60.19391    50.71846    37.33916
   337  O   6.0   -0.29    1.22    1.80    62.36206    50.33745    36.67216
   338  N   5.0   -0.19    3.17    1.95    58.44523    48.88093    37.42639
   339  H   1.0    0.11    1.12    1.45    60.59947    57.53889    40.01212
   340  H   1.0    0.07    1.06    1.44    62.37893    54.72784    36.06564
   341  H   1.0    0.05    1.04    1.43    60.09319    53.54605    40.18483
   342  H   1.0    0.05    1.03    1.43    57.28029    53.46006    38.33485
   343  H   1.0    0.10    1.03    1.43    58.92387    47.15555    36.77791
   344  H   1.0    0.08    1.03    1.43    56.61568    49.25166    37.77739
   345  N   5.0   -0.13    3.58    2.14    57.20200    57.61808    34.39923
   346  C   4.0    0.04    4.49    4.52    55.47215    58.31742    32.40381
   347  C   4.0    0.16    3.45    3.10    56.90215    59.88302    30.44746
   348  O   6.0   -0.28    1.21    1.80    56.74856    59.31182    28.19878
   349  C   4.0   -0.02    4.27    4.15    53.20789    59.82253    33.44549
   350  C   4.0   -0.07    4.13    3.87    51.70158    61.07560    31.32752
   351  C   4.0   -0.07    4.12    3.85    51.45661    58.14001    34.99857
   352  H   1.0    0.13    1.19    1.46    56.89838    58.40298    36.12695
   353  H   1.0    0.06    1.05    1.44    54.82792    56.60093    31.43024
   354  H   1.0    0.06    1.06    1.44    53.99386    61.29413    34.66209
   355  H   1.0    0.04    1.00    1.43    50.20024    62.22458    32.13335
   356  H   1.0    0.05    1.00    1.43    52.87747    62.27324    30.14353
   357  H   1.0    0.05    1.00    1.43    50.84199    59.64758    30.12739
   358  H   1.0    0.04    1.00    1.43    50.14451    59.31610    36.05561
   359  H   1.0    0.04    1.00    1.43    50.38614    56.88543    33.77861
   360  H   1.0    0.06    1.02    1.43    52.54281    57.00904    36.31254
   361  N   5.0   -0.13    3.47    2.06    58.26907    61.78850    31.35216
   362  C   4.0    0.05    4.25    4.11    59.81666    63.49668    29.87604
   363  C   4.0    0.12    3.23    3.04    62.19468    62.20884    28.76173
   364  O   6.0   -0.27    1.12    1.80    63.62742    63.32536    27.34511
   365  C   4.0    0.04    4.17    3.93    60.73049    65.72500    31.50147
   366  O   6.0   -0.22    2.08    1.84    63.02335    65.11473    32.71291
   367  H   1.0    0.13    1.15    1.45    58.24514    62.13267    33.25241
   368  H   1.0    0.05    1.05    1.44    58.69572    64.25865    28.30728
   369  H   1.0    0.05    1.01    1.43    61.00076    67.35558    30.25600
   370  H   1.0    0.06    1.02    1.43    59.26581    66.13846    32.90620
   371  H   1.0    0.12    1.02    1.43    63.72558    66.66512    33.37705
   372  N   5.0   -0.22    3.24    1.97    38.90436    67.31516    42.43059
   373  C   4.0    0.03    4.36    4.31    39.90328    68.53127    44.65914
   374  C   4.0    0.07    3.24    3.04    38.07050    70.38413    45.81080
   375  O   6.0   -0.30    1.12    1.80    37.97935    70.63028    48.11488
   376  C   4.0   -0.02    4.36    4.32    42.38237    69.89307    44.08105
   377  C   4.0   -0.05    4.22    4.04    42.08950    71.82845    41.95053
   378  C   4.0   -0.07    4.21    4.02    44.28584    67.84445    43.43758
   379  C   4.0   -0.08    4.01    3.63    42.07249    74.57458    42.79019
   380  H   1.0    0.08    1.03    1.43    39.66358    67.70478    40.71232
   381  H   1.0    0.04    1.06    1.44    40.25358    67.09995    46.12639
   382  H   1.0    0.05    1.06    1.44    42.99448    70.86670    45.79795
   383  H   1.0    0.04    1.04    1.43    43.62297    71.55618    40.61182
   384  H   1.0    0.04    1.04    1.43    40.36854    71.46590    40.91019
   385  H   1.0    0.05    1.09    1.44    45.80989    68.67989    42.39305
   386  H   1.0    0.05    1.00    1.43    45.01399    66.99711    45.15757
   387  H   1.0    0.04    1.01    1.43    43.45566    66.39235    42.25302
   388  H   1.0    0.04    1.00    1.43    41.83910    75.79021    41.14794
   389  H   1.0    0.05    1.00    1.43    40.53534    74.96416    44.09270
   390  H   1.0    0.04    1.00    1.43    43.84958    75.02665    43.70480
   391  N   5.0   -0.20    3.21    1.96    32.86222    66.12970    48.61910
   392  C   4.0    0.03    4.24    4.09    33.93663    64.83483    50.75823
   393  C   4.0    0.09    3.23    3.04    34.51205    66.73802    52.82823
   394  O   6.0   -0.29    1.12    1.80    33.65656    66.33253    54.96032
   395  C   4.0   -0.05    4.34    4.27    36.33080    63.33342    50.16278
   396  C   4.0   -0.03    4.17    3.95    35.96614    61.16768    48.27246
   397  C   4.0   -0.07    4.11    3.82    38.50662    59.88070    47.79820
   398  C   4.0   -0.08    4.11    3.81    34.04437    59.22369    49.17987
   399  H   1.0    0.08    1.03    1.43    33.89052    66.13793    47.00286
   400  H   1.0    0.05    1.06    1.44    32.49314    63.56270    51.53824
   401  H   1.0    0.05    1.03    1.43    37.75853    64.63330    49.43683
   402  H   1.0    0.04    1.03    1.43    36.99403    62.54999    51.95382
   403  H   1.0    0.04    1.06    1.44    35.29951    61.98097    46.49995
   404  H   1.0    0.04    1.00    1.43    38.31502    58.42773    46.35960
   405  H   1.0    0.04    1.00    1.43    39.91285    61.23928    47.16794
   406  H   1.0    0.05    1.00    1.43    39.18910    58.98082    49.51439
   407  H   1.0    0.04    1.00    1.43    33.88190    57.72037    47.79084
   408  H   1.0    0.04    1.00    1.43    34.63107    58.38883    50.96345
   409  H   1.0    0.04    1.00    1.43    32.18865    60.06412    49.43439
   410  H   1.0    0.09    1.07    1.44    66.83936    48.80796    60.89632
   411  H   1.0    0.05    1.05    1.44    71.96726    52.02364    58.72681
   412  H   1.0    0.09    1.07    1.44    70.86229    46.20516    53.33804
   413  H   1.0    0.07    1.04    1.44    72.23095    51.90787    50.87931
   414  H   1.0    0.09    1.07    1.44    72.00735    47.22922    43.19220
   415  H   1.0    0.06    1.04    1.43    76.47605    51.76959    41.88213
   416  H   1.0    0.09    1.07    1.44    54.46716    80.04797    49.82499
   417  H   1.0    0.05    1.05    1.44    48.59981    79.30509    46.77987
   418  H   1.0    0.09    1.07    1.44    54.41092    81.89165    40.87518
   419  H   1.0    0.06    1.04    1.43    47.86806    78.98846    36.18259
   420  H   1.0    0.09    1.07    1.44    65.80209    75.37817    47.73303
   421  H   1.0    0.06    1.05    1.44    70.70599    72.59450    50.57679
   422  H   1.0    0.09    1.07    1.44    67.66420    79.31287    55.96665
   423  H   1.0    0.06    1.04    1.44    66.83050    73.56229    58.59678
   424  H   1.0    0.09    1.07    1.44    53.53607    62.65730    66.27359
   425  H   1.0    0.08    1.05    1.44    62.58964    60.41344    29.19946
   426  H   1.0    0.09    1.07    1.44    39.06711    65.62906    42.58273
   427  H   1.0    0.05    1.05    1.44    36.93564    71.40627    44.69796
   428  H   1.0    0.09    1.07    1.44    31.37445    65.41392    48.21076
   429  H   1.0    0.07    1.04    1.43    35.55645    68.26529    52.44384

  Z AO/shell   Hii/eV     exponent
  1     Wed Apr 25 08:07:45 CEST 2018   EN: 2.200 GM2: 0.406  GM3: 0.0800  RAES: 1.40
     1s    -10.707211    1.230000
  6     Wed Apr 25 08:07:45 CEST 2018   EN: 2.550 GM2: 0.538  GM3: 0.1500  RAES: 3.00
     2s    -13.970922    2.096432
     2p    -10.063292    1.800000
  7     Wed Apr 25 08:07:45 CEST 2018   EN: 3.040 GM2: 0.461  GM3:-0.0640  RAES: 1.90
     2s    -16.686243    2.339881
     2p    -12.523956    2.014332
  8     Wed Apr 25 08:07:45 CEST 2018   EN: 3.440 GM2: 0.452  GM3:-0.0517  RAES: 1.80
     2s    -20.229985    2.439742
     2p    -15.503117    2.137023
 16     Tue Apr 24 11:44:34 CEST 2018   EN: 2.580 GM2: 0.340  GM3:-0.0502  RAES: 3.10
     3s    -20.029654    1.981333
     3p    -11.377694    2.025643
     3d     -0.420282    1.702555
 no old-style atom pair restraining (fixing) potential

molecular fragmentation (1/2 indicates fragments):
111111111111111111122222222222222222222222222222222222222222222222222222
222222222222222222222222222222222222222222222222222222222222222222222222
222222222222222222222222222222222222222222222222222222222222222222222222
222222222222222222222222222222222222222222222222222222222222222222222222
222222222222222222222222222222222222222222222222222222222222222222222222
222222222222222222222222222222222222222222222222211222222222222222222
# atoms in fragment 1/2:    21   408
 fragment masses (1/2) :      115.17     2637.50
CMA distance (Bohr)    :  19.670
constraining FC (au)   :  0.0500
           ------------------------------------------------- 
          |        Self-Consistent Charge Iterations        |
           ------------------------------------------------- 

 Ncao       : 1017
 Nao        : 1014
 Nshell     : 622
 Nel        : 1090
 T(el)      :   500.0
 intcut     :    35.0
 scfconv/Eh :  0.100E-06
   qconv/e  :  0.100E-04
 intneglect :  0.100E-08
 broydamp   :      0.400
 iter      E             dE          RMSdq      gap      omega  full diag
   1   -615.3510551 -0.615351E+03  0.431E+00    2.39       0.0  T
   2   -616.6719461 -0.132089E+01  0.204E+00    1.02       1.0  T
   3   -616.7496050 -0.776589E-01  0.119E+00    1.76       1.0  T
   4   -616.8571242 -0.107519E+00  0.247E-01    0.98       1.0  T
   5   -616.8642325 -0.710826E-02  0.130E-01    1.36       1.0  T
   6   -616.8663503 -0.211786E-02  0.528E-02    1.25       1.0  T
   7   -616.8666310 -0.280625E-03  0.214E-02    1.26       1.0  T
   8   -616.8666539 -0.229090E-04  0.106E-02    1.25       1.0  T
   9   -616.8666612 -0.736285E-05  0.518E-03    1.26       1.0  T
  10   -616.8666631 -0.188107E-05  0.235E-03    1.26       2.1  T
  11   -616.8666635 -0.366217E-06  0.118E-03    1.26       4.1  T
  12   -616.8666636 -0.108027E-06  0.557E-04    1.26       8.7  T
  13   -616.8666636 -0.439793E-07  0.254E-04    1.26      19.0  T
  14   -616.8666636 -0.405646E-08  0.120E-04    1.26      40.1  T
  15   -616.8666636 -0.124089E-08  0.488E-05    1.26      99.0  T
  16   -616.8666636 -0.184400E-09  0.227E-05    1.26     213.0  T
speedup  1.00
cpu  time for SCC    6.70 s
wall time for SCC    6.70 s

   *** convergence criteria satisfied after 16 iterations ***

          eigenvalues
 #    :         533        534        535        536        537        538        539        540
 occ. :        2.000      2.000      2.000      2.000      2.000      2.000      2.000      2.000
 eps  :       -10.310    -10.102    -10.101    -10.049    -10.009     -9.994     -9.967     -9.962
 #    :         541        542        543        544        545        546        547        548
 occ. :        2.000      2.000      2.000      2.000      2.000      0.000      0.000      0.000
 eps  :        -9.945     -9.901     -9.844     -9.791     -9.662     -8.403     -7.840     -7.741
 #    :         549        550        551        552        553        554        555        556
 occ. :        0.000      0.000      0.000      0.000      0.000      0.000      0.000      0.000
 eps  :        -7.705     -7.675     -7.663     -7.662     -7.641     -7.541     -7.526     -7.150


   #   Z            q   n(s)   n(p)   n(d)      C6AA      α(0)
   1   7 N     -0.392  1.312  4.080  0.000    30.150     8.155
   2   6 C      0.043  1.054  2.904  0.000    19.879     6.351
   3   6 C      0.192  1.094  2.714  0.000    23.888     8.005
   4   8 O     -0.373  1.757  4.616  0.000    21.149     6.166
   5   6 C     -0.070  1.059  3.012  0.000    21.830     6.650
   6   6 C     -0.008  1.055  2.954  0.000    20.692     6.470
   7   6 C     -0.117  1.042  3.075  0.000    22.790     6.806
   8   6 C     -0.116  1.039  3.077  0.000    22.772     6.804
   9   1 H      0.168  0.832  0.000  0.000     1.286     1.777
  10   1 H      0.045  0.955  0.000  0.000     2.380     2.412
  11   1 H      0.044  0.956  0.000  0.000     2.398     2.421
  12   1 H      0.046  0.954  0.000  0.000     2.370     2.407
  13   1 H      0.036  0.964  0.000  0.000     2.497     2.471
  14   1 H      0.046  0.954  0.000  0.000     2.366     2.405
  15   1 H      0.039  0.961  0.000  0.000     2.466     2.456
  16   1 H      0.043  0.957  0.000  0.000     2.411     2.428
  17   1 H      0.044  0.956  0.000  0.000     2.391     2.418
  18   1 H      0.045  0.955  0.000  0.000     2.389     2.417
  19   1 H      0.036  0.964  0.000  0.000     2.504     2.475
  20   7 N     -0.386  1.315  4.071  0.000    29.988     8.133
  21   6 C      0.049  1.056  2.895  0.000    19.765     6.333
  22   6 C      0.196  1.094  2.711  0.000    23.826     7.994
  23   8 O     -0.373  1.750  4.623  0.000    21.144     6.165
  24   6 C     -0.066  1.056  3.010  0.000    21.756     6.639
  25   6 C      0.010  1.080  2.910  0.000    27.793     8.648
  26   6 C     -0.032  1.078  2.954  0.000    28.793     8.800
  27   6 C     -0.042  1.080  2.962  0.000    29.050     8.839
  28   6 C     -0.024  1.078  2.946  0.000    28.609     8.771
  29   6 C     -0.033  1.080  2.952  0.000    28.814     8.803
  30   6 C     -0.034  1.077  2.957  0.000    28.859     8.810
  31   1 H      0.156  0.844  0.000  0.000     1.358     1.826
  32   1 H      0.045  0.955  0.000  0.000     2.388     2.417
  33   1 H      0.056  0.944  0.000  0.000     2.244     2.342
  34   1 H      0.061  0.939  0.000  0.000     2.184     2.311
  35   1 H      0.028  0.972  0.000  0.000     2.614     2.528
  36   1 H      0.043  0.957  0.000  0.000     2.415     2.430
  37   1 H      0.022  0.978  0.000  0.000     2.702     2.571
  38   1 H      0.043  0.957  0.000  0.000     2.412     2.429
  39   1 H      0.027  0.973  0.000  0.000     2.628     2.535
  40   7 N     -0.402  1.321  4.081  0.000    30.432     8.193
  41   6 C      0.046  1.051  2.904  0.000    19.825     6.342
  42   6 C      0.198  1.094  2.708  0.000    23.782     7.987
  43   8 O     -0.398  1.765  4.634  0.000    21.644     6.237
  44   6 C     -0.070  1.059  3.011  0.000    21.842     6.653
  45   6 C     -0.004  1.056  2.948  0.000    20.617     6.458
  46   6 C     -0.103  1.040  3.063  0.000    22.519     6.765
  47   6 C     -0.104  1.037  3.067  0.000    22.533     6.768
  48   1 H      0.194  0.806  0.000  0.000     1.138     1.671
  49   1 H      0.047  0.953  0.000  0.000     2.362     2.403
  50   1 H      0.068  0.932  0.000  0.000     2.110     2.271
  51   1 H      0.029  0.971  0.000  0.000     2.599     2.521
  52   1 H      0.042  0.958  0.000  0.000     2.419     2.432
  53   1 H      0.030  0.970  0.000  0.000     2.590     2.517
  54   1 H      0.032  0.968  0.000  0.000     2.556     2.500
  55   1 H      0.027  0.973  0.000  0.000     2.630     2.536
  56   1 H      0.035  0.965  0.000  0.000     2.522     2.483
  57   1 H      0.029  0.971  0.000  0.000     2.595     2.519
  58   1 H      0.045  0.955  0.000  0.000     2.382     2.413
  59   7 N     -0.384  1.312  4.073  0.000    29.944     8.127
  60   6 C      0.026  1.060  2.914  0.000    20.143     6.392
  61   6 C      0.195  1.091  2.714  0.000    23.837     7.996
  62   8 O     -0.360  1.747  4.613  0.000    20.890     6.128
  63   6 C     -0.023  1.062  2.961  0.000    20.954     6.511
  64   6 C     -0.124  1.042  3.081  0.000    22.923     6.826
  65   6 C     -0.119  1.038  3.081  0.000    22.834     6.813
  66   1 H      0.166  0.834  0.000  0.000     1.299     1.785
  67   1 H      0.064  0.936  0.000  0.000     2.149     2.293
  68   1 H      0.043  0.957  0.000  0.000     2.413     2.429
  69   1 H      0.055  0.945  0.000  0.000     2.253     2.347
  70   1 H      0.045  0.955  0.000  0.000     2.382     2.414
  71   1 H      0.050  0.950  0.000  0.000     2.314     2.379
  72   1 H      0.053  0.947  0.000  0.000     2.278     2.360
  73   1 H      0.050  0.950  0.000  0.000     2.321     2.382
  74   1 H      0.037  0.963  0.000  0.000     2.489     2.467
  75   7 N     -0.388  1.317  4.071  0.000    30.043     8.140
  76   6 C      0.026  1.062  2.912  0.000    20.149     6.393
  77   6 C      0.279  1.046  2.676  0.000    22.282     7.730
  78   8 O     -0.509  1.752  4.757  0.000    23.984     6.566
  79   6 C     -0.012  1.065  2.947  0.000    20.749     6.479
  80   6 C     -0.113  1.038  3.075  0.000    22.726     6.797
  81   6 C     -0.116  1.042  3.073  0.000    22.765     6.802
  82   1 H      0.163  0.837  0.000  0.000     1.317     1.798
  83   1 H      0.028  0.972  0.000  0.000     2.608     2.526
  84   1 H      0.042  0.958  0.000  0.000     2.424     2.435
  85   1 H      0.038  0.962  0.000  0.000     2.470     2.458
  86   1 H      0.052  0.948  0.000  0.000     2.298     2.371
  87   1 H      0.035  0.965  0.000  0.000     2.519     2.482
  88   1 H      0.046  0.954  0.000  0.000     2.369     2.407
  89   1 H      0.040  0.960  0.000  0.000     2.445     2.445
  90   1 H      0.039  0.961  0.000  0.000     2.467     2.456
  91   7 N     -0.205  1.260  3.946  0.000    25.465     7.495
  92   6 C      0.043  1.049  2.908  0.000    19.865     6.347
  93   6 C      0.178  1.109  2.714  0.000    24.176     8.053
  94   8 O     -0.425  1.810  4.615  0.000    22.182     6.315
  95   6 C     -0.072  1.058  3.014  0.000    21.844     6.650
  96   6 C      0.006  1.072  2.922  0.000    27.880     8.661
  97   6 C     -0.039  1.079  2.960  0.000    28.966     8.826
  98   6 C     -0.040  1.080  2.959  0.000    28.986     8.829
  99   6 C     -0.062  1.073  2.990  0.000    29.552     8.915
 100   6 C     -0.074  1.078  2.995  0.000    29.842     8.958
 101   6 C      0.145  1.044  2.811  0.000    24.843     8.169
 102   8 O     -0.416  1.696  4.720  0.000    21.160     6.210
 103   1 H      0.258  0.742  0.000  0.000     0.853     1.447
 104   1 H      0.091  0.909  0.000  0.000     1.865     2.136
 105   1 H      0.080  0.920  0.000  0.000     1.981     2.201
 106   1 H      0.071  0.929  0.000  0.000     2.074     2.252
 107   1 H      0.055  0.945  0.000  0.000     2.255     2.348
 108   1 H      0.041  0.959  0.000  0.000     2.437     2.441
 109   1 H      0.067  0.933  0.000  0.000     2.114     2.274
 110   1 H      0.042  0.958  0.000  0.000     2.423     2.434
 111   1 H      0.328  0.672  0.000  0.000     0.642     1.259
 112   7 N     -0.387  1.307  4.079  0.000    30.002     8.135
 113   6 C      0.037  1.052  2.911  0.000    19.971     6.365
 114   6 C      0.193  1.095  2.712  0.000    23.874     8.002
 115   8 O     -0.378  1.759  4.619  0.000    21.256     6.181
 116   6 C     -0.064  1.057  3.007  0.000    21.728     6.635
 117   6 C     -0.007  1.054  2.953  0.000    20.667     6.466
 118   6 C     -0.111  1.042  3.068  0.000    22.662     6.786
 119   6 C     -0.109  1.037  3.072  0.000    22.641     6.784
 120   1 H      0.166  0.834  0.000  0.000     1.299     1.785
 121   1 H      0.061  0.939  0.000  0.000     2.192     2.315
 122   1 H      0.043  0.957  0.000  0.000     2.414     2.430
 123   1 H      0.039  0.961  0.000  0.000     2.462     2.454
 124   1 H      0.033  0.967  0.000  0.000     2.550     2.497
 125   1 H      0.039  0.961  0.000  0.000     2.457     2.451
 126   1 H      0.033  0.967  0.000  0.000     2.539     2.492
 127   1 H      0.045  0.955  0.000  0.000     2.378     2.411
 128   1 H      0.040  0.960  0.000  0.000     2.451     2.448
 129   1 H      0.050  0.950  0.000  0.000     2.319     2.381
 130   1 H      0.036  0.964  0.000  0.000     2.496     2.471
 131   7 N     -0.389  1.312  4.077  0.000    30.072     8.144
 132   6 C      0.038  1.057  2.905  0.000    19.954     6.363
 133   6 C      0.204  1.092  2.704  0.000    23.665     7.967
 134   8 O     -0.379  1.757  4.622  0.000    21.264     6.182
 135   6 C     -0.074  1.057  3.017  0.000    21.914     6.665
 136   6 C     -0.106  1.052  3.054  0.000    22.520     6.756
 137   6 C      0.289  1.038  2.673  0.000    22.100     7.697
 138   8 O     -0.472  1.747  4.725  0.000    23.160     6.453
 139   7 N     -0.271  1.260  4.011  0.000    27.019     7.720
 140   1 H      0.159  0.841  0.000  0.000     1.341     1.814
 141   1 H      0.058  0.942  0.000  0.000     2.224     2.332
 142   1 H      0.063  0.937  0.000  0.000     2.161     2.299
 143   1 H      0.064  0.936  0.000  0.000     2.152     2.294
 144   1 H      0.097  0.903  0.000  0.000     1.812     2.105
 145   1 H      0.067  0.933  0.000  0.000     2.114     2.274
 146   1 H      0.219  0.781  0.000  0.000     1.013     1.577
 147   1 H      0.208  0.792  0.000  0.000     1.068     1.619
 148   7 N     -0.392  1.309  4.082  0.000    30.143     8.154
 149   6 C      0.029  1.056  2.915  0.000    20.096     6.385
 150   6 C      0.258  1.050  2.692  0.000    22.658     7.796
 151   8 O     -0.494  1.742  4.752  0.000    23.647     6.520
 152   6 C     -0.065  1.053  3.012  0.000    21.713     6.630
 153   6 C     -0.009  1.063  2.946  0.000    20.746     6.486
 154  16 S     -0.239  1.926  4.261  0.053   151.309    20.703
 155   6 C     -0.059  1.054  3.005  0.000    21.707     6.646
 156   1 H      0.171  0.829  0.000  0.000     1.268     1.764
 157   1 H      0.044  0.956  0.000  0.000     2.402     2.424
 158   1 H      0.060  0.940  0.000  0.000     2.197     2.318
 159   1 H      0.053  0.947  0.000  0.000     2.280     2.361
 160   1 H      0.060  0.940  0.000  0.000     2.197     2.318
 161   1 H      0.055  0.945  0.000  0.000     2.253     2.347
 162   1 H      0.061  0.939  0.000  0.000     2.187     2.313
 163   1 H      0.062  0.938  0.000  0.000     2.176     2.307
 164   1 H      0.060  0.940  0.000  0.000     2.200     2.320
 165   7 N     -0.164  1.240  3.925  0.000    24.558     7.360
 166   6 C      0.011  1.059  2.930  0.000    20.387     6.428
 167   6 C      0.258  1.047  2.695  0.000    22.655     7.796
 168   8 O     -0.483  1.742  4.740  0.000    23.403     6.486
 169   6 C     -0.082  1.061  3.021  0.000    22.058     6.685
 170   6 C     -0.015  1.059  2.956  0.000    20.803     6.488
 171   6 C     -0.120  1.043  3.077  0.000    22.846     6.814
 172   6 C     -0.115  1.038  3.077  0.000    22.762     6.803
 173   1 H      0.232  0.768  0.000  0.000     0.957     1.533
 174   1 H      0.089  0.911  0.000  0.000     1.887     2.148
 175   1 H      0.065  0.935  0.000  0.000     2.139     2.287
 176   1 H      0.069  0.931  0.000  0.000     2.100     2.266
 177   1 H      0.046  0.954  0.000  0.000     2.365     2.405
 178   1 H      0.045  0.955  0.000  0.000     2.388     2.417
 179   1 H      0.045  0.955  0.000  0.000     2.386     2.415
 180   1 H      0.042  0.958  0.000  0.000     2.429     2.437
 181   1 H      0.046  0.954  0.000  0.000     2.369     2.407
 182   1 H      0.037  0.963  0.000  0.000     2.485     2.465
 183   1 H      0.036  0.964  0.000  0.000     2.507     2.476
 184   7 N     -0.165  1.241  3.925  0.000    24.574     7.362
 185   6 C      0.009  1.069  2.922  0.000    20.416     6.432
 186   6 C      0.278  1.042  2.680  0.000    22.294     7.732
 187   8 O     -0.479  1.738  4.741  0.000    23.326     6.475
 188   6 C     -0.029  1.068  2.961  0.000    21.063     6.528
 189   6 C     -0.075  1.052  3.022  0.000    21.924     6.666
 190   6 C     -0.130  1.042  3.089  0.000    23.063     6.848
 191   6 C     -0.122  1.038  3.084  0.000    22.893     6.823
 192   1 H      0.221  0.779  0.000  0.000     1.007     1.572
 193   1 H      0.091  0.909  0.000  0.000     1.869     2.138
 194   1 H      0.067  0.933  0.000  0.000     2.116     2.275
 195   1 H      0.067  0.933  0.000  0.000     2.123     2.278
 196   1 H      0.037  0.963  0.000  0.000     2.489     2.467
 197   1 H      0.065  0.935  0.000  0.000     2.136     2.285
 198   1 H      0.058  0.942  0.000  0.000     2.226     2.333
 199   1 H      0.056  0.944  0.000  0.000     2.241     2.341
 200   1 H      0.040  0.960  0.000  0.000     2.443     2.444
 201   1 H      0.040  0.960  0.000  0.000     2.447     2.446
 202   1 H      0.050  0.950  0.000  0.000     2.318     2.381
 203   7 N     -0.173  1.241  3.932  0.000    24.741     7.387
 204   6 C      0.019  1.064  2.917  0.000    20.267     6.410
 205   6 C      0.277  1.040  2.683  0.000    22.315     7.736
 206   8 O     -0.501  1.745  4.755  0.000    23.796     6.540
 207   6 C     -0.022  1.064  2.958  0.000    20.928     6.507
 208   6 C     -0.113  1.037  3.077  0.000    22.724     6.797
 209   6 C     -0.124  1.042  3.082  0.000    22.923     6.826
 210   1 H      0.206  0.794  0.000  0.000     1.077     1.626
 211   1 H      0.071  0.929  0.000  0.000     2.070     2.250
 212   1 H      0.052  0.948  0.000  0.000     2.297     2.370
 213   1 H      0.067  0.933  0.000  0.000     2.124     2.279
 214   1 H      0.034  0.966  0.000  0.000     2.535     2.490
 215   1 H      0.043  0.957  0.000  0.000     2.404     2.425
 216   1 H      0.062  0.938  0.000  0.000     2.171     2.304
 217   1 H      0.048  0.952  0.000  0.000     2.347     2.396
 218   1 H      0.053  0.947  0.000  0.000     2.286     2.364
 219   7 N     -0.208  1.269  3.939  0.000    25.518     7.503
 220   6 C      0.028  1.054  2.918  0.000    20.090     6.380
 221   6 C      0.272  1.038  2.689  0.000    22.398     7.752
 222   8 O     -0.499  1.737  4.763  0.000    23.768     6.536
 223   6 C     -0.067  1.052  3.015  0.000    21.764     6.638
 224   6 C     -0.020  1.067  2.953  0.000    20.929     6.514
 225  16 S     -0.231  1.925  4.257  0.049   150.919    20.677
 226   6 C     -0.062  1.056  3.006  0.000    21.755     6.653
 227   1 H      0.243  0.757  0.000  0.000     0.910     1.494
 228   1 H      0.073  0.927  0.000  0.000     2.048     2.238
 229   1 H      0.059  0.941  0.000  0.000     2.207     2.323
 230   1 H      0.064  0.936  0.000  0.000     2.155     2.296
 231   1 H      0.079  0.921  0.000  0.000     1.991     2.207
 232   1 H      0.069  0.931  0.000  0.000     2.096     2.264
 233   1 H      0.059  0.941  0.000  0.000     2.208     2.324
 234   1 H      0.053  0.947  0.000  0.000     2.287     2.365
 235   1 H      0.064  0.936  0.000  0.000     2.153     2.294
 236   7 N     -0.189  1.256  3.933  0.000    25.105     7.441
 237   6 C      0.041  1.053  2.906  0.000    19.877     6.345
 238   6 C      0.280  1.044  2.676  0.000    22.265     7.727
 239   8 O     -0.500  1.725  4.775  0.000    23.786     6.539
 240   6 C     -0.116  1.062  3.054  0.000    22.712     6.784
 241   6 C      0.296  1.033  2.671  0.000    21.974     7.676
 242   8 O     -0.490  1.750  4.740  0.000    23.566     6.509
 243   7 N     -0.271  1.255  4.015  0.000    27.008     7.718
 244   1 H      0.245  0.755  0.000  0.000     0.902     1.487
 245   1 H      0.078  0.922  0.000  0.000     1.999     2.211
 246   1 H      0.087  0.913  0.000  0.000     1.904     2.158
 247   1 H      0.107  0.893  0.000  0.000     1.722     2.052
 248   1 H      0.218  0.782  0.000  0.000     1.020     1.582
 249   1 H      0.225  0.775  0.000  0.000     0.989     1.557
 250   7 N     -0.195  1.257  3.937  0.000    25.221     7.459
 251   6 C      0.033  1.056  2.912  0.000    20.001     6.363
 252   6 C      0.265  1.044  2.691  0.000    22.525     7.773
 253   8 O     -0.498  1.745  4.753  0.000    23.739     6.533
 254   6 C     -0.003  1.058  2.944  0.000    20.627     6.466
 255  16 S     -0.285  1.925  4.284  0.076   153.350    20.842
 256   1 H      0.244  0.756  0.000  0.000     0.906     1.491
 257   1 H      0.080  0.920  0.000  0.000     1.979     2.200
 258   1 H      0.050  0.950  0.000  0.000     2.315     2.380
 259   1 H      0.060  0.940  0.000  0.000     2.194     2.316
 260   1 H      0.178  0.822  0.000  0.000     1.218     1.726
 261   7 N     -0.187  1.250  3.938  0.000    25.063     7.435
 262   6 C      0.029  1.059  2.912  0.000    20.073     6.377
 263   6 C      0.273  1.045  2.682  0.000    22.386     7.748
 264   8 O     -0.510  1.743  4.767  0.000    24.014     6.570
 265   6 C     -0.017  1.058  2.959  0.000    20.848     6.494
 266   6 C     -0.121  1.039  3.082  0.000    22.871     6.819
 267   6 C     -0.117  1.038  3.079  0.000    22.794     6.807
 268   1 H      0.235  0.765  0.000  0.000     0.945     1.523
 269   1 H      0.063  0.937  0.000  0.000     2.164     2.300
 270   1 H      0.047  0.953  0.000  0.000     2.357     2.401
 271   1 H      0.052  0.948  0.000  0.000     2.300     2.372
 272   1 H      0.040  0.960  0.000  0.000     2.451     2.448
 273   1 H      0.062  0.938  0.000  0.000     2.171     2.304
 274   1 H      0.053  0.947  0.000  0.000     2.286     2.364
 275   1 H      0.057  0.943  0.000  0.000     2.229     2.335
 276   1 H      0.028  0.972  0.000  0.000     2.615     2.529
 277   7 N     -0.197  1.256  3.941  0.000    25.275     7.467
 278   6 C      0.024  1.063  2.913  0.000    20.172     6.395
 279   6 C      0.271  1.045  2.684  0.000    22.425     7.755
 280   8 O     -0.496  1.738  4.757  0.000    23.691     6.526
 281   6 C     -0.020  1.065  2.955  0.000    20.898     6.502
 282   6 C     -0.064  1.050  3.014  0.000    21.731     6.637
 283   6 C     -0.118  1.040  3.078  0.000    22.813     6.810
 284   6 C     -0.108  1.037  3.071  0.000    22.625     6.783
 285   1 H      0.247  0.753  0.000  0.000     0.895     1.482
 286   1 H      0.062  0.938  0.000  0.000     2.181     2.310
 287   1 H      0.049  0.951  0.000  0.000     2.332     2.388
 288   1 H      0.039  0.961  0.000  0.000     2.468     2.457
 289   1 H      0.048  0.952  0.000  0.000     2.345     2.395
 290   1 H      0.066  0.934  0.000  0.000     2.128     2.281
 291   1 H      0.040  0.960  0.000  0.000     2.445     2.445
 292   1 H      0.039  0.961  0.000  0.000     2.464     2.455
 293   1 H      0.044  0.956  0.000  0.000     2.398     2.422
 294   1 H      0.039  0.961  0.000  0.000     2.460     2.453
 295   1 H      0.045  0.955  0.000  0.000     2.385     2.415
 296   7 N     -0.214  1.260  3.954  0.000    25.674     7.525
 297   6 C      0.024  1.060  2.916  0.000    20.164     6.393
 298   6 C      0.285  1.036  2.680  0.000    22.181     7.713
 299   8 O     -0.496  1.737  4.759  0.000    23.700     6.527
 300   6 C     -0.032  1.062  2.970  0.000    21.097     6.532
 301   6 C     -0.126  1.039  3.088  0.000    22.979     6.834
 302   6 C     -0.109  1.038  3.071  0.000    22.643     6.784
 303   1 H      0.253  0.747  0.000  0.000     0.870     1.461
 304   1 H      0.062  0.938  0.000  0.000     2.175     2.306
 305   1 H      0.073  0.927  0.000  0.000     2.050     2.239
 306   1 H      0.057  0.943  0.000  0.000     2.233     2.337
 307   1 H      0.063  0.937  0.000  0.000     2.161     2.299
 308   1 H      0.036  0.964  0.000  0.000     2.505     2.475
 309   1 H      0.058  0.942  0.000  0.000     2.224     2.332
 310   1 H      0.035  0.965  0.000  0.000     2.513     2.479
 311   1 H      0.041  0.959  0.000  0.000     2.435     2.440
 312   7 N     -0.185  1.249  3.936  0.000    25.012     7.428
 313   6 C      0.026  1.061  2.913  0.000    20.137     6.390
 314   6 C      0.287  1.038  2.676  0.000    22.142     7.706
 315   8 O     -0.500  1.759  4.741  0.000    23.785     6.539
 316   6 C     -0.090  1.059  3.032  0.000    22.204     6.706
 317   6 C     -0.010  1.051  2.959  0.000    20.726     6.475
 318   6 C     -0.119  1.037  3.082  0.000    22.819     6.809
 319   6 C     -0.112  1.041  3.071  0.000    22.700     6.792
 320   1 H      0.218  0.782  0.000  0.000     1.019     1.582
 321   1 H      0.069  0.931  0.000  0.000     2.097     2.265
 322   1 H      0.079  0.921  0.000  0.000     1.989     2.206
 323   1 H      0.057  0.943  0.000  0.000     2.239     2.340
 324   1 H      0.023  0.977  0.000  0.000     2.684     2.562
 325   1 H      0.038  0.962  0.000  0.000     2.475     2.460
 326   1 H      0.031  0.969  0.000  0.000     2.575     2.509
 327   1 H      0.051  0.949  0.000  0.000     2.302     2.373
 328   1 H      0.044  0.956  0.000  0.000     2.400     2.422
 329   1 H      0.050  0.950  0.000  0.000     2.320     2.382
 330   1 H      0.036  0.964  0.000  0.000     2.509     2.477
 331   7 N     -0.212  1.267  3.945  0.000    25.618     7.517
 332   6 C      0.045  1.054  2.901  0.000    19.818     6.338
 333   6 C      0.281  1.039  2.679  0.000    22.236     7.721
 334   8 O     -0.536  1.760  4.777  0.000    24.604     6.650
 335   6 C     -0.098  1.062  3.036  0.000    22.353     6.730
 336   6 C      0.292  1.035  2.673  0.000    22.054     7.689
 337   8 O     -0.484  1.751  4.733  0.000    23.440     6.491
 338   7 N     -0.295  1.269  4.026  0.000    27.610     7.804
 339   1 H      0.234  0.766  0.000  0.000     0.950     1.527
 340   1 H      0.058  0.942  0.000  0.000     2.226     2.333
 341   1 H      0.091  0.909  0.000  0.000     1.870     2.139
 342   1 H      0.060  0.940  0.000  0.000     2.198     2.319
 343   1 H      0.241  0.759  0.000  0.000     0.921     1.503
 344   1 H      0.232  0.768  0.000  0.000     0.958     1.533
 345   7 N     -0.201  1.256  3.945  0.000    25.371     7.481
 346   6 C      0.027  1.064  2.909  0.000    20.126     6.388
 347   6 C      0.279  1.042  2.679  0.000    22.281     7.730
 348   8 O     -0.523  1.753  4.770  0.000    24.297     6.609
 349   6 C     -0.018  1.062  2.956  0.000    20.864     6.497
 350   6 C     -0.117  1.040  3.077  0.000    22.796     6.808
 351   6 C     -0.123  1.042  3.081  0.000    22.920     6.826
 352   1 H      0.246  0.754  0.000  0.000     0.899     1.485
 353   1 H      0.059  0.941  0.000  0.000     2.206     2.323
 354   1 H      0.045  0.955  0.000  0.000     2.387     2.416
 355   1 H      0.064  0.936  0.000  0.000     2.150     2.293
 356   1 H      0.029  0.971  0.000  0.000     2.600     2.521
 357   1 H      0.049  0.951  0.000  0.000     2.338     2.391
 358   1 H      0.052  0.948  0.000  0.000     2.296     2.369
 359   1 H      0.049  0.951  0.000  0.000     2.334     2.389
 360   1 H      0.063  0.937  0.000  0.000     2.164     2.300
 361   7 N     -0.195  1.252  3.943  0.000    25.237     7.461
 362   6 C      0.032  1.059  2.909  0.000    20.057     6.379
 363   6 C      0.228  1.083  2.689  0.000    23.212     7.890
 364   8 O     -0.355  1.740  4.615  0.000    20.803     6.115
 365   6 C      0.079  1.039  2.882  0.000    19.477     6.321
 366   8 O     -0.483  1.735  4.747  0.000    22.521     6.406
 367   1 H      0.245  0.755  0.000  0.000     0.902     1.488
 368   1 H      0.087  0.913  0.000  0.000     1.906     2.159
 369   1 H      0.056  0.944  0.000  0.000     2.250     2.346
 370   1 H      0.067  0.933  0.000  0.000     2.122     2.278
 371   1 H      0.348  0.652  0.000  0.000     0.593     1.210
 372   7 N     -0.388  1.307  4.082  0.000    30.054     8.142
 373   6 C      0.041  1.054  2.905  0.000    19.892     6.351
 374   6 C      0.200  1.087  2.713  0.000    23.747     7.981
 375   8 O     -0.385  1.755  4.631  0.000    21.391     6.201
 376   6 C     -0.021  1.066  2.956  0.000    20.915     6.504
 377   6 C     -0.075  1.048  3.027  0.000    21.923     6.666
 378   6 C     -0.129  1.040  3.088  0.000    23.013     6.838
 379   6 C     -0.113  1.038  3.075  0.000    22.730     6.799
 380   1 H      0.164  0.836  0.000  0.000     1.308     1.792
 381   1 H      0.051  0.949  0.000  0.000     2.311     2.377
 382   1 H      0.046  0.954  0.000  0.000     2.376     2.411
 383   1 H      0.041  0.959  0.000  0.000     2.432     2.439
 384   1 H      0.046  0.954  0.000  0.000     2.370     2.408
 385   1 H      0.058  0.942  0.000  0.000     2.224     2.332
 386   1 H      0.041  0.959  0.000  0.000     2.437     2.441
 387   1 H      0.039  0.961  0.000  0.000     2.462     2.454
 388   1 H      0.041  0.959  0.000  0.000     2.437     2.441
 389   1 H      0.037  0.963  0.000  0.000     2.492     2.469
 390   1 H      0.045  0.955  0.000  0.000     2.387     2.416
 391   7 N     -0.384  1.313  4.071  0.000    29.945     8.127
 392   6 C      0.042  1.053  2.906  0.000    19.892     6.353
 393   6 C      0.200  1.094  2.706  0.000    23.735     7.979
 394   8 O     -0.387  1.761  4.626  0.000    21.421     6.205
 395   6 C     -0.071  1.060  3.012  0.000    21.857     6.655
 396   6 C     -0.008  1.055  2.953  0.000    20.682     6.468
 397   6 C     -0.113  1.041  3.072  0.000    22.718     6.795
 398   6 C     -0.114  1.039  3.075  0.000    22.739     6.799
 399   1 H      0.158  0.842  0.000  0.000     1.348     1.818
 400   1 H      0.051  0.949  0.000  0.000     2.307     2.375
 401   1 H      0.046  0.954  0.000  0.000     2.373     2.409
 402   1 H      0.045  0.955  0.000  0.000     2.388     2.417
 403   1 H      0.033  0.967  0.000  0.000     2.546     2.495
 404   1 H      0.041  0.959  0.000  0.000     2.430     2.438
 405   1 H      0.036  0.964  0.000  0.000     2.507     2.476
 406   1 H      0.044  0.956  0.000  0.000     2.399     2.422
 407   1 H      0.042  0.958  0.000  0.000     2.423     2.434
 408   1 H      0.043  0.957  0.000  0.000     2.415     2.430
 409   1 H      0.035  0.965  0.000  0.000     2.517     2.481
 410   1 H      0.180  0.820  0.000  0.000     1.216     1.728
 411   1 H      0.074  0.926  0.000  0.000     2.043     2.235
 412   1 H      0.189  0.811  0.000  0.000     1.163     1.690
 413   1 H      0.078  0.922  0.000  0.000     2.000     2.211
 414   1 H      0.178  0.822  0.000  0.000     1.225     1.734
 415   1 H      0.075  0.925  0.000  0.000     2.033     2.229
 416   1 H      0.179  0.821  0.000  0.000     1.219     1.729
 417   1 H      0.075  0.925  0.000  0.000     2.033     2.230
 418   1 H      0.179  0.821  0.000  0.000     1.222     1.732
 419   1 H      0.100  0.900  0.000  0.000     1.785     2.089
 420   1 H      0.178  0.822  0.000  0.000     1.223     1.732
 421   1 H      0.074  0.926  0.000  0.000     2.045     2.236
 422   1 H      0.186  0.814  0.000  0.000     1.178     1.700
 423   1 H      0.076  0.924  0.000  0.000     2.023     2.224
 424   1 H      0.184  0.816  0.000  0.000     1.190     1.709
 425   1 H      0.060  0.940  0.000  0.000     2.195     2.317
 426   1 H      0.176  0.824  0.000  0.000     1.237     1.742
 427   1 H      0.068  0.932  0.000  0.000     2.110     2.271
 428   1 H      0.184  0.816  0.000  0.000     1.190     1.709
 429   1 H      0.079  0.921  0.000  0.000     1.989     2.205

 Mol. C6AA /au·bohr⁶  :    1622798.646153
 Mol. C8AA /au·bohr⁸  :   36546578.945401
 Mol. α(0) /au        :       1914.591619

 
molecular dipole:
                 x           y           z       tot (Debye)
 q only:      -11.646       8.857      29.567
   full:      -11.895       8.847      31.584      88.684
molecular quadrupole (traceless):
                xx          xy          yy          xz          yz          zz
 q only:    -3317.305    -256.032     557.794    1769.030    3276.929    2759.512
  q+dip:    -3485.475    -242.445     486.313    1929.033    3450.807    2999.162
   full:    -3481.200    -243.034     490.215    1927.663    3450.362    2990.985
speedup  1.00
cpu  time for grad    8.85 s
wall time for grad    8.85 s

SCC energy    :    -616.8888877
rep           :       7.9371521
ES            :       1.3270291
AES           :       0.0266334
AXC           :       0.2550250
disp          :      -0.5805312
XB            :       0.0000000
fix           :       0.0000000
Gborn         :       0.0000000
Gsasa         :       0.0000000
Ghb           :       0.0000000
Gshift        :       0.0000000
Gsolv         :      -0.2394820     -150.28
Etot ala COSMO:    -616.8888877
grad norm     :       0.7254032
total E       :    -608.8918873
atomizationE  :     115.2821140    72340.62
(atE without considering molecular charge,
 total energy contains solvation terms)
H-L gap (eV)  :          1.2590

------------------------------------------------------------------------
 * finished run on 2019/03/14 at 15:07:45.495     
------------------------------------------------------------------------
 total:
 * wall-time:     0 d,  0 h,  0 min,  9.571 sec
 *  cpu-time:     0 d,  0 h,  0 min,  9.491 sec
 * ratio c/w:     0.992 speedup
 SCF:
 * wall-time:     0 d,  0 h,  0 min,  9.335 sec
 *  cpu-time:     0 d,  0 h,  0 min,  9.334 sec
 * ratio c/w:     1.000 speedup

