      -----------------------------------------------------------      
     |                   =====================                   |     
     |                           x T B                           |     
     |                   =====================                   |     
     |                         S. Grimme                         |     
     |          Mulliken Center for Theoretical Chemistry        |     
     |                    University of Bonn                     |     
     |                 Version 6.0.1 (SAW181210)                 |     
      -----------------------------------------------------------      

   This program is distributed in the hope that it will be useful,
   but WITHOUT ANY WARRANTY; without even the implied warranty of
   MERCHANTABILITY or FITNESS FOR A PARTICULAR PURPOSE.
   
   FOR NON-COMMERCIAL, ACADEMIA USE ONLY.
   
   Cite this work as:
   S. Grimme, C. Bannwarth, P. Shushkov, J. Comput. Theory Chem., 2017,
   13, 1989-2009.
   C. Bannwarth, S. Ehlert and S. Grimme., ChemRxiv, 2018, preprint.
   http://doi.org/10.26434/chemrxiv.7246238.v1
   
   for sTDA-xTB:
   S. Grimme and C. Bannwarth, J. Chem. Phys., 2016, 145, 054103.
   
   in the mass-spec context:
   V. Asgeirsson, C. Bauer and S. Grimme, Chem. Sci., 2017, 8, 4879.
   
   if GBSA is used:
   P. Shushkov, F. März and S. Grimme, unpublished.
   
   for ANC optimizer:
   S. Grimme, unpublished.
   Rational Function algorithm used in ANCopt:
   F. Eckert, P. Pulay, H.-J. Werner, J. Comput. Chem., 1997, 18, 1473.
   
   with help from (in alphabetical order)
   C. Bannwarth, F. Bohle, G. Brandenburg, E. Caldeweyher, M. Checinski,
   S. Dohm, S. Ehlert, S. Ehrlich, F. März, H. Neugebauer, J. Pisarek,
   P. Pracht, P. Shushkov, and S. Spicher.
   
 * started run on 2019/03/15 at 00:15:17.620     
========================================================================
 # omp threads = 1
========================================================================
number of atoms            : 378
number of electrons        : 1056
charge                     : 0
spin                       : .0
first test random number   : .7456
           ------------------------------------------------- 
          |                 G F N 2 - x T B                 |
          | Geometry, Frequencies, Noncovalent interactions |
          |            JCTC 2018 parametrisation            |
           ------------------------------------------------- 
 
      method parameters     
 k(s)        :  1.8500
 k(p)        :  2.2300
 k(d)        :  2.2300
 k(f)        :  2.0000
 kEN (H0ij)  : -2.0000
 D4 a1       :  0.5200
 D4 a2       :  5.0000
 D4 s6       :  1.0000
 D4 s8       :  2.7000
 D4 s9       :  5.0000
 alphaj      :  2.0000

 Solvent             : h2o
 Using internal parameter file: .param_gbsa2_h2o
 Gsolv ref. state (COSMO-RS): gsolv [1 M gas/solution]
 temperature (mdtemp)       :    298.150000000000     
 dielectric constant        :    80.2000000000000     
 rho                        :    1.00000000000000     
 mass                       :    18.0000000000000     
 surface tension            :    15.5689454083859     
 probe radius               :   0.975313790000000     
 vdW radii scaling          :    1.00000000000000     
 Gshift (Eh)                :   1.857443126794793E-003
 c1                         :    1.55243817000000     
 soset                      :   0.130326360000000     
 HB correction              :  T

            Z     q(EN)     CN     RAES       Cart. coordinates
     1  N   5.0   -0.22    3.31    1.98    75.61908    83.19275    44.06007
     2  C   4.0    0.03    4.31    4.22    78.23710    83.16263    44.60212
     3  C   4.0    0.08    3.23    3.04    78.51196    81.88838    47.20716
     4  O   6.0   -0.31    1.16    1.80    80.05457    80.26426    47.61350
     5  C   4.0   -0.05    4.45    4.46    79.33721    85.76204    44.58610
     6  C   4.0   -0.04    4.38    4.34    78.84187    87.32930    42.34120
     7  C   4.0    0.16    3.28    3.05    81.02361    87.47361    40.48957
     8  O   6.0   -0.31    1.25    1.80    80.62239    87.47529    38.20487
     9  N   5.0   -0.21    3.33    1.99    83.15338    87.59139    41.44420
    10  H   1.0    0.09    1.07    1.44    74.90584    84.79569    43.94113
    11  H   1.0    0.05    1.10    1.44    79.18737    82.16768    43.22632
    12  H   1.0    0.04    1.08    1.44    78.71421    86.68133    46.16336
    13  H   1.0    0.04    1.11    1.44    81.24992    85.64279    44.80854
    14  H   1.0    0.05    1.09    1.44    77.26356    86.65753    41.44960
    15  H   1.0    0.05    1.07    1.44    78.34946    89.12191    42.88800
    16  H   1.0    0.08    1.08    1.44    83.48262    87.59684    43.20678
    17  H   1.0    0.10    1.07    1.44    84.66625    87.70149    40.49319
    18  N   5.0   -0.22    3.21    1.96    78.34646    77.50229    52.54767
    19  C   4.0    0.03    4.31    4.23    78.31461    74.83746    53.03911
    20  C   4.0    0.09    3.21    3.04    75.83621    73.84736    54.22846
    21  O   6.0   -0.27    1.21    1.80    74.98104    71.93451    53.69038
    22  C   4.0   -0.04    4.36    4.31    80.90866    73.86924    53.81619
    23  C   4.0   -0.03    4.34    4.28    81.06185    71.29645    54.94279
    24  C   4.0    0.17    3.29    3.05    80.06885    69.21120    53.27074
    25  O   6.0   -0.27    1.37    1.80    78.32984    69.64286    51.87222
    26  N   5.0   -0.21    3.34    2.00    81.13619    67.10194    53.43684
    27  H   1.0    0.10    1.07    1.44    79.97555    78.17024    52.59165
    28  H   1.0    0.07    1.18    1.46    78.05838    73.74165    51.46348
    29  H   1.0    0.05    1.08    1.44    82.06479    73.91076    52.26045
    30  H   1.0    0.04    1.08    1.44    81.68595    75.15590    55.02623
    31  H   1.0    0.04    1.08    1.44    82.88381    70.89573    55.44994
    32  H   1.0    0.05    1.07    1.44    80.08430    71.28865    56.61198
    33  H   1.0    0.09    1.08    1.44    82.51438    66.74319    54.51419
    34  H   1.0    0.10    1.09    1.44    80.63990    65.68825    52.46480
    35  N   5.0   -0.21    3.28    1.98    70.43939    73.63954    50.22672
    36  C   4.0    0.04    4.32    4.23    71.01860    71.86898    48.30040
    37  C   4.0    0.10    3.23    3.04    69.65435    69.48471    49.12997
    38  O   6.0   -0.28    1.12    1.80    68.22900    68.36474    47.70000
    39  C   4.0   -0.05    4.42    4.41    73.70709    72.13402    47.35136
    40  C   4.0   -0.05    4.33    4.25    74.30446    70.81403    45.00209
    41  C   4.0   -0.01    4.36    4.31    76.05809    72.16151    43.27266
    42  N   5.0   -0.13    3.56    2.13    78.66326    72.20336    43.98371
    43  C   4.0    0.11    3.46    3.10    79.68801    73.86975    45.61834
    44  N   5.0   -0.17    3.57    2.13    78.38133    75.37891    46.52270
    45  N   5.0   -0.17    3.44    2.04    81.97692    73.74662    46.07076
    46  H   1.0    0.10    1.07    1.44    71.82571    74.13574    51.19027
    47  H   1.0    0.05    1.17    1.46    70.29335    72.07688    46.51371
    48  H   1.0    0.04    1.11    1.44    74.08553    74.00815    47.07882
    49  H   1.0    0.07    1.08    1.44    74.92050    71.56238    48.72178
    50  H   1.0    0.06    1.08    1.44    75.04826    69.08806    45.43585
    51  H   1.0    0.04    1.09    1.44    72.64315    70.41624    44.09851
    52  H   1.0    0.04    1.07    1.44    75.88148    71.43517    41.48785
    53  H   1.0    0.04    1.09    1.44    75.46347    73.99248    43.10391
    54  H   1.0    0.09    1.11    1.44    79.70459    70.96755    43.27230
    55  H   1.0    0.08    1.10    1.44    76.57478    75.62552    46.19965
    56  H   1.0    0.10    1.11    1.45    78.87932    76.67755    47.69908
    57  H   1.0    0.10    1.06    1.44    83.17693    72.57256    45.36930
    58  H   1.0    0.09    1.07    1.44    82.82408    74.86148    47.20752
    59  N   5.0   -0.21    3.34    2.00    73.05878    60.82084    33.31155
    60  C   4.0    0.03    4.37    4.33    74.22062    63.18671    32.72106
    61  C   4.0    0.15    3.47    3.10    74.79135    64.61150    35.11684
    62  O   6.0   -0.30    1.23    1.80    76.11597    66.48968    35.11675
    63  C   4.0   -0.07    4.24    4.09    72.65595    64.75138    31.01533
    64  H   1.0    0.09    1.08    1.44    71.53237    61.00345    34.17452
    65  H   1.0    0.05    1.11    1.45    75.88247    62.81172    31.78449
    66  H   1.0    0.05    1.04    1.43    73.53627    66.39341    30.56007
    67  H   1.0    0.05    1.04    1.43    72.26509    63.81659    29.38509
    68  H   1.0    0.05    1.05    1.44    70.99047    65.18018    31.86138
    69  N   5.0   -0.15    3.64    2.20    73.68690    63.72484    37.18087
    70  C   4.0    0.03    4.50    4.53    73.93466    64.67873    39.69438
    71  C   4.0    0.16    3.48    3.11    76.07831    63.34107    41.05273
    72  O   6.0   -0.29    1.28    1.80    76.25908    63.43297    43.34599
    73  C   4.0   -0.03    4.48    4.51    71.58591    64.29994    41.22358
    74  C   4.0   -0.01    3.65    3.20    69.30509    65.71299    40.43830
    75  C   4.0   -0.03    3.60    3.17    69.08602    68.28147    40.74916
    76  C   4.0   -0.03    3.61    3.17    67.17371    64.52310    39.53535
    77  C   4.0   -0.04    3.51    3.12    66.93547    69.51221    40.22359
    78  C   4.0   -0.04    3.51    3.12    65.05275    65.75482    39.03210
    79  C   4.0   -0.04    3.51    3.12    64.89935    68.26721    39.36603
    80  H   1.0    0.09    1.15    1.45    72.64440    62.30839    37.11184
    81  H   1.0    0.05    1.11    1.44    74.27474    66.58440    39.53455
    82  H   1.0    0.05    1.09    1.44    71.18885    62.41099    41.21736
    83  H   1.0    0.07    1.09    1.44    71.96551    64.70436    43.07735
    84  H   1.0    0.05    1.08    1.44    70.63029    69.20014    41.39399
    85  H   1.0    0.06    1.08    1.44    67.28622    62.63638    39.27321
    86  H   1.0    0.05    1.08    1.44    66.83099    71.41075    40.47340
    87  H   1.0    0.06    1.08    1.44    63.52429    64.79869    38.38725
    88  H   1.0    0.05    1.07    1.44    63.26830    69.19098    38.97087
    89  N   5.0   -0.14    3.55    2.11    77.67079    62.00945    39.67881
    90  C   4.0    0.04    4.52    4.56    79.74082    60.61388    40.72752
    91  C   4.0    0.16    3.47    3.10    82.16365    62.14777    40.84647
    92  O   6.0   -0.28    1.30    1.80    83.88240    61.70178    39.42626
    93  C   4.0   -0.02    4.41    4.40    80.23463    58.18830    39.34659
    94  C   4.0    0.25    3.14    3.03    78.23266    56.17887    39.66528
    95  O   6.0   -0.26    1.18    1.80    77.65735    55.55980    41.86213
    96  O   6.0   -0.27    1.17    1.80    77.26574    55.25995    37.72069
    97  H   1.0    0.10    1.13    1.45    77.55026    61.88234    37.92930
    98  H   1.0    0.07    1.13    1.45    79.18320    60.20656    42.54160
    99  H   1.0    0.07    1.08    1.44    80.45108    58.56477    37.46415
   100  H   1.0    0.06    1.08    1.44    81.94032    57.45529    39.89096
   101  N   5.0   -0.14    3.52    2.09    82.30338    63.97945    42.54624
   102  C   4.0    0.04    4.61    4.67    84.50430    65.50769    42.81196
   103  C   4.0    0.14    3.49    3.11    84.80348    66.46454    45.48056
   104  O   6.0   -0.30    1.26    1.80    83.24516    67.85605    46.39989
   105  C   4.0    0.06    4.35    4.29    84.59093    67.70262    40.96054
   106  O   6.0   -0.24    2.18    1.85    84.09001    66.78200    38.51485
   107  C   4.0   -0.07    4.21    4.01    87.07175    69.03613    41.06309
   108  H   1.0    0.11    1.11    1.45    80.98593    64.39729    43.63490
   109  H   1.0    0.06    1.13    1.45    85.99051    64.34934    42.36295
   110  H   1.0    0.05    1.09    1.44    83.19978    68.95028    41.49399
   111  H   1.0    0.13    1.06    1.44    84.09386    68.09493    37.42595
   112  H   1.0    0.05    1.04    1.43    87.11077    70.53230    39.85744
   113  H   1.0    0.06    1.04    1.43    87.45904    69.69359    42.82305
   114  H   1.0    0.05    1.06    1.44    88.48634    67.84479    40.55662
   115  N   5.0   -0.15    3.63    2.19    86.82233    65.69027    46.71709
   116  C   4.0    0.04    4.55    4.60    87.39854    66.35648    49.24858
   117  C   4.0    0.15    3.52    3.12    90.16588    66.93216    49.29801
   118  O   6.0   -0.30    1.31    1.80    91.58169    65.59300    48.09082
   119  C   4.0   -0.05    4.47    4.49    86.70658    64.21946    50.98699
   120  C   4.0   -0.04    4.38    4.35    84.15662    63.13314    50.52820
   121  C   4.0   -0.01    4.35    4.29    83.21042    61.34227    52.45314
   122  N   5.0   -0.14    3.64    2.20    83.08065    62.43780    54.90048
   123  C   4.0    0.09    3.48    3.10    85.03410    62.69831    56.51968
   124  N   5.0   -0.18    3.45    2.04    84.68859    63.73029    58.52715
   125  N   5.0   -0.18    3.55    2.11    87.03768    61.88167    55.89433
   126  H   1.0    0.10    1.13    1.45    88.02799    64.62475    46.00200
   127  H   1.0    0.05    1.11    1.45    86.35941    67.89280    49.81488
   128  H   1.0    0.05    1.08    1.44    88.03786    62.83179    50.81800
   129  H   1.0    0.05    1.10    1.44    86.82604    64.80769    52.82162
   130  H   1.0    0.06    1.10    1.44    82.89475    64.58450    50.35841
   131  H   1.0    0.05    1.08    1.44    84.14599    62.28887    48.78828
   132  H   1.0    0.05    1.07    1.44    81.48693    60.62874    51.92947
   133  H   1.0    0.05    1.08    1.44    84.36393    59.79545    52.52037
   134  H   1.0    0.08    1.12    1.45    81.50514    63.05236    55.40784
   135  H   1.0    0.08    1.06    1.44    83.11684    64.41225    59.16647
   136  H   1.0    0.09    1.08    1.44    85.97366    63.98669    59.77726
   137  H   1.0    0.08    1.08    1.44    87.43461    61.01570    54.32320
   138  H   1.0    0.09    1.08    1.44    88.54978    61.96340    56.88710
   139  N   5.0   -0.15    3.54    2.11    90.99773    68.85469    50.64423
   140  C   4.0    0.04    4.49    4.52    93.60713    69.50967    50.73725
   141  C   4.0    0.08    3.23    3.04    95.09126    68.48390    52.94214
   142  O   6.0   -0.28    1.16    1.80    96.75702    69.72044    53.90781
   143  C   4.0   -0.02    4.53    4.58    93.92968    72.27725    50.45921
   144  C   4.0    0.16    3.32    3.06    93.10191    73.29454    47.96614
   145  O   6.0   -0.29    1.30    1.80    91.29671    72.27679    46.93303
   146  N   5.0   -0.21    3.30    1.98    94.30509    75.05827    47.10895
   147  H   1.0    0.09    1.11    1.45    89.95543    69.92377    51.57651
   148  H   1.0    0.07    1.15    1.45    94.33756    68.61431    49.17922
   149  H   1.0    0.05    1.08    1.44    92.95073    73.16508    51.86963
   150  H   1.0    0.06    1.09    1.44    95.76869    72.77223    50.75723
   151  H   1.0    0.10    1.07    1.44    93.94681    75.84743    45.53091
   152  H   1.0    0.09    1.07    1.44    95.70621    75.85571    47.91338
   153  N   5.0   -0.23    3.26    1.97   104.70762    81.16518    36.24744
   154  C   4.0    0.03    4.41    4.39   103.61695    78.82258    35.44541
   155  C   4.0    0.16    3.48    3.11   101.20752    78.32394    36.93085
   156  O   6.0   -0.32    1.39    1.80    99.15011    78.20761    35.89602
   157  C   4.0   -0.03    4.38    4.34   105.37302    76.60706    35.65233
   158  C   4.0    0.25    3.14    3.03   104.37350    74.17126    34.48280
   159  O   6.0   -0.27    1.18    1.80   103.96716    74.16440    32.16995
   160  O   6.0   -0.28    1.17    1.80   103.98147    72.32976    35.89857
   161  H   1.0    0.09    1.07    1.44   105.91500    80.95832    37.51130
   162  H   1.0    0.06    1.11    1.45   103.18430    79.01632    33.56007
   163  H   1.0    0.05    1.07    1.44   107.07660    77.03424    34.84556
   164  H   1.0    0.05    1.08    1.44   105.77747    76.29314    37.51300
   165  N   5.0   -0.15    3.53    2.10   101.43630    78.04239    39.39573
   166  C   4.0    0.03    4.41    4.39    99.36252    77.63971    41.11458
   167  C   4.0    0.16    3.47    3.10    97.25434    79.61764    40.78197
   168  O   6.0   -0.31    1.24    1.80    95.02463    79.05422    40.90290
   169  C   4.0   -0.08    4.21    4.03   100.23171    77.52660    43.79246
   170  H   1.0    0.08    1.12    1.45   102.99723    78.11143    40.20233
   171  H   1.0    0.06    1.11    1.44    98.57719    75.92444    40.63839
   172  H   1.0    0.05    1.04    1.43    98.77129    77.21373    44.99901
   173  H   1.0    0.05    1.04    1.43   101.51877    76.12499    44.06160
   174  H   1.0    0.05    1.04    1.43   101.06158    79.18358    44.29723
   175  N   5.0   -0.16    3.58    2.14    97.99261    81.97240    40.40024
   176  C   4.0    0.04    4.55    4.61    96.29888    84.03448    39.98177
   177  C   4.0    0.17    3.49    3.11    94.93173    83.65714    37.46829
   178  O   6.0   -0.26    1.25    1.80    92.97236    84.71327    37.01259
   179  C   4.0    0.05    4.33    4.25    97.56858    86.64448    39.97540
   180  O   6.0   -0.24    2.15    1.85    95.70684    88.55019    39.97264
   181  C   4.0   -0.07    4.24    4.08    99.27674    86.91670    37.77642
   182  H   1.0    0.08    1.12    1.45    99.68946    82.43627    40.33447
   183  H   1.0    0.06    1.10    1.44    95.01085    84.02659    41.43895
   184  H   1.0    0.04    1.09    1.44    98.64193    86.77414    41.59562
   185  H   1.0    0.13    1.06    1.44    96.48095    90.07078    39.97106
   186  H   1.0    0.05    1.04    1.43   100.15404    88.62588    37.77424
   187  H   1.0    0.04    1.04    1.43   100.63335    85.56156    37.76037
   188  H   1.0    0.06    1.05    1.44    98.28262    86.76749    36.14070
   189  N   5.0   -0.14    3.55    2.12    96.08152    82.18479    35.77666
   190  C   4.0    0.04    4.52    4.56    95.04727    81.44843    33.34155
   191  C   4.0    0.16    3.60    3.17    92.93664    79.48902    33.31369
   192  O   6.0   -0.31    1.48    1.80    90.89749    79.90799    32.36870
   193  C   4.0   -0.05    4.52    4.56    97.00587    80.38504    31.61485
   194  C   4.0   -0.04    4.39    4.37    96.00797    78.80120    29.50002
   195  C   4.0   -0.00    4.35    4.29    95.49784    80.29681    27.18781
   196  N   5.0   -0.13    3.59    2.15    94.24689    82.66671    27.62451
   197  C   4.0    0.11    3.44    3.09    93.85308    84.51538    25.94581
   198  N   5.0   -0.17    3.43    2.04    92.75398    86.44871    26.62736
   199  N   5.0   -0.17    3.49    2.07    94.61530    84.25324    23.84036
   200  H   1.0    0.11    1.16    1.46    97.68027    81.50521    36.05635
   201  H   1.0    0.07    1.12    1.45    94.24763    83.11649    32.75265
   202  H   1.0    0.05    1.08    1.44    98.07216    81.81375    30.87441
   203  H   1.0    0.07    1.12    1.45    98.25431    79.36383    32.68579
   204  H   1.0    0.05    1.07    1.44    97.22096    77.33788    29.11067
   205  H   1.0    0.06    1.13    1.45    94.38530    77.91398    30.07127
   206  H   1.0    0.05    1.08    1.44    97.16404    80.64439    26.27098
   207  H   1.0    0.07    1.08    1.44    94.45559    79.26020    25.92572
   208  H   1.0    0.10    1.14    1.45    93.64470    82.89703    29.26751
   209  H   1.0    0.11    1.06    1.44    92.09498    86.78444    28.28371
   210  H   1.0    0.10    1.07    1.44    92.40849    87.83984    25.53721
   211  H   1.0    0.09    1.08    1.44    95.49371    82.79298    23.18368
   212  H   1.0    0.09    1.08    1.44    94.42885    85.46517    22.50710
   213  N   5.0   -0.15    3.58    2.14    93.48361    77.30567    34.40526
   214  C   4.0    0.03    4.49    4.53    91.72187    75.28849    34.80726
   215  C   4.0    0.16    3.51    3.12    89.34085    76.12684    36.17184
   216  O   6.0   -0.31    1.31    1.80    87.24896    75.54495    35.38711
   217  C   4.0   -0.05    4.53    4.58    92.87841    73.12871    36.22324
   218  C   4.0   -0.05    4.37    4.34    95.47052    72.31469    35.58398
   219  C   4.0   -0.01    4.39    4.36    96.25574    70.39515    37.40419
   220  N   5.0   -0.14    3.68    2.24    94.29428    68.55989    37.69838
   221  C   4.0    0.10    3.44    3.09    93.81597    67.11381    39.73254
   222  N   5.0   -0.17    3.50    2.07    95.08171    67.28652    41.51956
   223  N   5.0   -0.18    3.47    2.06    91.98951    65.65544    39.60131
   224  H   1.0    0.10    1.14    1.45    95.09855    76.94456    35.00150
   225  H   1.0    0.05    1.11    1.45    91.20679    74.72662    33.02181
   226  H   1.0    0.05    1.10    1.44    92.84935    73.57197    38.10371
   227  H   1.0    0.05    1.10    1.44    91.71903    71.58947    36.06945
   228  H   1.0    0.05    1.08    1.44    95.55101    71.62150    33.78026
   229  H   1.0    0.06    1.08    1.44    96.67583    73.82809    35.56965
   230  H   1.0    0.06    1.07    1.44    97.91440    69.54866    36.87821
   231  H   1.0    0.05    1.08    1.44    96.64821    71.20856    39.11486
   232  H   1.0    0.08    1.13    1.45    93.24435    68.38455    36.28936
   233  H   1.0    0.09    1.08    1.44    96.53874    68.39768    41.74680
   234  H   1.0    0.10    1.08    1.44    94.89166    66.33348    43.06385
   235  H   1.0    0.09    1.06    1.44    90.86731    65.42692    38.18975
   236  H   1.0    0.09    1.07    1.44    91.50495    64.55642    40.94320
   237  N   5.0   -0.15    3.51    2.09    89.60005    77.43279    38.26366
   238  C   4.0    0.04    4.61    4.68    87.47929    78.30615    39.72335
   239  C   4.0    0.16    3.58    3.15    85.40671    79.43839    38.10787
   240  O   6.0   -0.30    1.25    1.80    83.26259    78.60979    38.21252
   241  C   4.0   -0.02    4.39    4.36    88.15741    80.08315    41.88844
   242  C   4.0   -0.07    4.31    4.21    85.96444    81.69498    42.59263
   243  C   4.0   -0.07    4.24    4.07    89.09577    78.64204    44.11188
   244  H   1.0    0.10    1.11    1.45    91.16204    77.90356    38.92481
   245  H   1.0    0.06    1.12    1.45    86.74427    76.68745    40.50735
   246  H   1.0    0.06    1.11    1.45    89.57307    81.25392    41.25493
   247  H   1.0    0.05    1.04    1.43    86.41919    82.92469    43.99400
   248  H   1.0    0.05    1.06    1.44    85.33021    82.72271    41.09799
   249  H   1.0    0.06    1.04    1.44    84.51082    80.60650    43.21264
   250  H   1.0    0.05    1.04    1.43    89.59531    79.81342    45.54952
   251  H   1.0    0.05    1.04    1.43    87.73100    77.46128    44.76437
   252  H   1.0    0.06    1.04    1.43    90.62968    77.57740    43.66670
   253  N   5.0   -0.15    3.54    2.11    86.01479    81.35227    36.61012
   254  C   4.0    0.03    4.53    4.58    84.25203    82.59859    34.95652
   255  C   4.0    0.16    3.56    3.14    83.97481    81.33519    32.37041
   256  O   6.0   -0.30    1.37    1.80    82.02238    81.48012    31.10673
   257  C   4.0   -0.02    4.36    4.31    84.78852    85.38900    34.67304
   258  C   4.0    0.26    3.16    3.03    87.11883    85.98041    33.12770
   259  O   6.0   -0.25    1.22    1.80    89.13807    84.98749    33.77961
   260  O   6.0   -0.27    1.17    1.80    86.88684    87.43032    31.27614
   261  H   1.0    0.11    1.12    1.45    87.64389    82.01129    36.51171
   262  H   1.0    0.05    1.15    1.45    82.53065    82.38852    35.82980
   263  H   1.0    0.06    1.07    1.44    83.27246    86.29271    33.88591
   264  H   1.0    0.06    1.07    1.44    84.97839    86.20162    36.41583
   265  N   5.0   -0.13    3.71    2.28    85.93925    80.11401    31.56042
   266  C   4.0    0.05    4.54    4.60    86.08941    78.93634    29.14523
   267  C   4.0    0.18    3.56    3.14    83.77838    77.23685    29.18147
   268  O   6.0   -0.28    1.22    1.80    82.30782    77.08638    27.43977
   269  C   4.0   -0.03    4.42    4.42    88.57962    77.59869    28.77887
   270  C   4.0    0.25    3.13    3.03    89.54940    77.39841    26.10065
   271  O   6.0   -0.29    1.19    1.80    91.63383    76.33693    25.75183
   272  O   6.0   -0.26    1.20    1.80    88.18303    78.24867    24.38601
   273  H   1.0    0.13    1.17    1.46    87.39677    79.88100    32.52462
   274  H   1.0    0.08    1.11    1.45    85.99333    80.15518    27.62741
   275  H   1.0    0.09    1.19    1.46    89.92970    78.47314    29.85226
   276  H   1.0    0.06    1.08    1.44    88.45104    75.82658    29.52966
   277  N   5.0   -0.15    3.57    2.13    83.45200    75.95314    31.32762
   278  C   4.0    0.04    4.36    4.30    81.30307    74.42735    31.99740
   279  C   4.0    0.16    3.39    3.08    78.71097    75.72643    32.57274
   280  O   6.0   -0.31    1.32    1.80    76.73617    74.77784    31.82835
   281  C   4.0   -0.07    4.19    3.99    81.98543    72.49055    33.94140
   282  H   1.0    0.11    1.15    1.45    84.68042    75.96884    32.58590
   283  H   1.0    0.06    1.13    1.45    80.88342    73.59722    30.29611
   284  H   1.0    0.06    1.04    1.43    80.48022    71.38570    34.39381
   285  H   1.0    0.05    1.04    1.43    83.38899    71.33175    33.32252
   286  H   1.0    0.06    1.04    1.43    82.59839    73.33864    35.55083
   287  N   5.0   -0.16    3.51    2.09    78.78012    77.88041    33.99291
   288  C   4.0    0.05    4.43    4.43    76.43724    79.07133    34.84264
   289  C   4.0    0.15    3.54    3.13    74.84392    79.66623    32.63542
   290  O   6.0   -0.27    1.12    1.80    72.24113    79.00673    32.99516
   291  C   4.0    0.03    4.25    4.09    77.46049    81.72774    36.17976
   292  O   6.0   -0.25    2.07    1.83    74.98805    82.86789    37.07026
   293  C   4.0   -0.07    4.30    4.20    78.59293    83.37387    34.27822
   294  H   1.0    0.11    1.13    1.45    80.15136    78.65723    34.49044
   295  H   1.0    0.06    1.12    1.45    75.82541    78.25435    36.26988
   296  H   1.0    0.05    1.09    1.44    78.35747    81.24090    37.65012
   297  H   1.0    0.13    1.06    1.44    75.52028    84.24264    37.92910
   298  H   1.0    0.07    1.05    1.44    79.10112    85.05860    35.22799
   299  H   1.0    0.07    1.17    1.46    80.11663    82.59239    33.68368
   300  H   1.0    0.06    1.07    1.44    77.56206    83.75098    32.89894
   301  N   5.0   -0.17    3.63    2.19    75.66359    80.25624    30.41489
   302  C   4.0    0.04    4.58    4.65    74.16682    80.39472    28.14323
   303  C   4.0    0.14    3.70    3.23    73.66731    77.89149    27.06906
   304  O   6.0   -0.29    1.26    1.80    71.24354    77.62471    25.96062
   305  C   4.0   -0.03    4.47    4.49    76.13275    81.43819    26.12465
   306  C   4.0   -0.08    4.22    4.04    74.38252    81.55682    23.57665
   307  C   4.0   -0.08    4.23    4.07    77.07250    84.01475    26.72998
   308  H   1.0    0.11    1.19    1.46    77.19492    80.59102    30.35789
   309  H   1.0    0.06    1.18    1.46    73.14575    81.57331    28.55804
   310  H   1.0    0.06    1.17    1.46    77.22681    80.34040    25.83441
   311  H   1.0    0.05    1.04    1.43    75.65855    82.04658    22.21753
   312  H   1.0    0.06    1.06    1.44    73.95906    79.81967    23.10150
   313  H   1.0    0.06    1.05    1.44    73.00362    82.49754    23.73734
   314  H   1.0    0.05    1.07    1.44    77.92858    84.72402    25.32367
   315  H   1.0    0.05    1.06    1.44    75.66870    85.20802    26.85659
   316  H   1.0    0.06    1.08    1.44    77.92780    83.96802    28.21715
   317  N   5.0   -0.14    3.69    2.26    75.10931    76.07516    27.34801
   318  C   4.0    0.04    4.50    4.54    74.77218    73.61007    26.34099
   319  C   4.0    0.18    3.63    3.19    72.24939    72.76415    27.31926
   320  O   6.0   -0.29    1.25    1.80    70.80327    71.53737    26.03619
   321  C   4.0   -0.07    4.26    4.11    76.80913    71.84998    27.06641
   322  H   1.0    0.11    1.17    1.46    76.59919    76.22972    28.28319
   323  H   1.0    0.06    1.11    1.45    74.77969    73.65997    24.39917
   324  H   1.0    0.05    1.04    1.43    76.54681    70.11434    26.28968
   325  H   1.0    0.06    1.04    1.43    78.52571    72.49382    26.49474
   326  H   1.0    0.07    1.05    1.44    76.85954    71.64166    28.97155
   327  N   5.0   -0.16    3.65    2.21    71.77636    73.44226    29.75588
   328  C   4.0    0.04    4.45    4.47    69.18475    72.54356    30.61538
   329  C   4.0    0.06    3.48    3.11    67.61463    74.57841    29.75346
   330  O   6.0   -0.25    1.63    1.81    66.15433    73.75922    27.47954
   331  C   4.0   -0.03    4.62    4.69    69.12941    73.30993    33.70421
   332  C   4.0   -0.05    4.36    4.31    71.36643    72.45408    34.90963
   333  C   4.0   -0.09    4.33    4.25    66.70397    72.04240    34.48375
   334  C   4.0   -0.08    4.24    4.08    71.48857    73.77585    37.47070
   335  H   1.0    0.13    1.14    1.45    72.73846    74.26845    30.59791
   336  H   1.0    0.05    1.16    1.45    69.31785    71.01696    30.66083
   337  H   1.0    0.05    1.18    1.46    68.72806    75.02413    33.58697
   338  H   1.0    0.05    1.15    1.45    71.36990    70.87399    35.29775
   339  H   1.0    0.07    1.13    1.45    72.86231    72.86053    34.07344
   340  H   1.0    0.05    1.10    1.44    66.61980    72.38359    36.15563
   341  H   1.0    0.05    1.07    1.44    65.26805    72.56601    33.63068
   342  H   1.0    0.05    1.06    1.44    66.90662    70.20935    34.15689
   343  H   1.0    0.04    1.06    1.44    72.87798    73.40553    38.44336
   344  H   1.0    0.06    1.05    1.44    71.50788    75.67501    37.31044
   345  H   1.0    0.04    1.05    1.44    69.90284    73.54071    38.45853
   346  N   5.0   -0.21    3.48    2.06    66.32546    77.07735    25.73256
   347  C   4.0    0.04    4.14    3.87    65.17163    76.53352    22.76252
   348  C   4.0    0.14    3.51    3.12    64.04039    74.27857    23.11616
   349  O   6.0   -0.24    0.98    1.80    61.37798    74.12680    21.74368
   350  C   4.0    0.00    4.09    3.78    67.93260    76.04410    21.43134
   351  O   6.0   -0.24    1.98    1.82    66.65836    75.02259    18.86492
   352  H   1.0    0.16    1.14    1.45    67.69688    77.03589    25.83169
   353  H   1.0    0.06    1.14    1.45    64.55988    77.85114    22.41007
   354  H   1.0    0.06    1.09    1.44    68.36449    77.48550    20.89937
   355  H   1.0    0.07    1.07    1.44    68.82387    74.88274    22.17855
   356  H   1.0    0.14    1.06    1.44    68.12179    74.58313    18.11877
   357  N   5.0   -0.17    3.61    2.17    64.89841    72.06856    24.09550
   358  C   4.0    0.05    4.25    4.09    63.33565    69.63046    23.95330
   359  C   4.0    0.07    3.23    3.04    61.19196    69.73542    25.45475
   360  O   6.0   -0.24    1.03    1.80    59.01670    68.41946    24.37199
   361  C   4.0   -0.07    4.19    3.99    65.40360    67.73550    25.21515
   362  H   1.0    0.16    1.29    1.49    66.04841    72.21616    24.79510
   363  H   1.0    0.07    1.17    1.46    63.46815    69.19671    22.43396
   364  H   1.0    0.05    1.02    1.43    64.25798    66.01347    25.02089
   365  H   1.0    0.06    1.05    1.44    66.77791    67.48992    24.14111
   366  H   1.0    0.06    1.05    1.44    65.79100    68.04966    26.80668
   367  H   1.0    0.10    1.08    1.44    75.33893    82.42222    42.56998
   368  H   1.0    0.05    1.05    1.44    77.38582    82.40358    48.63455
   369  H   1.0    0.10    1.08    1.44    77.69573    77.80298    51.00537
   370  H   1.0    0.06    1.05    1.44    74.92372    74.88837    55.51483
   371  H   1.0    0.10    1.08    1.44    69.78874    75.04675    49.52744
   372  H   1.0    0.07    1.05    1.44    69.91529    68.80499    50.87380
   373  H   1.0    0.10    1.08    1.44    72.74219    59.96930    31.87377
   374  H   1.0    0.06    1.05    1.44    94.70446    66.76416    53.62328
   375  H   1.0    0.10    1.08    1.44   105.46472    81.92106    34.92531
   376  H   1.0    0.06    1.05    1.44    67.62634    76.23292    30.66644
   377  H   1.0    0.11    1.05    1.44    65.84097    78.62134    26.25594
   378  H   1.0    0.07    1.04    1.43    61.23915    70.65254    27.10634

  Z AO/shell   Hii/eV     exponent
  1     Wed Apr 25 08:07:45 CEST 2018   EN: 2.200 GM2: 0.406  GM3: 0.0800  RAES: 1.40
     1s    -10.707211    1.230000
  6     Wed Apr 25 08:07:45 CEST 2018   EN: 2.550 GM2: 0.538  GM3: 0.1500  RAES: 3.00
     2s    -13.970922    2.096432
     2p    -10.063292    1.800000
  7     Wed Apr 25 08:07:45 CEST 2018   EN: 3.040 GM2: 0.461  GM3:-0.0640  RAES: 1.90
     2s    -16.686243    2.339881
     2p    -12.523956    2.014332
  8     Wed Apr 25 08:07:45 CEST 2018   EN: 3.440 GM2: 0.452  GM3:-0.0517  RAES: 1.80
     2s    -20.229985    2.439742
     2p    -15.503117    2.137023
 no old-style atom pair restraining (fixing) potential

molecular fragmentation (1/2 indicates fragments):
111111111111111112222222222222222222222222222222222222222222222222222222
222222222222222222222222222222222222222222222222222222222222222222222222
222222222222222222222222222222222222222222222222222222222222222222222222
222222222222222222222222222222222222222222222222222222222222222222222222
222222222222222222222222222222222222222222222222222222222222222222222222
222222112222222222
# atoms in fragment 1/2:    19   359
 fragment masses (1/2) :      130.15     2541.80
CMA distance (Bohr)    :  13.125
constraining FC (au)   :  0.0500
           ------------------------------------------------- 
          |        Self-Consistent Charge Iterations        |
           ------------------------------------------------- 

 Ncao       : 939
 Nao        : 939
 Nshell     : 565
 Nel        : 1056
 T(el)      :   500.0
 intcut     :    35.0
 scfconv/Eh :  0.100E-06
   qconv/e  :  0.100E-04
 intneglect :  0.100E-08
 broydamp   :      0.400
 iter      E             dE          RMSdq      gap      omega  full diag
   1   -610.4410933 -0.610441E+03  0.495E+00    1.52       0.0  T
   2   -611.9360754 -0.149498E+01  0.241E+00    0.13       1.0  T
   3   -611.9314243  0.465105E-02  0.184E+00    1.65       1.0  T
   4   -612.5071720 -0.575748E+00  0.619E-01    0.95       1.0  T
   5   -612.5365839 -0.294119E-01  0.264E-01    0.61       1.0  T
   6   -612.5188871  0.176968E-01  0.263E-01    0.30       1.0  T
   7   -612.5398975 -0.210103E-01  0.157E-01    0.46       1.0  T
   8   -612.5458570 -0.595957E-02  0.721E-02    0.51       1.0  T
   9   -612.5474648 -0.160773E-02  0.203E-02    0.40       1.0  T
  10   -612.5474986 -0.338187E-04  0.122E-02    0.40       1.0  T
  11   -612.5475274 -0.287918E-04  0.500E-03    0.40       1.0  T
  12   -612.5475294 -0.203282E-05  0.314E-03    0.40       1.6  T
  13   -612.5475317 -0.228304E-05  0.113E-03    0.40       4.5  T
  14   -612.5475319 -0.179456E-06  0.450E-04    0.40      11.4  T
  15   -612.5475319 -0.275423E-07  0.229E-04    0.40      22.5  T
  16   -612.5475319 -0.635941E-08  0.969E-05    0.40      53.1  T
  17   -612.5475319 -0.595719E-09  0.510E-05    0.40     100.9  T
speedup  1.00
cpu  time for SCC    6.21 s
wall time for SCC    6.21 s

   *** convergence criteria satisfied after 17 iterations ***

          eigenvalues
 #    :         516        517        518        519        520        521        522        523
 occ. :        2.000      2.000      2.000      2.000      2.000      2.000      2.000      2.000
 eps  :       -10.209    -10.208    -10.206    -10.178    -10.038     -9.934     -9.922     -9.920
 #    :         524        525        526        527        528        529        530        531
 occ. :        2.000      2.000      2.000      2.000      1.982      0.018      0.000      0.000
 eps  :        -9.885     -9.880     -9.604     -9.564     -9.153     -8.750     -8.168     -8.034
 #    :         532        533        534        535        536        537        538        539
 occ. :        0.000      0.000      0.000      0.000      0.000      0.000      0.000      0.000
 eps  :        -7.850     -7.575     -7.388     -7.256     -6.931     -6.737     -6.707     -6.676


   #   Z            q   n(s)   n(p)   n(d)      C6AA      α(0)
   1   7 N     -0.388  1.281  4.107  0.000    30.051     8.142
   2   6 C      0.027  1.034  2.939  0.000    20.128     6.389
   3   6 C      0.187  1.101  2.713  0.000    24.000     8.023
   4   8 O     -0.347  1.723  4.624  0.000    20.653     6.093
   5   6 C     -0.095  1.017  3.078  0.000    22.293     6.719
   6   6 C     -0.116  1.023  3.092  0.000    22.683     6.776
   7   6 C      0.294  1.016  2.690  0.000    22.011     7.682
   8   8 O     -0.560  1.765  4.795  0.000    25.151     6.724
   9   7 N     -0.248  1.210  4.038  0.000    26.457     7.639
  10   1 H      0.181  0.819  0.000  0.000     1.209     1.722
  11   1 H      0.060  0.940  0.000  0.000     2.193     2.316
  12   1 H      0.077  0.923  0.000  0.000     2.011     2.217
  13   1 H      0.065  0.935  0.000  0.000     2.135     2.285
  14   1 H      0.069  0.931  0.000  0.000     2.098     2.265
  15   1 H      0.086  0.914  0.000  0.000     1.921     2.167
  16   1 H      0.246  0.754  0.000  0.000     0.900     1.486
  17   1 H      0.210  0.790  0.000  0.000     1.056     1.610
  18   7 N     -0.403  1.304  4.099  0.000    30.457     8.196
  19   6 C     -0.005  1.035  2.970  0.000    20.680     6.477
  20   6 C      0.209  1.068  2.724  0.000    23.575     7.951
  21   8 O     -0.327  1.723  4.604  0.000    20.269     6.036
  22   6 C     -0.077  1.022  3.055  0.000    21.960     6.669
  23   6 C     -0.125  1.028  3.097  0.000    22.871     6.805
  24   6 C      0.289  1.012  2.699  0.000    22.097     7.697
  25   8 O     -0.501  1.748  4.753  0.000    23.795     6.540
  26   7 N     -0.270  1.215  4.054  0.000    26.983     7.715
  27   1 H      0.186  0.814  0.000  0.000     1.179     1.701
  28   1 H      0.082  0.918  0.000  0.000     1.955     2.186
  29   1 H      0.066  0.934  0.000  0.000     2.125     2.279
  30   1 H      0.070  0.930  0.000  0.000     2.083     2.257
  31   1 H      0.083  0.917  0.000  0.000     1.952     2.185
  32   1 H      0.072  0.928  0.000  0.000     2.068     2.249
  33   1 H      0.221  0.779  0.000  0.000     1.003     1.569
  34   1 H      0.222  0.778  0.000  0.000     1.001     1.567
  35   7 N     -0.389  1.295  4.094  0.000    30.054     8.142
  36   6 C      0.016  1.025  2.958  0.000    20.309     6.418
  37   6 C      0.203  1.086  2.711  0.000    23.685     7.971
  38   8 O     -0.396  1.765  4.630  0.000    21.595     6.230
  39   6 C     -0.094  1.024  3.070  0.000    22.279     6.717
  40   6 C     -0.100  1.012  3.087  0.000    22.386     6.733
  41   6 C     -0.030  1.016  3.014  0.000    21.162     6.559
  42   7 N     -0.195  1.184  4.011  0.000    25.235     7.461
  43   6 C      0.269  0.967  2.764  0.000    22.456     7.759
  44   7 N     -0.199  1.166  4.033  0.000    25.313     7.472
  45   7 N     -0.234  1.174  4.060  0.000    26.126     7.591
  46   1 H      0.181  0.819  0.000  0.000     1.211     1.723
  47   1 H      0.080  0.920  0.000  0.000     1.981     2.201
  48   1 H      0.059  0.941  0.000  0.000     2.209     2.324
  49   1 H      0.084  0.916  0.000  0.000     1.940     2.178
  50   1 H      0.075  0.925  0.000  0.000     2.034     2.230
  51   1 H      0.062  0.938  0.000  0.000     2.175     2.306
  52   1 H      0.074  0.926  0.000  0.000     2.043     2.235
  53   1 H      0.073  0.927  0.000  0.000     2.052     2.240
  54   1 H      0.206  0.794  0.000  0.000     1.073     1.623
  55   1 H      0.232  0.768  0.000  0.000     0.957     1.532
  56   1 H      0.247  0.753  0.000  0.000     0.894     1.481
  57   1 H      0.240  0.760  0.000  0.000     0.923     1.505
  58   1 H      0.253  0.747  0.000  0.000     0.870     1.461
  59   7 N     -0.422  1.312  4.110  0.000    30.988     8.268
  60   6 C      0.032  1.029  2.939  0.000    20.035     6.373
  61   6 C      0.266  1.041  2.694  0.000    22.515     7.771
  62   8 O     -0.494  1.739  4.756  0.000    23.661     6.522
  63   6 C     -0.136  0.996  3.140  0.000    23.137     6.853
  64   1 H      0.169  0.831  0.000  0.000     1.279     1.772
  65   1 H      0.059  0.941  0.000  0.000     2.206     2.323
  66   1 H      0.056  0.944  0.000  0.000     2.245     2.343
  67   1 H      0.061  0.939  0.000  0.000     2.190     2.314
  68   1 H      0.052  0.948  0.000  0.000     2.295     2.369
  69   7 N     -0.190  1.217  3.974  0.000    25.124     7.444
  70   6 C      0.019  1.039  2.942  0.000    20.256     6.407
  71   6 C      0.269  1.037  2.693  0.000    22.455     7.761
  72   8 O     -0.480  1.728  4.753  0.000    23.354     6.479
  73   6 C     -0.085  1.017  3.068  0.000    22.097     6.688
  74   6 C      0.002  1.073  2.925  0.000    27.984     8.678
  75   6 C     -0.047  1.059  2.988  0.000    29.166     8.859
  76   6 C     -0.047  1.056  2.991  0.000    29.164     8.858
  77   6 C     -0.035  1.055  2.980  0.000    28.868     8.813
  78   6 C     -0.036  1.053  2.984  0.000    28.894     8.817
  79   6 C     -0.041  1.057  2.984  0.000    29.014     8.836
  80   1 H      0.203  0.797  0.000  0.000     1.090     1.636
  81   1 H      0.101  0.899  0.000  0.000     1.772     2.082
  82   1 H      0.049  0.951  0.000  0.000     2.337     2.390
  83   1 H      0.098  0.902  0.000  0.000     1.799     2.097
  84   1 H      0.056  0.944  0.000  0.000     2.243     2.342
  85   1 H      0.029  0.971  0.000  0.000     2.597     2.520
  86   1 H      0.050  0.950  0.000  0.000     2.316     2.380
  87   1 H      0.039  0.961  0.000  0.000     2.460     2.453
  88   1 H      0.045  0.955  0.000  0.000     2.389     2.417
  89   7 N     -0.178  1.218  3.959  0.000    24.843     7.403
  90   6 C      0.027  1.036  2.937  0.000    20.122     6.385
  91   6 C      0.275  1.036  2.689  0.000    22.351     7.743
  92   8 O     -0.460  1.731  4.728  0.000    22.912     6.418
  93   6 C     -0.103  1.030  3.073  0.000    22.439     6.741
  94   6 C      0.371  1.018  2.611  0.000    20.708     7.447
  95   8 O     -0.652  1.768  4.884  0.000    27.420     7.021
  96   8 O     -0.662  1.780  4.882  0.000    27.705     7.057
  97   1 H      0.188  0.812  0.000  0.000     1.168     1.693
  98   1 H      0.082  0.918  0.000  0.000     1.953     2.185
  99   1 H      0.037  0.963  0.000  0.000     2.492     2.469
 100   1 H      0.057  0.943  0.000  0.000     2.231     2.336
 101   7 N     -0.169  1.209  3.961  0.000    24.667     7.376
 102   6 C     -0.003  1.042  2.961  0.000    20.622     6.463
 103   6 C      0.255  1.035  2.711  0.000    22.716     7.805
 104   8 O     -0.453  1.722  4.730  0.000    22.757     6.396
 105   6 C      0.112  1.023  2.865  0.000    18.817     6.189
 106   8 O     -0.489  1.712  4.776  0.000    22.648     6.424
 107   6 C     -0.178  1.004  3.174  0.000    24.009     6.983
 108   1 H      0.211  0.789  0.000  0.000     1.049     1.604
 109   1 H      0.087  0.913  0.000  0.000     1.905     2.158
 110   1 H      0.039  0.961  0.000  0.000     2.458     2.452
 111   1 H      0.319  0.681  0.000  0.000     0.665     1.280
 112   1 H      0.067  0.933  0.000  0.000     2.120     2.277
 113   1 H      0.086  0.914  0.000  0.000     1.917     2.165
 114   1 H      0.075  0.925  0.000  0.000     2.029     2.227
 115   7 N     -0.151  1.206  3.945  0.000    24.265     7.316
 116   6 C     -0.004  1.038  2.966  0.000    20.634     6.466
 117   6 C      0.268  1.031  2.702  0.000    22.481     7.766
 118   8 O     -0.476  1.736  4.741  0.000    23.261     6.466
 119   6 C     -0.111  1.024  3.087  0.000    22.594     6.764
 120   6 C     -0.111  1.016  3.096  0.000    22.611     6.767
 121   6 C     -0.036  1.015  3.021  0.000    21.267     6.576
 122   7 N     -0.212  1.188  4.024  0.000    25.618     7.517
 123   6 C      0.263  0.968  2.769  0.000    22.564     7.777
 124   7 N     -0.240  1.182  4.057  0.000    26.252     7.610
 125   7 N     -0.222  1.174  4.048  0.000    25.831     7.548
 126   1 H      0.221  0.779  0.000  0.000     1.006     1.571
 127   1 H      0.107  0.893  0.000  0.000     1.725     2.054
 128   1 H      0.082  0.918  0.000  0.000     1.955     2.187
 129   1 H      0.084  0.916  0.000  0.000     1.938     2.177
 130   1 H      0.080  0.920  0.000  0.000     1.980     2.200
 131   1 H      0.066  0.934  0.000  0.000     2.124     2.279
 132   1 H      0.088  0.912  0.000  0.000     1.902     2.157
 133   1 H      0.086  0.914  0.000  0.000     1.915     2.164
 134   1 H      0.217  0.783  0.000  0.000     1.022     1.584
 135   1 H      0.255  0.745  0.000  0.000     0.865     1.457
 136   1 H      0.269  0.731  0.000  0.000     0.815     1.414
 137   1 H      0.250  0.750  0.000  0.000     0.885     1.474
 138   1 H      0.264  0.736  0.000  0.000     0.829     1.426
 139   7 N     -0.152  1.210  3.942  0.000    24.282     7.319
 140   6 C      0.018  1.029  2.953  0.000    20.265     6.407
 141   6 C      0.195  1.079  2.726  0.000    23.839     7.996
 142   8 O     -0.359  1.757  4.603  0.000    20.884     6.127
 143   6 C     -0.133  1.024  3.109  0.000    23.011     6.823
 144   6 C      0.291  1.005  2.704  0.000    22.063     7.691
 145   8 O     -0.526  1.739  4.787  0.000    24.353     6.617
 146   7 N     -0.234  1.206  4.027  0.000    26.119     7.590
 147   1 H      0.231  0.769  0.000  0.000     0.961     1.536
 148   1 H      0.133  0.867  0.000  0.000     1.515     1.925
 149   1 H      0.104  0.896  0.000  0.000     1.752     2.070
 150   1 H      0.094  0.906  0.000  0.000     1.842     2.122
 151   1 H      0.221  0.779  0.000  0.000     1.003     1.569
 152   1 H      0.226  0.774  0.000  0.000     0.984     1.554
 153   7 N     -0.411  1.302  4.109  0.000    30.674     8.226
 154   6 C      0.037  1.032  2.930  0.000    19.952     6.360
 155   6 C      0.266  1.049  2.685  0.000    22.514     7.770
 156   8 O     -0.509  1.739  4.769  0.000    23.975     6.565
 157   6 C     -0.109  1.036  3.073  0.000    22.571     6.761
 158   6 C      0.367  1.020  2.613  0.000    20.769     7.458
 159   8 O     -0.660  1.779  4.881  0.000    27.632     7.048
 160   8 O     -0.644  1.765  4.880  0.000    27.238     6.997
 161   1 H      0.181  0.819  0.000  0.000     1.207     1.721
 162   1 H      0.045  0.955  0.000  0.000     2.388     2.416
 163   1 H      0.031  0.969  0.000  0.000     2.571     2.507
 164   1 H      0.034  0.966  0.000  0.000     2.532     2.488
 165   7 N     -0.175  1.219  3.955  0.000    24.778     7.393
 166   6 C      0.009  1.043  2.948  0.000    20.420     6.434
 167   6 C      0.270  1.041  2.689  0.000    22.446     7.758
 168   8 O     -0.474  1.731  4.743  0.000    23.212     6.460
 169   6 C     -0.164  1.002  3.162  0.000    23.716     6.939
 170   1 H      0.220  0.780  0.000  0.000     1.010     1.574
 171   1 H      0.097  0.903  0.000  0.000     1.812     2.105
 172   1 H      0.098  0.902  0.000  0.000     1.806     2.101
 173   1 H      0.094  0.906  0.000  0.000     1.840     2.121
 174   1 H      0.080  0.920  0.000  0.000     1.977     2.199
 175   7 N     -0.183  1.215  3.968  0.000    24.958     7.420
 176   6 C      0.003  1.050  2.946  0.000    20.519     6.448
 177   6 C      0.287  1.030  2.683  0.000    22.140     7.705
 178   8 O     -0.468  1.755  4.714  0.000    23.091     6.443
 179   6 C      0.114  1.025  2.861  0.000    18.788     6.185
 180   8 O     -0.497  1.713  4.784  0.000    22.830     6.450
 181   6 C     -0.160  0.999  3.160  0.000    23.627     6.927
 182   1 H      0.209  0.791  0.000  0.000     1.060     1.612
 183   1 H      0.107  0.893  0.000  0.000     1.725     2.054
 184   1 H      0.058  0.942  0.000  0.000     2.219     2.330
 185   1 H      0.350  0.650  0.000  0.000     0.587     1.203
 186   1 H      0.076  0.924  0.000  0.000     2.019     2.222
 187   1 H      0.066  0.934  0.000  0.000     2.129     2.281
 188   1 H      0.052  0.948  0.000  0.000     2.299     2.371
 189   7 N     -0.206  1.226  3.979  0.000    25.473     7.496
 190   6 C      0.020  1.038  2.942  0.000    20.238     6.405
 191   6 C      0.285  1.034  2.680  0.000    22.167     7.711
 192   8 O     -0.499  1.749  4.750  0.000    23.753     6.534
 193   6 C     -0.114  1.023  3.091  0.000    22.649     6.770
 194   6 C     -0.081  1.014  3.067  0.000    22.022     6.679
 195   6 C     -0.021  1.015  3.006  0.000    21.000     6.534
 196   7 N     -0.199  1.185  4.014  0.000    25.314     7.473
 197   6 C      0.274  0.967  2.759  0.000    22.372     7.744
 198   7 N     -0.249  1.183  4.066  0.000    26.483     7.643
 199   7 N     -0.227  1.178  4.050  0.000    25.963     7.568
 200   1 H      0.217  0.783  0.000  0.000     1.022     1.584
 201   1 H      0.072  0.928  0.000  0.000     2.064     2.247
 202   1 H      0.075  0.925  0.000  0.000     2.032     2.229
 203   1 H      0.106  0.894  0.000  0.000     1.733     2.059
 204   1 H      0.077  0.923  0.000  0.000     2.005     2.214
 205   1 H      0.053  0.947  0.000  0.000     2.280     2.361
 206   1 H      0.076  0.924  0.000  0.000     2.016     2.220
 207   1 H      0.077  0.923  0.000  0.000     2.012     2.218
 208   1 H      0.196  0.804  0.000  0.000     1.126     1.662
 209   1 H      0.227  0.773  0.000  0.000     0.979     1.550
 210   1 H      0.265  0.735  0.000  0.000     0.828     1.425
 211   1 H      0.252  0.748  0.000  0.000     0.874     1.465
 212   1 H      0.270  0.730  0.000  0.000     0.810     1.410
 213   7 N     -0.198  1.222  3.976  0.000    25.293     7.469
 214   6 C      0.016  1.037  2.948  0.000    20.311     6.416
 215   6 C      0.269  1.037  2.694  0.000    22.464     7.762
 216   8 O     -0.506  1.743  4.763  0.000    23.918     6.557
 217   6 C     -0.108  1.023  3.084  0.000    22.518     6.750
 218   6 C     -0.086  1.008  3.078  0.000    22.125     6.693
 219   6 C     -0.021  1.012  3.009  0.000    20.983     6.528
 220   7 N     -0.208  1.186  4.022  0.000    25.511     7.502
 221   6 C      0.269  0.965  2.766  0.000    22.452     7.758
 222   7 N     -0.196  1.168  4.028  0.000    25.252     7.463
 223   7 N     -0.251  1.181  4.070  0.000    26.511     7.647
 224   1 H      0.232  0.768  0.000  0.000     0.957     1.533
 225   1 H      0.067  0.933  0.000  0.000     2.119     2.276
 226   1 H      0.092  0.908  0.000  0.000     1.861     2.133
 227   1 H      0.090  0.910  0.000  0.000     1.881     2.145
 228   1 H      0.062  0.938  0.000  0.000     2.174     2.306
 229   1 H      0.064  0.936  0.000  0.000     2.149     2.293
 230   1 H      0.081  0.919  0.000  0.000     1.970     2.195
 231   1 H      0.085  0.915  0.000  0.000     1.932     2.173
 232   1 H      0.211  0.789  0.000  0.000     1.054     1.608
 233   1 H      0.261  0.739  0.000  0.000     0.842     1.437
 234   1 H      0.273  0.727  0.000  0.000     0.801     1.402
 235   1 H      0.239  0.761  0.000  0.000     0.928     1.509
 236   1 H      0.253  0.747  0.000  0.000     0.871     1.462
 237   7 N     -0.174  1.219  3.955  0.000    24.770     7.392
 238   6 C     -0.002  1.051  2.951  0.000    20.599     6.459
 239   6 C      0.283  1.036  2.680  0.000    22.203     7.716
 240   8 O     -0.485  1.730  4.755  0.000    23.453     6.493
 241   6 C     -0.029  1.036  2.994  0.000    21.055     6.525
 242   6 C     -0.146  0.997  3.149  0.000    23.336     6.882
 243   6 C     -0.160  1.003  3.157  0.000    23.631     6.925
 244   1 H      0.225  0.775  0.000  0.000     0.988     1.557
 245   1 H      0.114  0.886  0.000  0.000     1.663     2.017
 246   1 H      0.050  0.950  0.000  0.000     2.323     2.383
 247   1 H      0.078  0.922  0.000  0.000     2.001     2.212
 248   1 H      0.023  0.977  0.000  0.000     2.694     2.567
 249   1 H      0.076  0.924  0.000  0.000     2.020     2.223
 250   1 H      0.084  0.916  0.000  0.000     1.941     2.179
 251   1 H      0.083  0.917  0.000  0.000     1.946     2.181
 252   1 H      0.068  0.932  0.000  0.000     2.112     2.272
 253   7 N     -0.199  1.222  3.977  0.000    25.329     7.475
 254   6 C      0.031  1.039  2.930  0.000    20.044     6.374
 255   6 C      0.268  1.040  2.691  0.000    22.472     7.763
 256   8 O     -0.538  1.751  4.787  0.000    24.647     6.656
 257   6 C     -0.104  1.033  3.072  0.000    22.477     6.747
 258   6 C      0.362  1.018  2.620  0.000    20.866     7.476
 259   8 O     -0.616  1.762  4.853  0.000    26.515     6.904
 260   8 O     -0.669  1.777  4.892  0.000    27.875     7.079
 261   1 H      0.204  0.796  0.000  0.000     1.084     1.631
 262   1 H      0.083  0.917  0.000  0.000     1.949     2.183
 263   1 H      0.049  0.951  0.000  0.000     2.336     2.390
 264   1 H      0.058  0.942  0.000  0.000     2.218     2.329
 265   7 N     -0.182  1.229  3.953  0.000    24.940     7.417
 266   6 C      0.041  1.031  2.928  0.000    19.879     6.346
 267   6 C      0.289  1.041  2.671  0.000    22.112     7.702
 268   8 O     -0.506  1.739  4.767  0.000    23.908     6.556
 269   6 C     -0.129  1.041  3.088  0.000    22.962     6.820
 270   6 C      0.367  1.018  2.615  0.000    20.772     7.459
 271   8 O     -0.642  1.764  4.878  0.000    27.172     6.989
 272   8 O     -0.655  1.778  4.877  0.000    27.514     7.033
 273   1 H      0.233  0.767  0.000  0.000     0.952     1.529
 274   1 H      0.062  0.938  0.000  0.000     2.179     2.308
 275   1 H      0.114  0.886  0.000  0.000     1.665     2.017
 276   1 H      0.031  0.969  0.000  0.000     2.570     2.507
 277   7 N     -0.210  1.226  3.984  0.000    25.578     7.511
 278   6 C      0.019  1.039  2.942  0.000    20.266     6.411
 279   6 C      0.262  1.059  2.679  0.000    22.573     7.780
 280   8 O     -0.462  1.742  4.720  0.000    22.967     6.425
 281   6 C     -0.156  1.000  3.156  0.000    23.557     6.916
 282   1 H      0.220  0.780  0.000  0.000     1.007     1.572
 283   1 H      0.078  0.922  0.000  0.000     1.995     2.208
 284   1 H      0.093  0.907  0.000  0.000     1.852     2.128
 285   1 H      0.083  0.917  0.000  0.000     1.946     2.181
 286   1 H      0.092  0.908  0.000  0.000     1.861     2.133
 287   7 N     -0.202  1.220  3.982  0.000    25.400     7.485
 288   6 C      0.018  1.046  2.936  0.000    20.303     6.421
 289   6 C      0.239  1.067  2.694  0.000    23.004     7.854
 290   8 O     -0.589  1.836  4.753  0.000    25.867     6.819
 291   6 C      0.089  1.061  2.850  0.000    19.285     6.286
 292   8 O     -0.512  1.750  4.762  0.000    23.155     6.495
 293   6 C     -0.186  0.984  3.202  0.000    24.191     7.010
 294   1 H      0.210  0.790  0.000  0.000     1.057     1.610
 295   1 H      0.132  0.868  0.000  0.000     1.519     1.927
 296   1 H      0.080  0.920  0.000  0.000     1.982     2.201
 297   1 H      0.328  0.672  0.000  0.000     0.641     1.257
 298   1 H      0.083  0.917  0.000  0.000     1.952     2.185
 299   1 H      0.101  0.899  0.000  0.000     1.772     2.081
 300   1 H      0.071  0.929  0.000  0.000     2.075     2.253
 301   7 N     -0.154  1.192  3.962  0.000    24.339     7.327
 302   6 C      0.015  1.023  2.962  0.000    20.314     6.416
 303   6 C      0.247  1.051  2.702  0.000    22.868     7.834
 304   8 O     -0.621  1.828  4.793  0.000    26.636     6.919
 305   6 C     -0.049  1.035  3.014  0.000    21.404     6.578
 306   6 C     -0.163  0.990  3.173  0.000    23.728     6.947
 307   6 C     -0.167  0.958  3.210  0.000    23.789     6.950
 308   1 H      0.221  0.779  0.000  0.000     1.003     1.569
 309   1 H      0.134  0.866  0.000  0.000     1.506     1.919
 310   1 H      0.071  0.929  0.000  0.000     2.069     2.249
 311   1 H      0.061  0.939  0.000  0.000     2.191     2.314
 312   1 H      0.052  0.948  0.000  0.000     2.296     2.369
 313   1 H      0.090  0.910  0.000  0.000     1.875     2.141
 314   1 H      0.082  0.918  0.000  0.000     1.961     2.190
 315   1 H      0.074  0.926  0.000  0.000     2.043     2.235
 316   1 H      0.068  0.932  0.000  0.000     2.112     2.272
 317   7 N     -0.107  1.199  3.908  0.000    23.343     7.176
 318   6 C      0.023  1.031  2.947  0.000    20.175     6.392
 319   6 C      0.285  1.035  2.680  0.000    22.179     7.714
 320   8 O     -0.455  1.730  4.726  0.000    22.813     6.404
 321   6 C     -0.154  0.997  3.157  0.000    23.506     6.907
 322   1 H      0.220  0.780  0.000  0.000     1.011     1.575
 323   1 H      0.087  0.913  0.000  0.000     1.908     2.160
 324   1 H      0.087  0.913  0.000  0.000     1.907     2.159
 325   1 H      0.067  0.933  0.000  0.000     2.122     2.278
 326   1 H      0.084  0.916  0.000  0.000     1.942     2.179
 327   7 N     -0.211  1.218  3.992  0.000    25.589     7.513
 328   6 C      0.007  1.035  2.958  0.000    20.493     6.450
 329   6 C      0.117  1.116  2.767  0.000    25.404     8.258
 330   8 O     -0.447  1.877  4.570  0.000    22.588     6.375
 331   6 C     -0.037  1.052  2.985  0.000    21.187     6.544
 332   6 C     -0.104  0.965  3.139  0.000    22.474     6.746
 333   6 C     -0.173  0.962  3.211  0.000    23.897     6.964
 334   6 C     -0.154  0.973  3.180  0.000    23.480     6.901
 335   1 H      0.216  0.784  0.000  0.000     1.028     1.588
 336   1 H      0.126  0.874  0.000  0.000     1.564     1.956
 337   1 H      0.075  0.925  0.000  0.000     2.031     2.229
 338   1 H      0.088  0.912  0.000  0.000     1.893     2.151
 339   1 H      0.067  0.933  0.000  0.000     2.118     2.276
 340   1 H      0.097  0.903  0.000  0.000     1.814     2.106
 341   1 H      0.060  0.940  0.000  0.000     2.195     2.317
 342   1 H      0.053  0.947  0.000  0.000     2.282     2.362
 343   1 H      0.069  0.931  0.000  0.000     2.094     2.263
 344   1 H      0.043  0.957  0.000  0.000     2.409     2.427
 345   1 H      0.059  0.941  0.000  0.000     2.206     2.323
 346   7 N     -0.365  1.311  4.054  0.000    29.413     8.055
 347   6 C      0.032  1.044  2.924  0.000    20.218     6.436
 348   6 C      0.230  1.090  2.681  0.000    23.176     7.880
 349   8 O     -0.677  1.906  4.771  0.000    28.133     7.110
 350   6 C      0.018  1.033  2.949  0.000    20.831     6.600
 351   8 O     -0.553  1.798  4.755  0.000    24.110     6.626
 352   1 H      0.227  0.773  0.000  0.000     0.980     1.550
 353   1 H      0.131  0.869  0.000  0.000     1.529     1.934
 354   1 H      0.122  0.878  0.000  0.000     1.595     1.975
 355   1 H      0.108  0.892  0.000  0.000     1.710     2.044
 356   1 H      0.343  0.657  0.000  0.000     0.605     1.221
 357   7 N     -0.121  1.204  3.917  0.000    23.626     7.219
 358   6 C      0.032  1.027  2.941  0.000    20.074     6.385
 359   6 C      0.177  1.105  2.718  0.000    24.196     8.056
 360   8 O     -0.480  1.864  4.616  0.000    23.348     6.478
 361   6 C     -0.159  1.007  3.152  0.000    23.645     6.933
 362   1 H      0.286  0.714  0.000  0.000     0.756     1.362
 363   1 H      0.146  0.854  0.000  0.000     1.417     1.861
 364   1 H      0.083  0.917  0.000  0.000     1.947     2.182
 365   1 H      0.116  0.884  0.000  0.000     1.648     2.007
 366   1 H      0.116  0.884  0.000  0.000     1.644     2.005
 367   1 H      0.177  0.823  0.000  0.000     1.232     1.738
 368   1 H      0.092  0.908  0.000  0.000     1.858     2.132
 369   1 H      0.168  0.832  0.000  0.000     1.285     1.775
 370   1 H      0.037  0.963  0.000  0.000     2.482     2.463
 371   1 H      0.193  0.807  0.000  0.000     1.144     1.676
 372   1 H      0.071  0.929  0.000  0.000     2.075     2.252
 373   1 H      0.186  0.814  0.000  0.000     1.179     1.701
 374   1 H      0.089  0.911  0.000  0.000     1.886     2.147
 375   1 H      0.186  0.814  0.000  0.000     1.179     1.701
 376   1 H      0.090  0.910  0.000  0.000     1.874     2.140
 377   1 H      0.198  0.802  0.000  0.000     1.115     1.654
 378   1 H      0.117  0.883  0.000  0.000     1.636     2.000

 Mol. C6AA /au·bohr⁶  :    1318217.773719
 Mol. C8AA /au·bohr⁸  :   29215603.938224
 Mol. α(0) /au        :       1712.360499

 
molecular dipole:
                 x           y           z       tot (Debye)
 q only:       23.472       1.866      53.124
   full:       27.526       4.296      52.184     150.360
molecular quadrupole (traceless):
                xx          xy          yy          xz          yz          zz
 q only:     1286.671    2701.825   -3777.974    7913.101    5773.266    2491.302
  q+dip:     1816.384    3468.519   -3683.715    8001.738    5807.277    1867.331
   full:     1815.475    3467.855   -3682.839    8001.380    5805.716    1867.363
speedup  1.00
cpu  time for grad    7.78 s
wall time for grad    7.78 s

SCC energy    :    -612.5604270
rep           :      11.6116937
ES            :       2.5329825
AES           :      -0.0764310
AXC           :       0.1085853
disp          :      -0.4948722
XB            :       0.0000000
fix           :       0.0000000
Gborn         :       0.0000000
Gsasa         :       0.0000000
Ghb           :       0.0000000
Gshift        :       0.0000000
Gsolv         :      -0.7291108     -457.52
Etot ala COSMO:    -612.5604270
grad norm     :       2.8083259
total E       :    -600.9046149
atomizationE  :     103.2932456    64817.49
(atE without considering molecular charge,
 total energy contains solvation terms)
H-L gap (eV)  :          0.4028

------------------------------------------------------------------------
 * finished run on 2019/03/15 at 00:15:26.003     
------------------------------------------------------------------------
 total:
 * wall-time:     0 d,  0 h,  0 min,  8.382 sec
 *  cpu-time:     0 d,  0 h,  0 min,  8.286 sec
 * ratio c/w:     0.989 speedup
 SCF:
 * wall-time:     0 d,  0 h,  0 min,  8.150 sec
 *  cpu-time:     0 d,  0 h,  0 min,  8.150 sec
 * ratio c/w:     1.000 speedup

