      -----------------------------------------------------------      
     |                   =====================                   |     
     |                           x T B                           |     
     |                   =====================                   |     
     |                         S. Grimme                         |     
     |          Mulliken Center for Theoretical Chemistry        |     
     |                    University of Bonn                     |     
     |                 Version 6.0.1 (SAW181210)                 |     
      -----------------------------------------------------------      

   This program is distributed in the hope that it will be useful,
   but WITHOUT ANY WARRANTY; without even the implied warranty of
   MERCHANTABILITY or FITNESS FOR A PARTICULAR PURPOSE.
   
   FOR NON-COMMERCIAL, ACADEMIA USE ONLY.
   
   Cite this work as:
   S. Grimme, C. Bannwarth, P. Shushkov, J. Comput. Theory Chem., 2017,
   13, 1989-2009.
   C. Bannwarth, S. Ehlert and S. Grimme., ChemRxiv, 2018, preprint.
   http://doi.org/10.26434/chemrxiv.7246238.v1
   
   for sTDA-xTB:
   S. Grimme and C. Bannwarth, J. Chem. Phys., 2016, 145, 054103.
   
   in the mass-spec context:
   V. Asgeirsson, C. Bauer and S. Grimme, Chem. Sci., 2017, 8, 4879.
   
   if GBSA is used:
   P. Shushkov, F. März and S. Grimme, unpublished.
   
   for ANC optimizer:
   S. Grimme, unpublished.
   Rational Function algorithm used in ANCopt:
   F. Eckert, P. Pulay, H.-J. Werner, J. Comput. Chem., 1997, 18, 1473.
   
   with help from (in alphabetical order)
   C. Bannwarth, F. Bohle, G. Brandenburg, E. Caldeweyher, M. Checinski,
   S. Dohm, S. Ehlert, S. Ehrlich, F. März, H. Neugebauer, J. Pisarek,
   P. Pracht, P. Shushkov, and S. Spicher.
   
 * started run on 2019/03/07 at 11:37:45.844     
========================================================================
 # omp threads = 1
========================================================================
number of atoms            : 412
number of electrons        : 1146
charge                     : -3
spin                       : .0
first test random number   : .9550
           ------------------------------------------------- 
          |                 G F N 2 - x T B                 |
          | Geometry, Frequencies, Noncovalent interactions |
          |            JCTC 2018 parametrisation            |
           ------------------------------------------------- 
 
      method parameters     
 k(s)        :  1.8500
 k(p)        :  2.2300
 k(d)        :  2.2300
 k(f)        :  2.0000
 kEN (H0ij)  : -2.0000
 D4 a1       :  0.5200
 D4 a2       :  5.0000
 D4 s6       :  1.0000
 D4 s8       :  2.7000
 D4 s9       :  5.0000
 alphaj      :  2.0000

 Solvent             : h2o
 Using internal parameter file: .param_gbsa2_h2o
 Gsolv ref. state (COSMO-RS): gsolv [1 M gas/solution]
 temperature (mdtemp)       :    298.150000000000     
 dielectric constant        :    80.2000000000000     
 rho                        :    1.00000000000000     
 mass                       :    18.0000000000000     
 surface tension            :    15.5689454083859     
 probe radius               :   0.975313790000000     
 vdW radii scaling          :    1.00000000000000     
 Gshift (Eh)                :   1.857443126794793E-003
 c1                         :    1.55243817000000     
 soset                      :   0.130326360000000     
 HB correction              :  T

            Z     q(EN)     CN     RAES       Cart. coordinates
     1  N   5.0   -0.25    3.25    1.97   282.17955   139.17643   193.85565
     2  C   4.0    0.02    4.36    4.31   284.22234   140.78269   192.91456
     3  C   4.0    0.15    3.43    3.09   285.89097   139.14430   191.13633
     4  O   6.0   -0.31    1.22    1.80   286.54481   139.96066   189.04063
     5  C   4.0   -0.07    4.36    4.31   285.80782   141.86362   195.11609
     6  C   4.0   -0.06    4.28    4.16   287.78825   143.78736   194.25249
     7  C   4.0   -0.02    4.34    4.28   286.51647   146.04936   193.04117
     8  N   5.0   -0.17    3.43    2.04   288.13785   148.31703   192.91834
     9  C   4.0    0.10    3.48    3.11   288.21911   149.92141   190.98893
    10  N   5.0   -0.25    3.33    1.99   286.77725   149.50756   188.98204
    11  N   5.0   -0.25    3.30    1.98   289.50979   152.04735   191.17224
    12  H   1.0    0.09    1.08    1.44   282.15687   139.01580   195.47325
    13  H   1.0    0.04    1.12    1.45   283.53070   142.21511   192.00372
    14  H   1.0    0.03    1.09    1.44   284.68721   142.65919   196.32930
    15  H   1.0    0.04    1.09    1.44   286.64875   140.48601   195.98537
    16  H   1.0    0.04    1.09    1.44   288.79359   144.33160   195.68490
    17  H   1.0    0.05    1.09    1.44   288.93721   143.00501   193.05818
    18  H   1.0    0.04    1.10    1.44   285.99113   145.59960   191.34420
    19  H   1.0    0.03    1.09    1.44   284.99713   146.45376   193.98226
    20  H   1.0    0.09    1.14    1.45   289.10161   148.62128   194.19013
    21  H   1.0    0.10    1.10    1.44   285.80026   148.20932   188.93669
    22  H   1.0    0.09    1.09    1.44   286.81883   150.53746   187.72538
    23  H   1.0    0.10    1.09    1.44   290.30348   152.40073   192.54607
    24  H   1.0    0.09    1.09    1.44   289.55704   153.07914   189.91746
    25  N   5.0   -0.17    3.49    2.07   286.49568   136.83695   191.98104
    26  C   4.0    0.03    4.48    4.51   288.03203   135.08139   190.55241
    27  C   4.0    0.08    3.32    3.06   286.94733   134.75258   187.91813
    28  O   6.0   -0.31    1.16    1.80   288.28336   135.17021   186.06242
    29  C   4.0   -0.04    4.40    4.38   288.22478   132.50758   191.86388
    30  C   4.0   -0.09    4.24    4.08   289.37940   130.50636   190.09698
    31  C   4.0   -0.10    4.22    4.05   289.72711   132.63420   194.29784
    32  H   1.0    0.08    1.14    1.45   286.00813   136.26058   193.42101
    33  H   1.0    0.05    1.13    1.45   289.72144   135.78248   190.44280
    34  H   1.0    0.03    1.13    1.45   286.51080   132.01625   192.28528
    35  H   1.0    0.03    1.05    1.44   289.47956   128.90010   190.97381
    36  H   1.0    0.04    1.06    1.44   288.32683   130.32495   188.60788
    37  H   1.0    0.04    1.05    1.44   291.06126   131.03171   189.59431
    38  H   1.0    0.03    1.06    1.44   289.79892   130.96935   195.05940
    39  H   1.0    0.04    1.06    1.44   291.42787   133.21434   193.93690
    40  H   1.0    0.04    1.06    1.44   288.91642   133.80016   195.45624
    41  N   5.0   -0.23    3.27    1.97   288.92209   139.18399   182.97460
    42  C   4.0    0.03    4.32    4.23   291.59038   138.80415   182.32265
    43  C   4.0    0.08    3.23    3.04   291.81148   136.66120   180.44237
    44  O   6.0   -0.32    1.12    1.80   292.98500   136.94844   178.47139
    45  C   4.0   -0.05    4.46    4.47   293.14185   138.27692   184.66591
    46  C   4.0   -0.03    4.32    4.24   293.08327   140.45010   186.60666
    47  C   4.0   -0.09    4.23    4.06   293.88640   139.51847   189.17858
    48  C   4.0   -0.09    4.20    4.01   294.73489   142.68754   185.78085
    49  H   1.0    0.13    1.10    1.44   288.59517   138.94777   184.54875
    50  H   1.0    0.04    1.13    1.45   292.24801   140.33483   181.55920
    51  H   1.0    0.06    1.10    1.44   292.52202   136.74624   185.46148
    52  H   1.0    0.04    1.10    1.44   294.87851   137.95944   184.17458
    53  H   1.0    0.05    1.13    1.45   291.35417   141.04914   186.70303
    54  H   1.0    0.04    1.06    1.44   293.83916   140.90742   190.37477
    55  H   1.0    0.04    1.06    1.44   292.74501   138.19566   189.73415
    56  H   1.0    0.04    1.06    1.44   295.59093   138.85328   189.08409
    57  H   1.0    0.04    1.05    1.44   294.64796   144.01035   187.04507
    58  H   1.0    0.04    1.05    1.44   296.47155   142.13007   185.59754
    59  H   1.0    0.04    1.05    1.44   294.12829   143.33571   184.17647
    60  N   5.0   -0.24    3.23    1.96   314.84535   139.25768   168.72040
    61  C   4.0    0.02    4.34    4.27   315.37447   137.69488   170.96729
    62  C   4.0    0.16    3.42    3.08   315.31778   139.34272   173.37858
    63  O   6.0   -0.30    1.32    1.80   314.01765   138.74557   175.21161
    64  C   4.0   -0.06    4.35    4.29   317.92371   136.29459   170.69328
    65  C   4.0   -0.05    4.31    4.22   318.10891   134.39353   168.51442
    66  C   4.0    0.15    3.30    3.05   320.75641   133.47701   168.05144
    67  O   6.0   -0.32    1.21    1.80   321.81844   133.98346   166.05211
    68  N   5.0   -0.25    3.24    1.96   321.88458   132.28082   169.95628
    69  H   1.0    0.09    1.08    1.44   315.85257   139.00824   167.46940
    70  H   1.0    0.04    1.12    1.45   314.06489   136.42121   171.11468
    71  H   1.0    0.05    1.09    1.44   319.24841   137.54370   170.48163
    72  H   1.0    0.05    1.09    1.44   318.26764   135.41020   172.26175
    73  H   1.0    0.04    1.09    1.44   317.03176   132.95545   168.87914
    74  H   1.0    0.04    1.10    1.44   317.46640   135.17021   166.98374
    75  H   1.0    0.10    1.09    1.44   321.06066   131.96901   171.32066
    76  H   1.0    0.11    1.09    1.44   323.43793   131.82161   169.82211
    77  N   5.0   -0.16    3.51    2.09   316.63303   141.48756   173.27464
    78  C   4.0    0.04    4.47    4.49   316.76342   143.28091   175.34200
    79  C   4.0    0.17    3.51    3.12   314.12537   143.88373   176.34356
    80  O   6.0   -0.30    1.28    1.80   313.55845   143.55114   178.56965
    81  C   4.0    0.01    4.27    4.13   318.04844   145.73378   174.47840
    82  O   6.0   -0.28    2.13    1.84   316.66138   146.83738   172.45828
    83  H   1.0    0.09    1.14    1.45   317.48719   141.93921   171.96884
    84  H   1.0    0.06    1.13    1.45   317.75175   142.51935   176.68560
    85  H   1.0    0.04    1.07    1.44   318.15426   146.91107   175.88057
    86  H   1.0    0.03    1.07    1.44   319.76620   145.38418   173.93983
    87  H   1.0    0.13    1.08    1.44   317.37380   148.17908   171.99719
    88  N   5.0   -0.15    3.56    2.12   312.50020   144.74167   174.61635
    89  C   4.0    0.03    4.49    4.53   309.83569   145.35205   175.16059
    90  C   4.0    0.16    3.51    3.12   308.67917   143.11462   176.50040
    91  O   6.0   -0.32    1.29    1.80   307.61715   143.42264   178.54698
    92  C   4.0   -0.05    4.34    4.28   308.39572   145.94731   172.72473
    93  C   4.0    0.24    3.12    3.03   309.22720   148.42663   171.43594
    94  O   6.0   -0.30    1.18    1.80   310.04734   150.20109   172.77197
    95  O   6.0   -0.31    1.17    1.80   308.97586   148.64584   169.10402
    96  H   1.0    0.11    1.15    1.45   312.91405   144.99300   173.06488
    97  H   1.0    0.06    1.13    1.45   309.73742   146.84304   176.22261
    98  H   1.0    0.05    1.09    1.44   308.62059   144.56026   171.54743
    99  H   1.0    0.04    1.09    1.44   306.60426   146.04558   173.10268
   100  N   5.0   -0.16    3.54    2.11   309.05145   140.87340   175.42515
   101  C   4.0    0.03    4.47    4.49   308.11604   138.50179   176.54198
   102  C   4.0    0.16    3.49    3.11   309.11192   138.10306   179.20460
   103  O   6.0   -0.32    1.26    1.80   307.71164   137.26402   180.88646
   104  C   4.0   -0.05    4.45    4.47   308.89271   136.25302   174.93382
   105  C   4.0   -0.03    4.27    4.14   307.86092   136.01491   172.17860
   106  C   4.0   -0.09    4.19    3.98   309.07224   133.84173   170.67816
   107  C   4.0   -0.09    4.24    4.08   305.03767   135.60862   172.37513
   108  H   1.0    0.10    1.14    1.45   309.85269   140.67309   174.02486
   109  H   1.0    0.05    1.13    1.45   306.28867   138.63596   176.60623
   110  H   1.0    0.06    1.11    1.45   310.72386   136.25113   174.83744
   111  H   1.0    0.05    1.10    1.44   308.40327   134.73557   175.83711
   112  H   1.0    0.04    1.12    1.45   308.27855   137.54559   171.26019
   113  H   1.0    0.03    1.05    1.44   308.35792   133.79071   168.99063
   114  H   1.0    0.04    1.05    1.44   310.88260   134.11007   170.56666
   115  H   1.0    0.05    1.05    1.44   308.74154   132.25247   171.52853
   116  H   1.0    0.03    1.06    1.44   304.32336   135.45178   170.69517
   117  H   1.0    0.05    1.06    1.44   304.70508   134.07795   173.32566
   118  H   1.0    0.04    1.06    1.44   304.27233   137.03726   173.23118
   119  N   5.0   -0.15    3.59    2.15   311.48164   138.82305   179.65436
   120  C   4.0    0.04    4.52    4.57   312.60414   138.64541   182.13368
   121  C   4.0    0.16    3.48    3.10   311.34180   140.43498   183.98561
   122  O   6.0   -0.31    1.28    1.80   310.99787   139.75468   186.17580
   123  C   4.0   -0.04    4.34    4.28   315.47085   139.15186   182.07510
   124  C   4.0    0.26    3.14    3.03   316.89948   137.36229   180.27608
   125  O   6.0   -0.30    1.23    1.80   316.41571   135.10218   180.38946
   126  O   6.0   -0.28    1.17    1.80   318.44717   138.25991   178.72650
   127  H   1.0    0.14    1.18    1.46   312.47185   139.42776   178.51674
   128  H   1.0    0.06    1.14    1.45   312.33957   136.92198   182.69870
   129  H   1.0    0.06    1.09    1.44   315.76565   140.88663   181.56109
   130  H   1.0    0.05    1.09    1.44   316.14926   138.97234   183.76829
   131  N   5.0   -0.16    3.56    2.12   310.55756   142.62140   183.03319
   132  C   4.0    0.04    4.43    4.43   309.28389   144.51112   184.59788
   133  C   4.0    0.17    3.49    3.11   306.69118   143.38863   185.32353
   134  O   6.0   -0.30    1.25    1.80   306.00332   143.31115   187.56664
   135  C   4.0    0.02    4.23    4.07   308.97775   147.00556   183.12389
   136  O   6.0   -0.28    2.07    1.84   307.57935   148.82726   184.55631
   137  H   1.0    0.13    1.16    1.46   310.74465   143.05225   181.47794
   138  H   1.0    0.06    1.12    1.45   310.25710   144.89852   186.10210
   139  H   1.0    0.04    1.07    1.44   310.62937   147.68397   182.71193
   140  H   1.0    0.06    1.08    1.44   308.11982   146.68053   181.53652
   141  H   1.0    0.13    1.07    1.44   307.43951   150.16707   183.71727
   142  N   5.0   -0.16    3.55    2.12   305.32869   142.43431   183.43570
   143  C   4.0    0.03    4.55    4.61   302.88339   141.28347   183.85711
   144  C   4.0    0.16    3.52    3.12   303.15551   139.25391   185.93203
   145  O   6.0   -0.32    1.25    1.80   301.84971   139.36351   187.84443
   146  C   4.0   -0.03    4.46    4.48   301.92151   139.94554   181.42503
   147  C   4.0   -0.05    4.31    4.21   301.88939   141.79370   179.19704
   148  C   4.0   -0.09    4.26    4.11   299.39306   138.70399   181.83699
   149  C   4.0   -0.09    4.12    3.84   300.94075   140.64474   176.68749
   150  H   1.0    0.12    1.16    1.46   305.80490   142.44187   181.88234
   151  H   1.0    0.05    1.12    1.45   301.69853   142.59494   184.34277
   152  H   1.0    0.06    1.14    1.45   303.09315   138.59817   181.00929
   153  H   1.0    0.04    1.09    1.44   300.82736   143.22233   179.63168
   154  H   1.0    0.06    1.10    1.44   303.58447   142.44376   178.94571
   155  H   1.0    0.05    1.06    1.44   298.85071   137.88952   180.28741
   156  H   1.0    0.05    1.06    1.44   299.53668   137.45111   183.16736
   157  H   1.0    0.04    1.06    1.44   298.16096   139.97200   182.32265
   158  H   1.0    0.04    1.05    1.44   300.97665   141.92598   175.37602
   159  H   1.0    0.04    1.05    1.44   302.02545   139.24824   176.20561
   160  H   1.0    0.04    1.05    1.44   299.22488   140.03814   176.90292
   161  N   5.0   -0.16    3.54    2.11   305.02067   137.57583   185.57865
   162  C   4.0    0.04    4.49    4.52   305.60270   135.53115   187.31153
   163  C   4.0    0.16    3.53    3.13   306.20741   136.54404   189.91557
   164  O   6.0   -0.32    1.32    1.80   305.39294   135.43855   191.83553
   165  C   4.0   -0.05    4.38    4.35   307.87037   134.03259   186.29107
   166  C   4.0   -0.04    4.32    4.24   308.58469   131.77059   187.96726
   167  C   4.0    0.16    3.29    3.05   306.57402   129.71457   187.99372
   168  O   6.0   -0.31    1.24    1.80   306.09025   128.52782   186.06053
   169  N   5.0   -0.24    3.23    1.96   305.48554   129.30639   190.22170
   170  H   1.0    0.12    1.17    1.46   305.99954   137.61362   184.28230
   171  H   1.0    0.05    1.13    1.45   304.13816   134.43699   187.44759
   172  H   1.0    0.06    1.09    1.44   307.48298   133.43166   184.60355
   173  H   1.0    0.06    1.09    1.44   309.31412   135.15131   186.14368
   174  H   1.0    0.05    1.09    1.44   310.16639   131.05816   187.37578
   175  H   1.0    0.05    1.10    1.44   308.86815   132.35641   189.68124
   176  H   1.0    0.12    1.09    1.44   305.90695   130.20401   191.50861
   177  H   1.0    0.13    1.09    1.44   304.35926   128.14421   190.37477
   178  N   5.0   -0.15    3.54    2.11   307.72486   138.55093   190.05541
   179  C   4.0    0.04    4.41    4.39   308.35603   139.71689   192.44213
   180  C   4.0    0.17    3.49    3.11   305.94474   140.28192   193.94068
   181  O   6.0   -0.30    1.23    1.80   305.77089   139.70177   196.19513
   182  C   4.0   -0.08    4.18    3.95   309.93017   142.18865   192.01316
   183  H   1.0    0.13    1.17    1.46   308.40705   139.26146   188.76284
   184  H   1.0    0.05    1.12    1.45   309.38593   138.55093   193.41156
   185  H   1.0    0.04    1.05    1.44   310.33646   142.94454   193.63266
   186  H   1.0    0.05    1.05    1.44   311.47975   141.78047   191.12499
   187  H   1.0    0.07    1.05    1.44   308.94941   143.37351   191.01539
   188  N   5.0   -0.15    3.52    2.10   304.05124   141.32882   192.63866
   189  C   4.0    0.04    4.52    4.56   301.66262   141.93921   193.90856
   190  C   4.0    0.17    3.52    3.12   300.45887   139.45422   194.74949
   191  O   6.0   -0.30    1.28    1.80   299.97888   139.12162   197.01149
   192  C   4.0   -0.05    4.39    4.36   299.90518   143.43587   192.18324
   193  C   4.0   -0.04    4.31    4.22   297.24444   143.77602   193.24716
   194  C   4.0    0.25    3.16    3.03   297.13673   145.39362   195.57341
   195  O   6.0   -0.31    1.19    1.80   295.13551   146.60305   195.95891
   196  O   6.0   -0.28    1.21    1.80   298.87528   145.34638   197.15322
   197  H   1.0    0.13    1.14    1.45   304.10604   141.69354   191.05507
   198  H   1.0    0.07    1.13    1.45   301.97821   143.00690   195.36365
   199  H   1.0    0.05    1.09    1.44   300.63839   145.08749   191.87332
   200  H   1.0    0.06    1.09    1.44   299.79557   142.58549   190.56374
   201  H   1.0    0.04    1.10    1.44   296.17864   144.52057   191.95458
   202  H   1.0    0.05    1.10    1.44   296.54335   142.12818   193.63644
   203  N   5.0   -0.16    3.52    2.09   300.13194   137.71189   192.95992
   204  C   4.0    0.03    4.54    4.59   299.02457   135.23257   193.51739
   205  C   4.0    0.16    3.51    3.12   300.21887   133.99291   195.86065
   206  O   6.0   -0.32    1.26    1.80   298.87150   132.76837   197.35164
   207  C   4.0   -0.02    4.45    4.46   299.32881   133.45245   191.21003
   208  C   4.0   -0.06    4.33    4.25   298.12506   134.59762   188.82520
   209  C   4.0   -0.09    4.29    4.19   298.04002   130.95423   191.77695
   210  C   4.0   -0.09    4.17    3.94   298.27812   132.77403   186.61422
   211  H   1.0    0.12    1.15    1.45   300.54013   137.92732   191.40089
   212  H   1.0    0.04    1.12    1.45   297.24633   135.50469   193.87265
   213  H   1.0    0.06    1.12    1.45   301.12027   133.21056   190.90578
   214  H   1.0    0.04    1.09    1.44   296.37139   135.01714   189.15968
   215  H   1.0    0.06    1.10    1.44   298.97732   136.16231   188.39434
   216  H   1.0    0.04    1.06    1.44   298.22332   129.83173   190.34076
   217  H   1.0    0.05    1.06    1.44   298.81292   130.18889   193.25282
   218  H   1.0    0.04    1.06    1.44   296.25990   131.24336   192.10198
   219  H   1.0    0.04    1.05    1.44   297.50900   133.53748   185.13645
   220  H   1.0    0.05    1.06    1.44   300.03557   132.39042   186.25706
   221  H   1.0    0.04    1.06    1.44   297.38995   131.22635   187.03374
   222  N   5.0   -0.15    3.52    2.09   302.69063   134.28204   196.18946
   223  C   4.0    0.04    4.49    4.53   303.96431   133.17277   198.35508
   224  C   4.0    0.16    3.47    3.10   303.00244   134.33873   200.84196
   225  O   6.0   -0.30    1.29    1.80   302.33725   132.99135   202.61075
   226  C   4.0    0.05    4.28    4.17   306.92551   133.48457   198.15666
   227  O   6.0   -0.28    2.15    1.85   307.70408   132.75136   195.63010
   228  C   4.0   -0.08    4.19    3.98   308.28422   131.77815   199.98403
   229  H   1.0    0.13    1.16    1.46   303.65817   135.11163   195.18223
   230  H   1.0    0.06    1.12    1.45   303.57503   131.38131   198.35697
   231  H   1.0    0.05    1.10    1.44   307.34125   135.22879   198.53839
   232  H   1.0    0.17    1.10    1.44   307.20330   133.83795   194.58508
   233  H   1.0    0.04    1.06    1.44   310.09458   132.01625   199.81395
   234  H   1.0    0.05    1.06    1.44   307.77400   132.18633   201.69612
   235  H   1.0    0.05    1.06    1.44   307.86092   130.03204   199.62120
   236  N   5.0   -0.16    3.58    2.14   302.92118   136.84639   200.97991
   237  C   4.0    0.03    4.54    4.59   301.94797   138.18999   203.17389
   238  C   4.0    0.17    3.59    3.16   299.33448   137.22245   203.70112
   239  O   6.0   -0.31    1.28    1.80   298.65985   136.76892   205.89887
   240  C   4.0   -0.05    4.47    4.50   301.87616   140.94899   202.63720
   241  C   4.0   -0.04    4.32    4.23   299.91841   142.49667   204.15276
   242  C   4.0    0.16    3.27    3.05   300.23777   145.34827   203.79183
   243  O   6.0   -0.29    1.20    1.80   298.41985   146.81092   204.01103
   244  N   5.0   -0.24    3.25    1.97   302.55835   146.15329   203.18333
   245  H   1.0    0.12    1.14    1.45   303.43519   137.82338   199.78750
   246  H   1.0    0.05    1.13    1.45   303.02511   137.91409   204.63086
   247  H   1.0    0.04    1.11    1.44   303.54101   141.64441   202.96413
   248  H   1.0    0.07    1.11    1.44   301.53790   141.18143   200.85141
   249  H   1.0    0.06    1.09    1.44   298.22899   142.00724   203.63687
   250  H   1.0    0.05    1.09    1.44   300.07336   142.09038   205.93289
   251  H   1.0    0.10    1.10    1.44   303.77723   145.08749   203.04727
   252  H   1.0    0.11    1.08    1.44   302.82858   147.73500   202.93011
   253  N   5.0   -0.15    3.52    2.09   297.86238   136.94466   201.66966
   254  C   4.0    0.04    4.53    4.58   295.25645   135.98090   201.88698
   255  C   4.0    0.16    3.49    3.11   295.19409   133.51859   203.33640
   256  O   6.0   -0.29    1.25    1.80   294.23978   133.39009   205.43022
   257  C   4.0   -0.06    4.41    4.39   293.97711   135.63130   199.31884
   258  C   4.0   -0.06    4.30    4.21   293.02846   138.06149   198.11698
   259  C   4.0   -0.02    4.39    4.36   291.65085   139.68287   200.00104
   260  N   5.0   -0.16    3.44    2.04   292.37840   142.34550   199.80450
   261  C   4.0    0.12    3.47    3.10   293.03035   143.74011   201.80005
   262  N   5.0   -0.24    3.30    1.98   293.08138   142.74801   204.12631
   263  N   5.0   -0.23    3.30    1.98   293.53491   146.17975   201.45046
   264  H   1.0    0.12    1.15    1.45   298.32726   137.29993   200.15221
   265  H   1.0    0.05    1.15    1.45   294.31348   137.25646   202.80728
   266  H   1.0    0.06    1.10    1.44   295.16385   134.83195   198.17367
   267  H   1.0    0.04    1.10    1.44   292.56359   134.48046   199.51538
   268  H   1.0    0.06    1.10    1.44   294.44387   138.99501   197.42156
   269  H   1.0    0.03    1.09    1.44   291.91164   137.66087   196.71858
   270  H   1.0    0.03    1.09    1.44   289.84428   139.52414   199.73647
   271  H   1.0    0.04    1.13    1.45   292.00045   139.07816   201.69612
   272  H   1.0    0.10    1.13    1.45   292.38596   143.04092   198.33619
   273  H   1.0    0.10    1.10    1.44   292.69020   141.18709   204.35307
   274  H   1.0    0.11    1.09    1.44   293.50657   143.67208   205.39431
   275  H   1.0    0.13    1.10    1.44   293.43665   146.82415   199.96135
   276  H   1.0    0.12    1.09    1.44   293.95821   147.11139   202.71279
   277  N   5.0   -0.16    3.52    2.09   296.35816   131.57217   202.22902
   278  C   4.0    0.03    4.45    4.46   296.49989   129.04372   203.43845
   279  C   4.0    0.17    3.45    3.10   297.55625   129.19678   206.10674
   280  O   6.0   -0.29    1.22    1.80   296.69453   127.84563   207.81127
   281  C   4.0   -0.05    4.45    4.46   298.13639   127.32784   201.76037
   282  C   4.0   -0.03    4.29    4.17   297.27846   126.69857   199.08641
   283  C   4.0   -0.09    4.19    3.98   299.33826   125.21324   197.61809
   284  C   4.0   -0.10    4.22    4.05   294.86150   125.15277   199.13365
   285  H   1.0    0.12    1.15    1.45   297.08382   131.65910   200.77771
   286  H   1.0    0.05    1.12    1.45   294.81237   128.34641   203.59151
   287  H   1.0    0.06    1.10    1.44   299.79179   128.10452   201.63376
   288  H   1.0    0.04    1.10    1.44   298.35560   125.74047   202.65043
   289  H   1.0    0.05    1.13    1.45   296.97421   128.28972   198.22847
   290  H   1.0    0.04    1.05    1.44   298.73544   124.84286   195.92679
   291  H   1.0    0.05    1.05    1.44   300.86516   126.22424   197.51416
   292  H   1.0    0.04    1.05    1.44   299.70298   123.64477   198.49303
   293  H   1.0    0.03    1.06    1.44   294.34560   124.77105   197.41589
   294  H   1.0    0.03    1.06    1.44   295.15252   123.58997   200.04450
   295  H   1.0    0.04    1.06    1.44   293.54058   126.10897   199.96891
   296  N   5.0   -0.14    3.51    2.08   299.45164   130.79549   206.49980
   297  C   4.0    0.05    4.49    4.52   300.67052   131.12619   208.99802
   298  C   4.0    0.16    3.43    3.09   298.92441   132.22979   210.99168
   299  O   6.0   -0.28    1.25    1.80   298.70898   131.23202   213.04959
   300  C   4.0   -0.04    4.38    4.35   303.15173   132.62286   208.69189
   301  C   4.0    0.17    3.31    3.05   305.13594   131.19044   207.19900
   302  O   6.0   -0.30    1.24    1.80   304.79768   128.97569   206.68311
   303  N   5.0   -0.25    3.23    1.96   307.16550   132.49058   206.50358
   304  H   1.0    0.13    1.16    1.46   300.08470   131.73280   205.33195
   305  H   1.0    0.07    1.14    1.45   301.11082   129.44434   209.58195
   306  H   1.0    0.06    1.09    1.44   302.79835   134.21401   207.85285
   307  H   1.0    0.04    1.09    1.44   303.82069   133.02915   210.34917
   308  H   1.0    0.11    1.09    1.44   308.33524   131.77059   205.63431
   309  H   1.0    0.10    1.09    1.44   307.31101   134.05527   206.91932
   310  N   5.0   -0.15    3.52    2.09   297.54302   134.25180   210.33217
   311  C   4.0    0.05    4.37    4.33   295.77802   135.49524   212.03103
   312  C   4.0    0.10    3.29    3.05   293.85050   133.45245   212.80771
   313  O   6.0   -0.28    1.11    1.80   293.31003   133.11230   215.03758
   314  C   4.0   -0.05    4.36    4.32   294.42875   137.66654   210.64208
   315  C   4.0   -0.04    4.28    4.16   292.17053   138.78147   212.11985
   316  C   4.0    0.25    3.15    3.03   292.95854   140.13074   214.51602
   317  O   6.0   -0.30    1.18    1.80   295.06370   141.24379   214.54815
   318  O   6.0   -0.30    1.17    1.80   291.49779   140.02302   216.35661
   319  H   1.0    0.13    1.17    1.46   297.61861   134.93588   208.86007
   320  H   1.0    0.07    1.11    1.45   296.62650   136.21145   213.48990
   321  H   1.0    0.06    1.09    1.44   295.63818   139.00257   210.30571
   322  H   1.0    0.06    1.09    1.44   293.83538   137.05804   209.01692
   323  H   1.0    0.04    1.09    1.44   291.26346   139.95310   211.04081
   324  H   1.0    0.05    1.09    1.44   291.00457   137.43221   212.54504
   325  N   5.0   -0.24    3.25    1.97   300.26234   119.18124   191.25916
   326  C   4.0    0.02    4.38    4.34   299.17007   120.55696   189.12188
   327  C   4.0    0.15    3.48    3.11   301.21287   122.39377   188.25261
   328  O   6.0   -0.31    1.25    1.80   301.82325   124.13988   189.59998
   329  C   4.0   -0.06    4.44    4.45   296.77768   122.02527   189.94769
   330  C   4.0   -0.03    4.34    4.28   296.01423   124.24003   188.22048
   331  C   4.0   -0.10    4.23    4.07   294.62150   123.31029   185.91691
   332  C   4.0   -0.10    4.23    4.07   294.41930   126.10708   189.68880
   333  H   1.0    0.10    1.08    1.44   299.95809   119.84831   192.70858
   334  H   1.0    0.03    1.12    1.45   298.66174   119.41367   187.78207
   335  H   1.0    0.03    1.09    1.44   295.37550   120.84797   190.04029
   336  H   1.0    0.04    1.10    1.44   297.04791   122.67345   191.64089
   337  H   1.0    0.05    1.14    1.45   297.53546   125.08285   187.64223
   338  H   1.0    0.04    1.06    1.44   294.16230   124.73703   184.86244
   339  H   1.0    0.04    1.06    1.44   295.70054   122.17267   184.96827
   340  H   1.0    0.03    1.06    1.44   293.10405   122.42212   186.43658
   341  H   1.0    0.04    1.06    1.44   293.94309   127.49792   188.59465
   342  H   1.0    0.03    1.06    1.44   292.90941   125.26993   190.30485
   343  H   1.0    0.04    1.06    1.44   295.38306   126.74959   191.10987
   344  N   5.0   -0.17    3.50    2.07   302.34670   121.80229   186.07942
   345  C   4.0    0.04    4.51    4.55   304.44241   123.25549   185.03063
   346  C   4.0    0.16    3.52    3.13   303.97187   123.60508   182.24328
   347  O   6.0   -0.31    1.27    1.80   303.02889   121.90811   180.98661
   348  C   4.0   -0.04    4.39    4.36   306.97842   121.89488   185.45581
   349  C   4.0    0.16    3.32    3.06   309.18940   123.23092   184.23883
   350  O   6.0   -0.30    1.30    1.80   309.29523   123.57107   181.91636
   351  N   5.0   -0.24    3.24    1.96   311.04511   123.93768   185.76006
   352  H   1.0    0.10    1.14    1.45   301.91207   120.53050   185.16669
   353  H   1.0    0.08    1.15    1.45   304.54256   124.88065   185.87344
   354  H   1.0    0.04    1.10    1.44   307.28456   121.74559   187.25672
   355  H   1.0    0.05    1.09    1.44   306.86504   120.19224   184.78874
   356  H   1.0    0.13    1.10    1.44   312.36981   124.65388   185.14779
   357  H   1.0    0.11    1.09    1.44   310.92606   123.68067   187.36066
   358  N   5.0   -0.16    3.55    2.11   304.51044   125.85386   181.29086
   359  C   4.0    0.03    4.54    4.60   304.08336   126.40566   178.63768
   360  C   4.0    0.16    3.43    3.09   306.40772   127.65666   177.41692
   361  O   6.0   -0.31    1.24    1.80   306.17151   128.86419   175.46105
   362  C   4.0   -0.02    4.36    4.32   301.71742   128.13476   178.17281
   363  C   4.0   -0.09    4.21    4.02   299.29480   126.79116   179.01374
   364  C   4.0   -0.08    4.24    4.09   302.01222   130.58384   179.65625
   365  H   1.0    0.11    1.14    1.45   305.12649   127.08785   182.15068
   366  H   1.0    0.06    1.14    1.45   303.76778   124.77860   177.85534
   367  H   1.0    0.05    1.12    1.45   301.60026   128.49947   176.37946
   368  H   1.0    0.04    1.05    1.44   297.85293   127.88342   178.71327
   369  H   1.0    0.04    1.05    1.44   299.09260   125.23970   178.05943
   370  H   1.0    0.05    1.06    1.44   299.40251   126.39810   180.80142
   371  H   1.0    0.04    1.06    1.44   300.55146   131.65343   179.36901
   372  H   1.0    0.05    1.06    1.44   302.14828   130.20401   181.44393
   373  H   1.0    0.05    1.06    1.44   303.52589   131.45690   179.10067
   374  N   5.0   -0.14    3.57    2.13   308.65272   127.24848   178.53186
   375  C   4.0    0.04    4.40    4.38   310.99976   128.30294   177.62290
   376  C   4.0    0.08    3.25    3.04   311.98431   126.67022   175.47617
   377  O   6.0   -0.28    1.14    1.80   310.79000   124.77482   174.76941
   378  C   4.0   -0.05    4.39    4.36   313.01799   128.38042   179.69026
   379  C   4.0   -0.03    4.33    4.25   312.26587   129.98858   181.94848
   380  C   4.0    0.16    3.30    3.05   314.29166   130.06228   183.97994
   381  O   6.0   -0.29    1.22    1.80   314.87748   128.11586   185.11566
   382  N   5.0   -0.23    3.26    1.97   315.27621   132.27515   184.53930
   383  H   1.0    0.13    1.19    1.46   308.82657   126.33007   179.86034
   384  H   1.0    0.05    1.13    1.45   310.66528   130.01692   177.06732
   385  H   1.0    0.06    1.09    1.44   313.36003   126.67211   180.25907
   386  H   1.0    0.05    1.09    1.44   314.57701   129.03238   178.98161
   387  H   1.0    0.05    1.10    1.44   311.91439   131.69689   181.38346
   388  H   1.0    0.06    1.09    1.44   310.71252   129.33095   182.66658
   389  H   1.0    0.12    1.11    1.45   314.82645   133.59796   183.70971
   390  H   1.0    0.13    1.09    1.44   316.37036   132.39987   185.73549
   391  N   5.0   -0.24    3.23    1.96   321.97151   124.69168   182.18281
   392  C   4.0    0.04    4.31    4.22   323.10345   126.68156   180.67670
   393  C   4.0    0.08    3.20    3.04   325.90970   126.37542   180.04742
   394  O   6.0   -0.31    1.12    1.80   326.76763   127.19934   178.10667
   395  C   4.0   -0.03    4.33    4.25   322.51764   129.31584   181.72739
   396  C   4.0    0.25    3.15    3.03   323.25085   129.59741   184.50906
   397  O   6.0   -0.28    1.16    1.80   321.77876   130.80494   185.92258
   398  O   6.0   -0.30    1.18    1.80   325.32766   128.69034   185.23094
   399  H   1.0    0.11    1.08    1.44   322.44394   124.65955   183.73805
   400  H   1.0    0.05    1.15    1.45   322.27386   126.50014   179.05153
   401  H   1.0    0.06    1.09    1.44   323.41148   130.57250   180.73717
   402  H   1.0    0.06    1.09    1.44   320.72618   129.65788   181.53652
   403  H   1.0    0.08    1.08    1.44   280.68089   139.83625   193.39607
   404  H   1.0    0.04    1.04    1.44   285.15415   134.19877   187.69701
   405  H   1.0    0.09    1.08    1.44   288.46674   140.77847   182.59668
   406  H   1.0    0.05    1.05    1.44   290.99528   134.99629   180.80698
   407  H   1.0    0.09    1.07    1.44   313.27339   138.93127   168.15920
   408  H   1.0    0.06    1.04    1.44   293.02257   132.38378   211.48727
   409  H   1.0    0.08    1.08    1.44   299.63484   117.60094   191.29751
   410  H   1.0    0.05    1.04    1.43   313.60745   127.11645   174.61749
   411  H   1.0    0.10    1.08    1.44   320.28082   124.87636   182.18910
   412  H   1.0    0.05    1.05    1.44   327.05669   125.48187   181.25449

  Z AO/shell   Hii/eV     exponent
  1     Wed Apr 25 08:07:45 CEST 2018   EN: 2.200 GM2: 0.406  GM3: 0.0800  RAES: 1.40
     1s    -10.707211    1.230000
  6     Wed Apr 25 08:07:45 CEST 2018   EN: 2.550 GM2: 0.538  GM3: 0.1500  RAES: 3.00
     2s    -13.970922    2.096432
     2p    -10.063292    1.800000
  7     Wed Apr 25 08:07:45 CEST 2018   EN: 3.040 GM2: 0.461  GM3:-0.0640  RAES: 1.90
     2s    -16.686243    2.339881
     2p    -12.523956    2.014332
  8     Wed Apr 25 08:07:45 CEST 2018   EN: 3.440 GM2: 0.452  GM3:-0.0517  RAES: 1.80
     2s    -20.229985    2.439742
     2p    -15.503117    2.137023
 no old-style atom pair restraining (fixing) potential

molecular fragmentation (1/2 indicates fragments):
111111111111111111111111111111111111111122222222222222222222222222222222
222222222222222222222222222222222222222222222222222222222222222222222222
222222222222222222222222222222222222222222222222222222222222222222222222
222222222222222222222222222222222222222222222222222222222222222222222222
222222222222222222222222222222222222222222222222222222222222222222222222
2222222222222222222222222222222222222222221122222222
# atoms in fragment 1/2:    42   370
 fragment masses (1/2) :      258.34     2628.87
CMA distance (Bohr)    :  18.534
constraining FC (au)   :  0.0500
           ------------------------------------------------- 
          |        Self-Consistent Charge Iterations        |
           ------------------------------------------------- 

 Ncao       : 1018
 Nao        : 1018
 Nshell     : 614
 Nel        : 1146
 T(el)      :   500.0
 intcut     :    35.0
 scfconv/Eh :  0.100E-06
   qconv/e  :  0.100E-04
 intneglect :  0.100E-08
 broydamp   :      0.400
 iter      E             dE          RMSdq      gap      omega  full diag
   1   -663.5207245 -0.663521E+03  0.478E+00    3.27       0.0  T
   2   -665.3349722 -0.181425E+01  0.218E+00    1.77       1.0  T
   3   -665.4381814 -0.103209E+00  0.128E+00    1.97       1.0  T
   4   -665.5361199 -0.979385E-01  0.251E-01    1.22       1.0  T
   5   -665.5435120 -0.739205E-02  0.123E-01    1.31       1.0  T
   6   -665.5441976 -0.685636E-03  0.541E-02    1.24       1.0  T
   7   -665.5444492 -0.251650E-03  0.186E-02    1.25       1.0  T
   8   -665.5444686 -0.194061E-04  0.946E-03    1.24       1.0  T
   9   -665.5444761 -0.744000E-05  0.346E-03    1.23       1.4  T
  10   -665.5444770 -0.872792E-06  0.155E-03    1.23       3.2  T
  11   -665.5444772 -0.205555E-06  0.634E-04    1.23       7.8  T
  12   -665.5444772 -0.265106E-07  0.282E-04    1.23      17.5  T
  13   -665.5444772 -0.570424E-08  0.128E-04    1.23      38.5  T
  14   -665.5444772 -0.135014E-08  0.482E-05    1.23     102.3  T
  15   -665.5444772 -0.181785E-09  0.181E-05    1.23     271.5  T
speedup  1.00
cpu  time for SCC    7.28 s
wall time for SCC    7.29 s

   *** convergence criteria satisfied after 15 iterations ***

          eigenvalues
 #    :         561        562        563        564        565        566        567        568
 occ. :        2.000      2.000      2.000      2.000      2.000      2.000      2.000      2.000
 eps  :       -10.274    -10.251    -10.243    -10.188    -10.176     -9.993     -9.952     -9.800
 #    :         569        570        571        572        573        574        575        576
 occ. :        2.000      2.000      2.000      2.000      2.000      0.000      0.000      0.000
 eps  :        -9.776     -9.700     -9.573     -9.548     -9.398     -8.170     -7.602     -7.525
 #    :         577        578        579        580        581        582        583        584
 occ. :        0.000      0.000      0.000      0.000      0.000      0.000      0.000      0.000
 eps  :        -7.508     -7.324     -7.027     -6.982     -6.848     -6.726     -6.669     -6.648


   #   Z            q   n(s)   n(p)   n(d)      C6AA      α(0)
   1   7 N     -0.425  1.290  4.135  0.000    31.071     8.279
   2   6 C      0.007  1.045  2.948  0.000    20.468     6.444
   3   6 C      0.258  1.057  2.685  0.000    22.650     7.793
   4   8 O     -0.500  1.762  4.739  0.000    23.792     6.540
   5   6 C     -0.111  1.018  3.093  0.000    22.614     6.768
   6   6 C     -0.107  1.007  3.100  0.000    22.532     6.756
   7   6 C     -0.047  1.013  3.034  0.000    21.478     6.609
   8   7 N     -0.154  1.183  3.971  0.000    24.341     7.327
   9   6 C      0.227  1.016  2.757  0.000    23.220     7.889
  10   7 N     -0.264  1.168  4.096  0.000    26.836     7.694
  11   7 N     -0.269  1.174  4.096  0.000    26.972     7.713
  12   1 H      0.193  0.807  0.000  0.000     1.143     1.675
  13   1 H      0.074  0.926  0.000  0.000     2.039     2.233
  14   1 H      0.086  0.914  0.000  0.000     1.921     2.167
  15   1 H      0.072  0.928  0.000  0.000     2.066     2.247
  16   1 H      0.082  0.918  0.000  0.000     1.962     2.190
  17   1 H      0.073  0.927  0.000  0.000     2.055     2.241
  18   1 H      0.093  0.907  0.000  0.000     1.849     2.126
  19   1 H      0.112  0.888  0.000  0.000     1.683     2.028
  20   1 H      0.231  0.769  0.000  0.000     0.960     1.534
  21   1 H      0.250  0.750  0.000  0.000     0.883     1.472
  22   1 H      0.255  0.745  0.000  0.000     0.864     1.456
  23   1 H      0.250  0.750  0.000  0.000     0.883     1.472
  24   1 H      0.259  0.741  0.000  0.000     0.850     1.444
  25   7 N     -0.177  1.204  3.972  0.000    24.825     7.400
  26   6 C      0.008  1.038  2.954  0.000    20.437     6.436
  27   6 C      0.202  1.081  2.718  0.000    23.713     7.975
  28   8 O     -0.356  1.761  4.596  0.000    20.830     6.119
  29   6 C     -0.043  1.041  3.002  0.000    21.303     6.564
  30   6 C     -0.157  0.980  3.176  0.000    23.566     6.918
  31   6 C     -0.168  0.981  3.187  0.000    23.790     6.950
  32   1 H      0.226  0.774  0.000  0.000     0.983     1.553
  33   1 H      0.092  0.908  0.000  0.000     1.857     2.131
  34   1 H      0.075  0.925  0.000  0.000     2.025     2.225
  35   1 H      0.076  0.924  0.000  0.000     2.017     2.221
  36   1 H      0.053  0.947  0.000  0.000     2.281     2.361
  37   1 H      0.062  0.938  0.000  0.000     2.170     2.303
  38   1 H      0.079  0.921  0.000  0.000     1.993     2.208
  39   1 H      0.063  0.937  0.000  0.000     2.169     2.303
  40   1 H      0.067  0.933  0.000  0.000     2.120     2.277
  41   7 N     -0.411  1.285  4.125  0.000    30.672     8.225
  42   6 C      0.029  1.030  2.941  0.000    20.103     6.385
  43   6 C      0.201  1.091  2.708  0.000    23.725     7.977
  44   8 O     -0.397  1.761  4.636  0.000    21.624     6.235
  45   6 C     -0.103  1.013  3.090  0.000    22.443     6.742
  46   6 C     -0.029  1.034  2.994  0.000    21.044     6.524
  47   6 C     -0.156  0.978  3.179  0.000    23.559     6.916
  48   6 C     -0.155  0.978  3.176  0.000    23.527     6.912
  49   1 H      0.198  0.802  0.000  0.000     1.117     1.656
  50   1 H      0.063  0.937  0.000  0.000     2.161     2.299
  51   1 H      0.078  0.922  0.000  0.000     1.995     2.209
  52   1 H      0.049  0.951  0.000  0.000     2.332     2.388
  53   1 H      0.068  0.932  0.000  0.000     2.105     2.269
  54   1 H      0.059  0.941  0.000  0.000     2.216     2.327
  55   1 H      0.057  0.943  0.000  0.000     2.237     2.338
  56   1 H      0.049  0.951  0.000  0.000     2.331     2.387
  57   1 H      0.057  0.943  0.000  0.000     2.239     2.340
  58   1 H      0.038  0.962  0.000  0.000     2.476     2.460
  59   1 H      0.051  0.949  0.000  0.000     2.305     2.374
  60   7 N     -0.424  1.288  4.136  0.000    31.060     8.277
  61   6 C      0.019  1.041  2.940  0.000    20.274     6.413
  62   6 C      0.269  1.051  2.681  0.000    22.463     7.761
  63   8 O     -0.509  1.757  4.752  0.000    23.980     6.566
  64   6 C     -0.087  1.008  3.079  0.000    22.151     6.699
  65   6 C     -0.119  1.010  3.110  0.000    22.763     6.790
  66   6 C      0.288  1.034  2.678  0.000    22.113     7.700
  67   8 O     -0.498  1.751  4.746  0.000    23.730     6.531
  68   7 N     -0.304  1.197  4.107  0.000    27.831     7.835
  69   1 H      0.200  0.800  0.000  0.000     1.104     1.646
  70   1 H      0.062  0.938  0.000  0.000     2.171     2.304
  71   1 H      0.065  0.935  0.000  0.000     2.143     2.289
  72   1 H      0.052  0.948  0.000  0.000     2.293     2.368
  73   1 H      0.082  0.918  0.000  0.000     1.959     2.188
  74   1 H      0.090  0.910  0.000  0.000     1.880     2.144
  75   1 H      0.224  0.776  0.000  0.000     0.990     1.558
  76   1 H      0.240  0.760  0.000  0.000     0.922     1.504
  77   7 N     -0.182  1.208  3.974  0.000    24.939     7.417
  78   6 C      0.013  1.036  2.951  0.000    20.361     6.424
  79   6 C      0.285  1.039  2.675  0.000    22.164     7.709
  80   8 O     -0.511  1.746  4.764  0.000    24.027     6.572
  81   6 C      0.053  0.999  2.949  0.000    19.873     6.380
  82   8 O     -0.505  1.685  4.819  0.000    22.987     6.472
  83   1 H      0.238  0.762  0.000  0.000     0.933     1.513
  84   1 H      0.091  0.909  0.000  0.000     1.870     2.138
  85   1 H      0.066  0.934  0.000  0.000     2.127     2.281
  86   1 H      0.079  0.921  0.000  0.000     1.989     2.205
  87   1 H      0.358  0.642  0.000  0.000     0.568     1.183
  88   7 N     -0.191  1.216  3.975  0.000    25.140     7.447
  89   6 C      0.026  1.037  2.937  0.000    20.141     6.390
  90   6 C      0.275  1.042  2.684  0.000    22.358     7.743
  91   8 O     -0.507  1.736  4.770  0.000    23.930     6.559
  92   6 C     -0.123  1.022  3.101  0.000    22.845     6.803
  93   6 C      0.370  1.021  2.609  0.000    20.729     7.451
  94   8 O     -0.644  1.773  4.871  0.000    27.233     6.997
  95   8 O     -0.634  1.771  4.864  0.000    26.976     6.964
  96   1 H      0.226  0.774  0.000  0.000     0.982     1.552
  97   1 H      0.088  0.912  0.000  0.000     1.896     2.153
  98   1 H      0.058  0.942  0.000  0.000     2.227     2.334
  99   1 H      0.070  0.930  0.000  0.000     2.081     2.256
 100   7 N     -0.189  1.211  3.978  0.000    25.105     7.442
 101   6 C      0.022  1.040  2.938  0.000    20.199     6.399
 102   6 C      0.272  1.045  2.683  0.000    22.396     7.750
 103   8 O     -0.512  1.738  4.774  0.000    24.050     6.575
 104   6 C     -0.101  1.011  3.090  0.000    22.404     6.736
 105   6 C     -0.028  1.037  2.991  0.000    21.030     6.523
 106   6 C     -0.152  0.980  3.172  0.000    23.472     6.905
 107   6 C     -0.158  0.978  3.179  0.000    23.586     6.920
 108   1 H      0.210  0.790  0.000  0.000     1.057     1.610
 109   1 H      0.101  0.899  0.000  0.000     1.775     2.083
 110   1 H      0.064  0.936  0.000  0.000     2.153     2.294
 111   1 H      0.065  0.935  0.000  0.000     2.136     2.286
 112   1 H      0.045  0.955  0.000  0.000     2.389     2.417
 113   1 H      0.076  0.924  0.000  0.000     2.025     2.225
 114   1 H      0.041  0.959  0.000  0.000     2.437     2.441
 115   1 H      0.060  0.940  0.000  0.000     2.201     2.320
 116   1 H      0.072  0.928  0.000  0.000     2.063     2.246
 117   1 H      0.066  0.934  0.000  0.000     2.129     2.281
 118   1 H      0.052  0.948  0.000  0.000     2.292     2.368
 119   7 N     -0.191  1.216  3.975  0.000    25.150     7.448
 120   6 C      0.041  1.028  2.931  0.000    19.884     6.348
 121   6 C      0.271  1.042  2.687  0.000    22.422     7.754
 122   8 O     -0.498  1.732  4.766  0.000    23.740     6.533
 123   6 C     -0.120  1.021  3.100  0.000    22.791     6.795
 124   6 C      0.374  1.018  2.608  0.000    20.662     7.439
 125   8 O     -0.620  1.753  4.867  0.000    26.607     6.916
 126   8 O     -0.650  1.771  4.879  0.000    27.386     7.016
 127   1 H      0.227  0.773  0.000  0.000     0.977     1.548
 128   1 H      0.069  0.931  0.000  0.000     2.097     2.265
 129   1 H      0.056  0.944  0.000  0.000     2.248     2.345
 130   1 H      0.048  0.952  0.000  0.000     2.342     2.393
 131   7 N     -0.190  1.213  3.977  0.000    25.126     7.445
 132   6 C      0.011  1.044  2.945  0.000    20.399     6.431
 133   6 C      0.274  1.045  2.681  0.000    22.363     7.744
 134   8 O     -0.490  1.743  4.746  0.000    23.555     6.507
 135   6 C      0.055  0.998  2.947  0.000    19.849     6.378
 136   8 O     -0.500  1.683  4.817  0.000    22.886     6.458
 137   1 H      0.221  0.779  0.000  0.000     1.003     1.569
 138   1 H      0.101  0.899  0.000  0.000     1.779     2.086
 139   1 H      0.061  0.939  0.000  0.000     2.184     2.311
 140   1 H      0.065  0.935  0.000  0.000     2.137     2.286
 141   1 H      0.362  0.638  0.000  0.000     0.560     1.175
 142   7 N     -0.187  1.211  3.976  0.000    25.061     7.435
 143   6 C      0.008  1.047  2.946  0.000    20.446     6.438
 144   6 C      0.279  1.045  2.676  0.000    22.284     7.730
 145   8 O     -0.475  1.728  4.747  0.000    23.240     6.463
 146   6 C     -0.042  1.041  3.001  0.000    21.282     6.561
 147   6 C     -0.097  1.008  3.089  0.000    22.333     6.727
 148   6 C     -0.152  0.975  3.176  0.000    23.462     6.902
 149   6 C     -0.148  0.978  3.171  0.000    23.410     6.897
 150   1 H      0.224  0.776  0.000  0.000     0.992     1.560
 151   1 H      0.100  0.900  0.000  0.000     1.787     2.090
 152   1 H      0.057  0.943  0.000  0.000     2.233     2.337
 153   1 H      0.064  0.936  0.000  0.000     2.150     2.293
 154   1 H      0.045  0.955  0.000  0.000     2.387     2.416
 155   1 H      0.079  0.921  0.000  0.000     1.988     2.205
 156   1 H      0.054  0.946  0.000  0.000     2.274     2.358
 157   1 H      0.075  0.925  0.000  0.000     2.030     2.228
 158   1 H      0.056  0.944  0.000  0.000     2.249     2.345
 159   1 H      0.042  0.958  0.000  0.000     2.420     2.433
 160   1 H      0.076  0.924  0.000  0.000     2.017     2.221
 161   7 N     -0.200  1.212  3.988  0.000    25.337     7.476
 162   6 C      0.022  1.034  2.944  0.000    20.212     6.401
 163   6 C      0.266  1.047  2.687  0.000    22.519     7.771
 164   8 O     -0.515  1.739  4.776  0.000    24.120     6.585
 165   6 C     -0.086  1.010  3.076  0.000    22.118     6.693
 166   6 C     -0.121  1.011  3.110  0.000    22.807     6.797
 167   6 C      0.280  1.037  2.683  0.000    22.255     7.724
 168   8 O     -0.500  1.742  4.758  0.000    23.783     6.538
 169   7 N     -0.277  1.192  4.085  0.000    27.152     7.739
 170   1 H      0.217  0.783  0.000  0.000     1.023     1.584
 171   1 H      0.099  0.901  0.000  0.000     1.797     2.096
 172   1 H      0.081  0.919  0.000  0.000     1.967     2.193
 173   1 H      0.061  0.939  0.000  0.000     2.183     2.310
 174   1 H      0.077  0.923  0.000  0.000     2.004     2.214
 175   1 H      0.073  0.927  0.000  0.000     2.048     2.238
 176   1 H      0.231  0.769  0.000  0.000     0.961     1.535
 177   1 H      0.248  0.752  0.000  0.000     0.892     1.480
 178   7 N     -0.178  1.214  3.964  0.000    24.864     7.406
 179   6 C      0.015  1.040  2.945  0.000    20.332     6.420
 180   6 C      0.273  1.044  2.683  0.000    22.384     7.747
 181   8 O     -0.504  1.742  4.762  0.000    23.864     6.550
 182   6 C     -0.163  0.986  3.177  0.000    23.712     6.941
 183   1 H      0.226  0.774  0.000  0.000     0.984     1.554
 184   1 H      0.088  0.912  0.000  0.000     1.895     2.152
 185   1 H      0.086  0.914  0.000  0.000     1.913     2.163
 186   1 H      0.076  0.924  0.000  0.000     2.023     2.224
 187   1 H      0.080  0.920  0.000  0.000     1.977     2.199
 188   7 N     -0.194  1.220  3.974  0.000    25.200     7.456
 189   6 C      0.020  1.039  2.941  0.000    20.235     6.404
 190   6 C      0.276  1.045  2.680  0.000    22.339     7.740
 191   8 O     -0.498  1.739  4.759  0.000    23.734     6.532
 192   6 C     -0.086  1.005  3.081  0.000    22.130     6.695
 193   6 C     -0.116  1.012  3.104  0.000    22.710     6.783
 194   6 C      0.359  1.022  2.619  0.000    20.914     7.484
 195   8 O     -0.648  1.750  4.898  0.000    27.329     7.009
 196   8 O     -0.646  1.781  4.866  0.000    27.282     7.003
 197   1 H      0.219  0.781  0.000  0.000     1.016     1.578
 198   1 H      0.100  0.900  0.000  0.000     1.780     2.086
 199   1 H      0.052  0.948  0.000  0.000     2.291     2.367
 200   1 H      0.067  0.933  0.000  0.000     2.117     2.275
 201   1 H      0.067  0.933  0.000  0.000     2.113     2.273
 202   1 H      0.054  0.946  0.000  0.000     2.271     2.356
 203   7 N     -0.194  1.215  3.980  0.000    25.218     7.458
 204   6 C      0.004  1.051  2.946  0.000    20.519     6.449
 205   6 C      0.270  1.047  2.683  0.000    22.445     7.758
 206   8 O     -0.490  1.740  4.750  0.000    23.575     6.510
 207   6 C     -0.041  1.044  2.997  0.000    21.265     6.558
 208   6 C     -0.097  1.008  3.089  0.000    22.336     6.726
 209   6 C     -0.161  0.980  3.182  0.000    23.657     6.930
 210   6 C     -0.149  0.975  3.174  0.000    23.417     6.897
 211   1 H      0.223  0.777  0.000  0.000     0.994     1.561
 212   1 H      0.102  0.898  0.000  0.000     1.767     2.079
 213   1 H      0.050  0.950  0.000  0.000     2.315     2.379
 214   1 H      0.077  0.923  0.000  0.000     2.014     2.219
 215   1 H      0.047  0.953  0.000  0.000     2.362     2.403
 216   1 H      0.080  0.920  0.000  0.000     1.976     2.198
 217   1 H      0.057  0.943  0.000  0.000     2.232     2.336
 218   1 H      0.082  0.918  0.000  0.000     1.959     2.189
 219   1 H      0.060  0.940  0.000  0.000     2.197     2.318
 220   1 H      0.033  0.967  0.000  0.000     2.539     2.491
 221   1 H      0.074  0.926  0.000  0.000     2.038     2.232
 222   7 N     -0.182  1.206  3.976  0.000    24.934     7.416
 223   6 C     -0.003  1.051  2.952  0.000    20.645     6.470
 224   6 C      0.268  1.044  2.688  0.000    22.481     7.764
 225   8 O     -0.485  1.743  4.742  0.000    23.458     6.494
 226   6 C      0.098  1.033  2.868  0.000    19.066     6.236
 227   8 O     -0.487  1.680  4.807  0.000    22.613     6.419
 228   6 C     -0.167  0.980  3.187  0.000    23.790     6.951
 229   1 H      0.217  0.783  0.000  0.000     1.022     1.584
 230   1 H      0.102  0.898  0.000  0.000     1.767     2.078
 231   1 H      0.055  0.945  0.000  0.000     2.262     2.352
 232   1 H      0.312  0.688  0.000  0.000     0.685     1.300
 233   1 H      0.090  0.910  0.000  0.000     1.881     2.145
 234   1 H      0.070  0.930  0.000  0.000     2.085     2.258
 235   1 H      0.086  0.914  0.000  0.000     1.916     2.164
 236   7 N     -0.186  1.209  3.977  0.000    25.035     7.431
 237   6 C      0.017  1.029  2.954  0.000    20.287     6.411
 238   6 C      0.273  1.039  2.688  0.000    22.381     7.748
 239   8 O     -0.504  1.752  4.752  0.000    23.883     6.552
 240   6 C     -0.106  1.007  3.098  0.000    22.495     6.749
 241   6 C     -0.122  1.014  3.107  0.000    22.816     6.799
 242   6 C      0.283  1.044  2.673  0.000    22.211     7.717
 243   8 O     -0.494  1.747  4.746  0.000    23.647     6.520
 244   7 N     -0.300  1.196  4.104  0.000    27.722     7.820
 245   1 H      0.222  0.778  0.000  0.000     1.001     1.567
 246   1 H      0.089  0.911  0.000  0.000     1.892     2.151
 247   1 H      0.076  0.924  0.000  0.000     2.015     2.220
 248   1 H      0.093  0.907  0.000  0.000     1.847     2.125
 249   1 H      0.085  0.915  0.000  0.000     1.930     2.172
 250   1 H      0.094  0.906  0.000  0.000     1.841     2.122
 251   1 H      0.227  0.773  0.000  0.000     0.977     1.548
 252   1 H      0.239  0.761  0.000  0.000     0.926     1.507
 253   7 N     -0.187  1.214  3.973  0.000    25.063     7.435
 254   6 C     -0.001  1.043  2.959  0.000    20.602     6.462
 255   6 C      0.276  1.034  2.690  0.000    22.338     7.740
 256   8 O     -0.491  1.752  4.740  0.000    23.594     6.512
 257   6 C     -0.120  1.013  3.106  0.000    22.772     6.791
 258   6 C     -0.111  1.006  3.105  0.000    22.607     6.767
 259   6 C     -0.055  1.011  3.043  0.000    21.610     6.628
 260   7 N     -0.148  1.178  3.969  0.000    24.192     7.305
 261   6 C      0.225  1.022  2.753  0.000    23.262     7.897
 262   7 N     -0.259  1.163  4.096  0.000    26.715     7.676
 263   7 N     -0.244  1.173  4.071  0.000    26.368     7.626
 264   1 H      0.232  0.768  0.000  0.000     0.957     1.533
 265   1 H      0.094  0.906  0.000  0.000     1.845     2.124
 266   1 H      0.095  0.905  0.000  0.000     1.835     2.118
 267   1 H      0.099  0.901  0.000  0.000     1.791     2.092
 268   1 H      0.075  0.925  0.000  0.000     2.030     2.228
 269   1 H      0.105  0.895  0.000  0.000     1.742     2.064
 270   1 H      0.124  0.876  0.000  0.000     1.577     1.964
 271   1 H      0.085  0.915  0.000  0.000     1.932     2.174
 272   1 H      0.232  0.768  0.000  0.000     0.958     1.533
 273   1 H      0.232  0.768  0.000  0.000     0.957     1.532
 274   1 H      0.241  0.759  0.000  0.000     0.917     1.500
 275   1 H      0.255  0.745  0.000  0.000     0.863     1.455
 276   1 H      0.252  0.748  0.000  0.000     0.876     1.466
 277   7 N     -0.199  1.220  3.978  0.000    25.317     7.473
 278   6 C      0.011  1.047  2.942  0.000    20.401     6.432
 279   6 C      0.280  1.041  2.679  0.000    22.258     7.725
 280   8 O     -0.523  1.761  4.762  0.000    24.289     6.608
 281   6 C     -0.100  1.010  3.090  0.000    22.384     6.733
 282   6 C     -0.032  1.036  2.996  0.000    21.105     6.534
 283   6 C     -0.151  0.981  3.170  0.000    23.459     6.903
 284   6 C     -0.161  0.979  3.182  0.000    23.661     6.931
 285   1 H      0.235  0.765  0.000  0.000     0.943     1.521
 286   1 H      0.098  0.902  0.000  0.000     1.800     2.098
 287   1 H      0.062  0.938  0.000  0.000     2.173     2.305
 288   1 H      0.069  0.931  0.000  0.000     2.097     2.264
 289   1 H      0.066  0.934  0.000  0.000     2.127     2.281
 290   1 H      0.065  0.935  0.000  0.000     2.142     2.288
 291   1 H      0.043  0.957  0.000  0.000     2.408     2.426
 292   1 H      0.055  0.945  0.000  0.000     2.252     2.347
 293   1 H      0.071  0.929  0.000  0.000     2.069     2.249
 294   1 H      0.056  0.944  0.000  0.000     2.248     2.344
 295   1 H      0.057  0.943  0.000  0.000     2.234     2.337
 296   7 N     -0.186  1.214  3.972  0.000    25.035     7.431
 297   6 C      0.021  1.039  2.940  0.000    20.225     6.404
 298   6 C      0.278  1.039  2.682  0.000    22.291     7.731
 299   8 O     -0.496  1.749  4.746  0.000    23.685     6.525
 300   6 C     -0.129  1.017  3.112  0.000    22.951     6.818
 301   6 C      0.294  1.029  2.677  0.000    22.019     7.683
 302   8 O     -0.483  1.747  4.736  0.000    23.401     6.486
 303   7 N     -0.303  1.192  4.111  0.000    27.811     7.832
 304   1 H      0.228  0.772  0.000  0.000     0.973     1.545
 305   1 H      0.102  0.898  0.000  0.000     1.771     2.081
 306   1 H      0.092  0.908  0.000  0.000     1.860     2.133
 307   1 H      0.099  0.901  0.000  0.000     1.795     2.095
 308   1 H      0.237  0.763  0.000  0.000     0.936     1.515
 309   1 H      0.235  0.765  0.000  0.000     0.941     1.520
 310   7 N     -0.193  1.217  3.975  0.000    25.179     7.453
 311   6 C      0.030  1.038  2.932  0.000    20.071     6.380
 312   6 C      0.213  1.088  2.699  0.000    23.498     7.939
 313   8 O     -0.379  1.759  4.620  0.000    21.263     6.182
 314   6 C     -0.085  1.012  3.073  0.000    22.112     6.693
 315   6 C     -0.117  1.017  3.100  0.000    22.733     6.787
 316   6 C      0.369  1.022  2.609  0.000    20.742     7.453
 317   8 O     -0.666  1.778  4.888  0.000    27.785     7.067
 318   8 O     -0.661  1.776  4.885  0.000    27.676     7.053
 319   1 H      0.241  0.759  0.000  0.000     0.920     1.502
 320   1 H      0.080  0.920  0.000  0.000     1.974     2.197
 321   1 H      0.081  0.919  0.000  0.000     1.973     2.196
 322   1 H      0.080  0.920  0.000  0.000     1.983     2.202
 323   1 H      0.071  0.929  0.000  0.000     2.075     2.252
 324   1 H      0.039  0.961  0.000  0.000     2.455     2.450
 325   7 N     -0.420  1.293  4.127  0.000    30.935     8.260
 326   6 C      0.016  1.038  2.947  0.000    20.321     6.420
 327   6 C      0.275  1.044  2.680  0.000    22.347     7.741
 328   8 O     -0.477  1.734  4.742  0.000    23.274     6.468
 329   6 C     -0.102  1.018  3.084  0.000    22.434     6.741
 330   6 C     -0.028  1.029  2.998  0.000    21.029     6.522
 331   6 C     -0.155  0.977  3.178  0.000    23.523     6.911
 332   6 C     -0.160  0.980  3.180  0.000    23.632     6.927
 333   1 H      0.187  0.813  0.000  0.000     1.174     1.697
 334   1 H      0.050  0.950  0.000  0.000     2.322     2.383
 335   1 H      0.061  0.939  0.000  0.000     2.181     2.309
 336   1 H      0.061  0.939  0.000  0.000     2.192     2.315
 337   1 H      0.033  0.967  0.000  0.000     2.540     2.492
 338   1 H      0.057  0.943  0.000  0.000     2.239     2.340
 339   1 H      0.039  0.961  0.000  0.000     2.459     2.452
 340   1 H      0.061  0.939  0.000  0.000     2.181     2.309
 341   1 H      0.061  0.939  0.000  0.000     2.182     2.310
 342   1 H      0.064  0.936  0.000  0.000     2.157     2.297
 343   1 H      0.059  0.941  0.000  0.000     2.211     2.325
 344   7 N     -0.196  1.212  3.984  0.000    25.259     7.464
 345   6 C      0.013  1.035  2.953  0.000    20.364     6.425
 346   6 C      0.281  1.035  2.685  0.000    22.252     7.725
 347   8 O     -0.488  1.739  4.750  0.000    23.529     6.503
 348   6 C     -0.125  1.017  3.108  0.000    22.878     6.807
 349   6 C      0.280  1.039  2.681  0.000    22.259     7.725
 350   8 O     -0.521  1.756  4.764  0.000    24.247     6.602
 351   7 N     -0.283  1.197  4.086  0.000    27.310     7.761
 352   1 H      0.216  0.784  0.000  0.000     1.025     1.586
 353   1 H      0.104  0.896  0.000  0.000     1.746     2.066
 354   1 H      0.090  0.910  0.000  0.000     1.880     2.144
 355   1 H      0.104  0.896  0.000  0.000     1.749     2.068
 356   1 H      0.228  0.772  0.000  0.000     0.971     1.544
 357   1 H      0.240  0.760  0.000  0.000     0.921     1.503
 358   7 N     -0.178  1.204  3.974  0.000    24.849     7.404
 359   6 C     -0.002  1.049  2.953  0.000    20.612     6.464
 360   6 C      0.269  1.048  2.684  0.000    22.465     7.761
 361   8 O     -0.487  1.742  4.745  0.000    23.495     6.499
 362   6 C     -0.030  1.044  2.986  0.000    21.067     6.528
 363   6 C     -0.157  0.980  3.177  0.000    23.569     6.918
 364   6 C     -0.152  0.975  3.177  0.000    23.475     6.904
 365   1 H      0.207  0.793  0.000  0.000     1.073     1.623
 366   1 H      0.107  0.893  0.000  0.000     1.720     2.051
 367   1 H      0.075  0.925  0.000  0.000     2.032     2.229
 368   1 H      0.077  0.923  0.000  0.000     2.007     2.215
 369   1 H      0.062  0.938  0.000  0.000     2.173     2.305
 370   1 H      0.057  0.943  0.000  0.000     2.228     2.334
 371   1 H      0.075  0.925  0.000  0.000     2.030     2.228
 372   1 H      0.056  0.944  0.000  0.000     2.247     2.344
 373   1 H      0.039  0.961  0.000  0.000     2.459     2.452
 374   7 N     -0.187  1.204  3.983  0.000    25.063     7.435
 375   6 C      0.026  1.031  2.943  0.000    20.140     6.390
 376   6 C      0.193  1.087  2.720  0.000    23.876     8.003
 377   8 O     -0.352  1.762  4.591  0.000    20.754     6.108
 378   6 C     -0.080  1.005  3.075  0.000    22.008     6.676
 379   6 C     -0.111  1.007  3.104  0.000    22.601     6.766
 380   6 C      0.286  1.035  2.679  0.000    22.156     7.707
 381   8 O     -0.511  1.744  4.767  0.000    24.023     6.571
 382   7 N     -0.280  1.193  4.087  0.000    27.234     7.751
 383   1 H      0.231  0.769  0.000  0.000     0.962     1.536
 384   1 H      0.099  0.901  0.000  0.000     1.793     2.094
 385   1 H      0.082  0.918  0.000  0.000     1.954     2.186
 386   1 H      0.068  0.932  0.000  0.000     2.104     2.268
 387   1 H      0.061  0.939  0.000  0.000     2.186     2.312
 388   1 H      0.094  0.906  0.000  0.000     1.843     2.123
 389   1 H      0.221  0.779  0.000  0.000     1.007     1.572
 390   1 H      0.225  0.775  0.000  0.000     0.986     1.555
 391   7 N     -0.408  1.273  4.135  0.000    30.590     8.214
 392   6 C      0.033  1.033  2.935  0.000    20.038     6.375
 393   6 C      0.212  1.082  2.706  0.000    23.515     7.941
 394   8 O     -0.375  1.736  4.639  0.000    21.191     6.172
 395   6 C     -0.104  1.018  3.086  0.000    22.470     6.747
 396   6 C      0.368  1.025  2.607  0.000    20.758     7.456
 397   8 O     -0.657  1.780  4.877  0.000    27.572     7.040
 398   8 O     -0.649  1.773  4.876  0.000    27.357     7.013
 399   1 H      0.172  0.828  0.000  0.000     1.262     1.759
 400   1 H      0.082  0.918  0.000  0.000     1.954     2.186
 401   1 H      0.040  0.960  0.000  0.000     2.443     2.444
 402   1 H      0.040  0.960  0.000  0.000     2.444     2.444
 403   1 H      0.184  0.816  0.000  0.000     1.193     1.711
 404   1 H      0.071  0.929  0.000  0.000     2.071     2.251
 405   1 H      0.181  0.819  0.000  0.000     1.208     1.721
 406   1 H      0.072  0.928  0.000  0.000     2.064     2.246
 407   1 H      0.184  0.816  0.000  0.000     1.194     1.711
 408   1 H      0.076  0.924  0.000  0.000     2.023     2.224
 409   1 H      0.189  0.811  0.000  0.000     1.162     1.688
 410   1 H      0.083  0.917  0.000  0.000     1.950     2.183
 411   1 H      0.182  0.818  0.000  0.000     1.200     1.716
 412   1 H      0.064  0.936  0.000  0.000     2.154     2.295

 Mol. C6AA /au·bohr⁶  :    1557389.781382
 Mol. C8AA /au·bohr⁸  :   34410124.947611
 Mol. α(0) /au        :       1852.440142

 
molecular dipole:
                 x           y           z       tot (Debye)
 q only:     -951.619    -399.620    -569.969
   full:     -947.864    -397.256    -572.433    2990.195
molecular quadrupole (traceless):
                xx          xy          yy          xz          yz          zz
 q only:  -220177.542 -190419.545  152299.950 -270380.503 -113714.022   67877.592
  q+dip:  -217712.929 -188551.171  152290.577 -270430.652 -113560.503   65422.352
   full:  -217712.367 -188555.170  152292.038 -270428.816 -113561.913   65420.329
speedup  1.00
cpu  time for grad    9.19 s
wall time for grad    9.19 s

SCC energy    :    -665.5556160
rep           :      13.5598438
ES            :       2.7233475
AES           :      -0.1077594
AXC           :       0.0553633
disp          :      -0.5554089
XB            :       0.0000000
fix           :       0.0000000
Gborn         :       0.0000000
Gsasa         :       0.0000000
Ghb           :       0.0000000
Gshift        :       0.0000000
Gsolv         :      -0.7994015     -501.63
Etot ala COSMO:    -665.5556160
grad norm     :       2.6504877
total E       :    -651.9382946
atomizationE  :     113.6085881    71290.47
(atE without considering molecular charge,
 total energy contains solvation terms)
H-L gap (eV)  :          1.2275

------------------------------------------------------------------------
 * finished run on 2019/03/07 at 11:37:56.023     
------------------------------------------------------------------------
 total:
 * wall-time:     0 d,  0 h,  0 min, 10.178 sec
 *  cpu-time:     0 d,  0 h,  0 min, 10.008 sec
 * ratio c/w:     0.983 speedup
 SCF:
 * wall-time:     0 d,  0 h,  0 min,  9.815 sec
 *  cpu-time:     0 d,  0 h,  0 min,  9.813 sec
 * ratio c/w:     1.000 speedup

