      -----------------------------------------------------------      
     |                   =====================                   |     
     |                           x T B                           |     
     |                   =====================                   |     
     |                         S. Grimme                         |     
     |          Mulliken Center for Theoretical Chemistry        |     
     |                    University of Bonn                     |     
     |                Version 6.1 RC1 (SAW190329)                |     
      -----------------------------------------------------------      

   This program is distributed in the hope that it will be useful,
   but WITHOUT ANY WARRANTY; without even the implied warranty of
   MERCHANTABILITY or FITNESS FOR A PARTICULAR PURPOSE.
   
   FOR NON-COMMERCIAL, ACADEMIA USE ONLY.
   
   Cite this work as:
   S. Grimme, C. Bannwarth, P. Shushkov, J. Comput. Theory Chem., 2017,
   13, 1989-2009. DOI: 10.1021/acs.jctc.7b00118
   C. Bannwarth, S. Ehlert and S. Grimme., J. Comput. Theory Chem., 2019,
   just accepted. DOI: 10.1021/acs.jctc.8b01176
   
   for sTDA-xTB:
   S. Grimme and C. Bannwarth, J. Chem. Phys., 2016, 145, 054103.
   DOI: 10.1063/1.4959605
   
   in the mass-spec context:
   V. Asgeirsson, C. Bauer and S. Grimme, Chem. Sci., 2017, 8, 4879.
   DOI: 10.1039/c7sc00601b
   
   for metadynamics refer to:
   S. Grimme, ChemRxiv, Preprint. DOI: 10.26434/chemrxiv.7660532.v1
   
   with help from (in alphabetical order)
   C. Bannwarth, F. Bohle, G. Brandenburg, E. Caldeweyher, M. Checinski,
   S. Dohm, S. Ehlert, S. Ehrlich, F. März, H. Neugebauer, J. Pisarek,
   P. Pracht, P. Shushkov, and S. Spicher.
   
 * started run on 2019/05/31 at 05:35:24.577     

           -------------------------------------------------
          |                Calculation Setup                |
           -------------------------------------------------

          program call               : /home/lum/install/xtb/xtb-190329/bin/xtb xtb_tmp.xyz --chrg 0 --grad --gfn 2 --etemp 500 --acc 0.1 --gbsa h2o --parallel 2
          hostname                   : cpu02
          coordinate file            : xtb_tmp.xyz
          omp threads                :                     2
          number of atoms            :                   344
          number of electrons        :                   942
          charge                     :                     0
          spin                       :                   0.0
          first test random number   :      0.58787314033565


molecular fragmentation (1/2 indicates fragments):
111111111111111111111111111122222222222222222222222222222222222222222222
222222222222222222222222222222222222222222222222222222222222222222222222
222222222222222222222222222222222222222222222222222222222222222222222222
222222222222222222222222222222222222222222222222222222222222222222222222
22222222222222222222222222222222222222222211222222222222
# atoms in fragment 1/2:    30   314
 fragment masses (1/2) :      217.22     2171.53
CMA distance (Bohr)    :  17.168
constraining FC (au)   :  0.0500

########################################################################
# WARNING! Please study the warnings concerning your input carefully
#  - XTBPATH is not set, using XTBHOME instead
#  - Process number higher than OMP_NUM_THREADS, I hope you know what you are doing.
########################################################################

           ------------------------------------------------- 
          |                 G F N 2 - x T B                 |
          | Geometry, Frequencies, Noncovalent interactions |
          |            JCTC 2018 parametrisation            |
           ------------------------------------------------- 
 
             k(s)              :                1.8500
             k(p)              :                2.2300
             k(d)              :                2.2300
             k(f)              :                2.0000
             kEN (H0ij)        :               -2.0000
             D4 a1             :                0.5200
             D4 a2             :                5.0000
             D4 s6             :                1.0000
             D4 s8             :                2.7000
             D4 s9             :                5.0000
             alphaj            :                2.0000

  Z AO/shell   Hii/eV     exponent
  1     Wed Apr 25 08:07:45 CEST 2018   EN: 2.200 GM2: 0.406  GM3: 0.0800  RAES: 1.40
     1s    -10.707211    1.230000
  6     Wed Apr 25 08:07:45 CEST 2018   EN: 2.550 GM2: 0.538  GM3: 0.1500  RAES: 3.00
     2s    -13.970922    2.096432
     2p    -10.063292    1.800000
  7     Wed Apr 25 08:07:45 CEST 2018   EN: 3.040 GM2: 0.461  GM3:-0.0640  RAES: 1.90
     2s    -16.686243    2.339881
     2p    -12.523956    2.014332
  8     Wed Apr 25 08:07:45 CEST 2018   EN: 3.440 GM2: 0.452  GM3:-0.0517  RAES: 1.80
     2s    -20.229985    2.439742
     2p    -15.503117    2.137023
 16     Tue Apr 24 11:44:34 CEST 2018   EN: 2.580 GM2: 0.340  GM3:-0.0502  RAES: 3.10
     3s    -20.029654    1.981333
     3p    -11.377694    2.025643
     3d     -0.420282    1.702555

 Solvent             : h2o
 Using internal parameter file: .param_gbsa2_h2o
 Gsolv ref. state (COSMO-RS): gsolv [1 M gas/solution]
 temperature (mdtemp)       :    298.150000000000     
 dielectric constant        :    80.2000000000000     
 rho                        :    1.00000000000000     
 mass                       :    18.0000000000000     
 surface tension            :    15.5689454083859     
 probe radius               :   0.975313790000000     
 vdW radii scaling          :    1.00000000000000     
 Gshift (Eh)                :   1.857443126794793E-003
 c1                         :    1.55243817000000     
 soset                      :   0.130326360000000     
 HB correction              :  T
 Number of grid points      :          230

            Z     q(EN)     CN     RAES       Cart. coordinates
     1  N   5.0   -0.71    3.00    1.93   316.03242   139.46913   168.66398
     2  C   4.0    0.07    3.99    3.60   316.40641   137.82419   170.82460
     3  C   4.0    0.29    3.01    3.02   316.31585   139.29300   173.32167
     4  O   6.0   -0.42    1.00    1.80   315.26692   138.38809   175.16595
     5  C   4.0   -0.14    3.98    3.59   318.81554   136.26899   170.55559
     6  C   4.0   -0.12    3.99    3.60   318.37949   134.17028   168.61471
     7  C   4.0    0.28    3.00    3.02   320.80332   132.77185   168.00655
     8  O   6.0   -0.42    1.00    1.80   322.12050   133.37361   166.20243
     9  N   5.0   -0.63    3.00    1.93   321.37806   130.86184   169.53745
    10  H   1.0    0.27    1.00    1.43   317.31531   139.44978   167.25645
    11  H   1.0    0.12    0.99    1.43   314.78037   136.53255   170.94196
    12  H   1.0    0.13    0.99    1.43   320.38259   137.48303   169.97767
    13  H   1.0    0.13    0.99    1.43   319.29742   135.46093   172.39195
    14  H   1.0    0.11    0.99    1.43   316.97765   132.84885   169.33842
    15  H   1.0    0.12    0.99    1.43   317.67099   134.97096   166.85364
    16  H   1.0    0.27    1.00    1.43   320.41838   130.50768   171.14838
    17  H   1.0    0.33    1.00    1.43   322.85896   129.72170   169.12999
    18  N   5.0   -0.45    3.01    1.93   317.42065   141.56228   173.29121
    19  C   4.0    0.09    3.99    3.60   317.31564   143.30784   175.39623
    20  C   4.0    0.10    3.00    3.02   314.57493   143.84678   176.17281
    21  O   6.0   -0.41    1.00    1.80   313.90011   143.77731   178.38909
    22  C   4.0   -0.03    3.98    3.59   318.61094   145.76683   174.57836
    23  O   6.0   -0.47    1.99    1.82   317.72863   146.38162   172.13066
    24  H   1.0    0.28    1.00    1.43   318.16940   142.24220   171.67288
    25  H   1.0    0.15    0.99    1.43   318.26070   142.46100   177.03887
    26  H   1.0    0.11    0.99    1.43   318.15693   147.24407   175.94915
    27  H   1.0    0.11    0.99    1.43   320.66281   145.47291   174.53783
    28  H   1.0    0.25    0.99    1.43   318.01462   148.15282   171.80254
    29  N   5.0   -0.68    3.00    1.93   311.99422   138.47105   179.42250
    30  C   4.0    0.09    3.98    3.59   313.07311   138.30120   181.92996
    31  C   4.0    0.09    3.00    3.02   311.55436   139.93146   183.75055
    32  O   6.0   -0.39    1.00    1.80   311.00812   139.19844   185.88386
    33  C   4.0   -0.08    3.98    3.59   315.81541   139.16777   181.93215
    34  C   4.0    0.33    2.99    3.02   317.58341   137.43186   180.30448
    35  O   6.0   -0.39    1.00    1.80   317.09210   135.12331   180.27352
    36  O   6.0   -0.39    1.00    1.80   319.36278   138.50733   179.22689
    37  H   1.0    0.34    1.00    1.43   313.21046   138.72775   177.96230
    38  H   1.0    0.14    0.99    1.43   312.97669   136.34055   182.61640
    39  H   1.0    0.15    0.99    1.43   315.96273   141.09007   181.20801
    40  H   1.0    0.12    0.99    1.43   316.55458   139.11854   183.85950
    41  N   5.0   -0.69    3.00    1.93   320.30853   124.50493   172.97740
    42  C   4.0    0.07    3.99    3.60   322.93067   124.52016   173.78708
    43  C   4.0    0.29    3.01    3.02   324.51690   126.29627   172.15522
    44  O   6.0   -0.39    1.00    1.80   324.33555   126.30756   169.84252
    45  C   4.0   -0.14    3.98    3.59   323.97767   121.82811   173.60162
    46  C   4.0   -0.17    3.99    3.60   322.74923   120.15659   175.61393
    47  C   4.0   -0.16    3.98    3.58   322.82474   117.34127   174.97591
    48  C   4.0   -0.06    3.98    3.59   321.32082   115.94933   176.99714
    49  N   5.0   -0.73    3.98    2.81   321.09892   113.19600   176.50188
    50  H   1.0    0.26    1.00    1.43   319.65402   122.92044   172.14003
    51  H   1.0    0.11    0.99    1.43   322.98025   125.18307   175.74537
    52  H   1.0    0.13    0.99    1.43   323.58229   121.12724   171.70099
    53  H   1.0    0.13    0.99    1.43   326.02512   121.89036   173.82812
    54  H   1.0    0.11    0.99    1.43   323.66622   120.49188   177.43009
    55  H   1.0    0.11    0.99    1.43   320.78708   120.74867   175.84370
    56  H   1.0    0.11    0.99    1.43   321.98305   117.05182   173.11707
    57  H   1.0    0.11    0.99    1.43   324.77987   116.70330   174.92665
    58  H   1.0    0.11    0.99    1.43   322.20699   116.24097   178.83377
    59  H   1.0    0.10    0.99    1.43   319.41851   116.73580   177.08802
    60  H   1.0    0.23    0.99    1.43   319.77350   112.51072   177.78424
    61  H   1.0    0.24    1.00    1.43   320.46488   112.88810   174.68933
    62  H   1.0    0.24    1.00    1.43   322.81169   112.30879   176.73379
    63  N   5.0   -0.49    3.01    1.93   326.14909   127.76696   173.40705
    64  C   4.0    0.09    4.00    3.62   328.18905   129.00479   172.07622
    65  C   4.0    0.29    3.01    3.02   330.00219   126.98943   171.04162
    66  O   6.0   -0.41    1.00    1.80   330.35571   124.98479   172.13740
    67  C   4.0   -0.12    3.99    3.60   329.72386   130.70330   173.86272
    68  C   4.0   -0.04    3.03    3.02   328.57357   133.28083   174.16971
    69  C   4.0   -0.09    3.03    3.02   326.78128   133.76819   176.02832
    70  C   4.0   -0.10    3.03    3.02   329.29327   135.23944   172.57936
    71  C   4.0   -0.07    3.03    3.02   325.74341   136.14867   176.30648
    72  C   4.0   -0.10    3.03    3.02   328.30865   137.63982   172.86739
    73  C   4.0    0.10    3.03    3.02   326.52258   138.11242   174.73571
    74  O   6.0   -0.46    1.99    1.83   325.53824   140.45389   175.09563
    75  H   1.0    0.28    1.00    1.43   326.29357   127.68659   175.31799
    76  H   1.0    0.14    0.99    1.43   327.42924   130.11484   170.50015
    77  H   1.0    0.13    0.99    1.43   329.84629   129.76135   175.69308
    78  H   1.0    0.12    0.99    1.43   331.62592   130.89003   173.07898
    79  H   1.0    0.14    0.99    1.43   326.20135   132.25715   177.27231
    80  H   1.0    0.14    1.00    1.43   330.65744   134.89903   171.10015
    81  H   1.0    0.15    0.99    1.43   324.29256   136.53151   177.69122
    82  H   1.0    0.13    0.99    1.43   328.92832   139.15002   171.63563
    83  H   1.0    0.25    0.99    1.43   326.18271   141.58244   173.80900
    84  N   5.0   -0.48    3.01    1.93   331.18310   127.63730   168.90243
    85  C   4.0    0.07    3.99    3.61   333.42985   126.29610   168.07424
    86  C   4.0    0.28    3.01    3.02   335.58920   127.19515   169.79540
    87  O   6.0   -0.45    1.00    1.80   335.73520   129.41329   170.45790
    88  C   4.0   -0.14    3.98    3.59   333.90681   126.87033   165.28610
    89  C   4.0   -0.17    3.98    3.59   336.19158   125.47400   164.20982
    90  C   4.0   -0.16    3.98    3.59   336.49321   126.06877   161.39717
    91  C   4.0   -0.06    3.98    3.58   338.75483   124.66926   160.28729
    92  N   5.0   -0.73    3.98    2.82   339.03650   125.27667   157.55367
    93  H   1.0    0.29    1.00    1.43   330.93757   129.39341   168.17298
    94  H   1.0    0.13    0.99    1.43   333.09734   124.27737   168.37993
    95  H   1.0    0.12    0.99    1.43   332.20201   126.34949   164.24998
    96  H   1.0    0.13    0.99    1.43   334.14163   128.91159   165.09579
    97  H   1.0    0.13    0.99    1.43   337.89122   126.03169   165.23642
    98  H   1.0    0.11    0.99    1.43   335.92470   123.44663   164.46375
    99  H   1.0    0.11    0.99    1.43   334.75974   125.51790   160.42753
   100  H   1.0    0.11    0.99    1.43   336.72622   128.10505   161.17823
   101  H   1.0    0.12    0.99    1.43   340.47411   125.21639   161.28331
   102  H   1.0    0.11    0.99    1.43   338.48837   122.63730   160.49881
   103  H   1.0    0.24    1.00    1.43   340.55059   124.32195   156.78724
   104  H   1.0    0.24    1.00    1.43   337.41664   124.77699   156.59130
   105  H   1.0    0.24    1.00    1.43   339.31624   127.19106   157.32177
   106  N   5.0   -0.48    3.01    1.93   337.19107   125.40752   170.58217
   107  C   4.0    0.07    3.99    3.60   339.12707   125.86980   172.45635
   108  C   4.0    0.07    3.00    3.02   341.72996   125.65144   171.21066
   109  O   6.0   -0.40    1.00    1.80   342.15163   124.16394   169.49722
   110  C   4.0   -0.09    3.98    3.58   338.85727   123.97063   174.65296
   111  C   4.0   -0.23    3.98    3.59   340.88582   124.41106   176.65391
   112  C   4.0   -0.21    3.98    3.59   336.23811   124.20313   175.84510
   113  H   1.0    0.24    1.00    1.43   337.05351   123.61719   169.94213
   114  H   1.0    0.14    0.99    1.43   338.85884   127.79994   173.15010
   115  H   1.0    0.12    0.99    1.43   339.09405   122.06643   173.87684
   116  H   1.0    0.11    0.99    1.43   340.57531   123.15533   178.24938
   117  H   1.0    0.11    0.99    1.43   342.77035   124.03809   175.92212
   118  H   1.0    0.11    0.99    1.43   340.81353   126.34808   177.33832
   119  H   1.0    0.11    0.99    1.43   336.01941   122.80342   177.33143
   120  H   1.0    0.11    0.99    1.43   336.02043   126.06632   176.68174
   121  H   1.0    0.14    0.99    1.43   334.73434   123.92841   174.47139
   122  N   5.0   -0.67    3.00    1.93   349.93769   134.91313   181.65276
   123  C   4.0    0.08    3.98    3.59   347.87192   133.81987   180.22921
   124  C   4.0    0.29    3.01    3.02   346.78458   135.73851   178.34516
   125  O   6.0   -0.39    1.00    1.80   346.98346   138.01731   178.69309
   126  C   4.0   -0.14    4.00    3.63   345.74362   133.00667   182.01134
   127  C   4.0   -0.14    3.98    3.58   346.57112   131.05779   183.96535
   128  S   6.0   -0.15    2.01    3.10   347.96324   128.20438   182.59358
   129  C   4.0   -0.20    3.98    3.58   345.24247   126.99725   180.89734
   130  H   1.0    0.27    1.00    1.43   349.57325   135.59466   183.40462
   131  H   1.0    0.11    0.99    1.43   348.59179   132.17532   179.19647
   132  H   1.0    0.11    0.99    1.43   345.05777   134.67830   183.01037
   133  H   1.0    0.12    0.99    1.43   344.20537   132.24367   180.86999
   134  H   1.0    0.11    0.99    1.43   348.02434   131.81649   185.21045
   135  H   1.0    0.10    0.99    1.43   344.95699   130.45098   185.09061
   136  H   1.0    0.11    0.99    1.43   345.61115   125.01365   180.52532
   137  H   1.0    0.11    0.99    1.43   343.57155   127.19158   182.06950
   138  H   1.0    0.11    0.99    1.43   345.03831   128.00140   179.11892
   139  N   5.0   -0.48    3.01    1.93   345.52549   134.73956   176.40403
   140  C   4.0    0.10    3.99    3.61   344.06634   136.26317   174.66360
   141  C   4.0    0.26    3.01    3.02   341.73797   134.74911   173.84651
   142  O   6.0   -0.42    1.00    1.80   341.90225   132.49684   173.31165
   143  C   4.0   -0.00    3.98    3.58   345.55993   136.97111   172.27273
   144  O   6.0   -0.42    1.99    1.82   347.52528   138.66740   172.88483
   145  H   1.0    0.24    1.00    1.43   345.61818   132.85629   176.02741
   146  H   1.0    0.16    0.99    1.43   343.50214   137.99452   175.64543
   147  H   1.0    0.13    0.99    1.43   346.32767   135.24712   171.41832
   148  H   1.0    0.12    0.99    1.43   344.23578   137.85749   170.94411
   149  H   1.0    0.26    0.99    1.43   348.31596   139.16478   171.31593
   150  N   5.0   -0.48    3.01    1.93   339.61326   136.07679   173.68551
   151  C   4.0    0.08    4.00    3.61   337.20689   134.94360   173.04873
   152  C   4.0    0.28    3.01    3.02   336.14630   136.26336   170.70475
   153  O   6.0   -0.46    1.00    1.80   336.11622   138.57741   170.54884
   154  C   4.0   -0.12    3.99    3.60   335.37198   135.26992   175.28430
   155  C   4.0   -0.02    3.03    3.02   336.47498   134.14523   177.64363
   156  C   4.0   -0.09    3.03    3.02   337.83447   135.62750   179.32822
   157  C   4.0   -0.10    3.03    3.02   336.21595   131.58108   178.14993
   158  C   4.0   -0.10    3.03    3.02   338.87195   134.58220   181.48540
   159  C   4.0   -0.09    3.03    3.02   337.25859   130.51161   180.29083
   160  C   4.0    0.09    3.03    3.02   338.58993   132.02068   181.98601
   161  O   6.0   -0.51    1.99    1.83   339.57723   130.93575   184.09837
   162  H   1.0    0.29    1.00    1.43   339.57742   137.91737   174.23369
   163  H   1.0    0.16    0.99    1.43   337.54492   132.94367   172.65879
   164  H   1.0    0.11    0.99    1.43   335.03927   137.28646   175.54351
   165  H   1.0    0.10    0.99    1.43   333.58256   134.36882   174.81590
   166  H   1.0    0.14    1.00    1.43   338.09358   137.61903   178.96330
   167  H   1.0    0.11    1.00    1.43   335.16154   130.41958   176.84474
   168  H   1.0    0.11    1.00    1.43   339.89942   135.77504   182.78454
   169  H   1.0    0.13    1.00    1.43   337.03956   128.52455   180.69568
   170  H   1.0    0.24    0.99    1.43   340.25448   132.23416   185.19120
   171  N   5.0   -0.48    3.01    1.93   335.27400   134.73336   168.90383
   172  C   4.0    0.10    4.00    3.61   334.33313   135.64820   166.50396
   173  C   4.0    0.26    3.01    3.02   331.59122   134.81261   166.15333
   174  O   6.0   -0.46    1.00    1.80   330.95472   132.61151   166.51776
   175  C   4.0    0.04    3.98    3.58   335.95052   134.61891   164.31439
   176  O   6.0   -0.46    1.99    1.82   338.48585   135.25090   164.84905
   177  C   4.0   -0.21    3.98    3.59   335.06067   135.71283   161.79696
   178  H   1.0    0.29    1.00    1.43   335.33076   132.83510   169.17624
   179  H   1.0    0.16    0.99    1.43   334.45026   137.70811   166.53163
   180  H   1.0    0.12    0.99    1.43   335.74532   132.54577   164.30246
   181  H   1.0    0.24    0.99    1.43   339.54211   134.64050   163.48826
   182  H   1.0    0.10    0.99    1.43   336.22171   135.01345   160.25446
   183  H   1.0    0.15    0.99    1.43   333.09948   135.21460   161.43912
   184  H   1.0    0.13    0.99    1.43   335.20563   137.76395   161.84007
   185  N   5.0   -0.47    3.01    1.93   329.99238   136.63293   165.48345
   186  C   4.0    0.09    3.99    3.60   327.33842   136.15854   165.06007
   187  C   4.0    0.11    3.00    3.02   326.74332   135.91692   162.23800
   188  O   6.0   -0.37    1.00    1.80   328.34906   136.15968   160.57986
   189  C   4.0   -0.09    3.98    3.59   325.74527   138.22254   166.29254
   190  C   4.0    0.32    2.99    3.02   326.29527   140.87504   165.14689
   191  O   6.0   -0.40    1.00    1.80   326.56277   140.99158   162.79575
   192  O   6.0   -0.43    1.00    1.80   326.38607   142.67261   166.64268
   193  H   1.0    0.30    1.00    1.43   330.64730   138.40014   165.13916
   194  H   1.0    0.16    0.99    1.43   326.89706   134.32760   165.92778
   195  H   1.0    0.12    0.99    1.43   323.74713   137.81174   166.00915
   196  H   1.0    0.12    0.99    1.43   326.12153   138.27540   168.31806
   197  N   5.0   -0.68    3.00    1.93   331.19327   143.59170   160.82730
   198  C   4.0    0.07    3.99    3.60   332.31427   145.16438   162.77292
   199  C   4.0    0.28    3.01    3.02   333.80184   143.46758   164.58452
   200  O   6.0   -0.42    1.00    1.80   333.00971   141.39952   165.26290
   201  C   4.0   -0.14    3.98    3.59   330.28962   146.69762   164.14439
   202  C   4.0   -0.17    3.98    3.59   331.42350   148.56620   166.03043
   203  C   4.0   -0.15    3.98    3.59   329.34094   150.06852   167.35443
   204  C   4.0   -0.06    3.98    3.58   330.45978   151.84352   169.33163
   205  N   5.0   -0.73    3.98    2.82   328.42541   153.30423   170.61257
   206  H   1.0    0.32    1.00    1.43   329.43757   142.88084   161.16199
   207  H   1.0    0.10    0.99    1.43   333.64854   146.42936   161.81451
   208  H   1.0    0.11    0.99    1.43   329.20590   147.70795   162.70882
   209  H   1.0    0.17    0.99    1.43   329.00624   145.39813   165.10790
   210  H   1.0    0.13    0.99    1.43   332.52992   147.52905   167.42802
   211  H   1.0    0.11    0.99    1.43   332.69546   149.84825   165.03514
   212  H   1.0    0.11    0.99    1.43   328.30238   151.13301   165.92969
   213  H   1.0    0.12    0.99    1.43   328.04497   148.72330   168.22708
   214  H   1.0    0.10    0.99    1.43   331.48813   150.74790   170.74141
   215  H   1.0    0.11    0.99    1.43   331.76897   153.15500   168.43072
   216  H   1.0    0.24    1.00    1.43   329.17185   154.47577   171.97784
   217  H   1.0    0.24    1.00    1.43   327.45397   154.38980   169.30813
   218  H   1.0    0.24    1.00    1.43   327.16015   152.08045   171.44779
   219  N   5.0   -0.49    3.01    1.93   335.98002   144.46975   165.38367
   220  C   4.0    0.08    3.99    3.60   337.80274   143.19061   166.96701
   221  C   4.0    0.27    3.01    3.02   338.22054   144.76977   169.34979
   222  O   6.0   -0.43    1.00    1.80   339.01749   146.94710   169.20089
   223  C   4.0    0.05    3.98    3.59   340.35892   143.01487   165.54397
   224  O   6.0   -0.46    1.99    1.82   341.10310   145.41895   164.68921
   225  C   4.0   -0.19    3.98    3.59   340.16263   141.22968   163.29635
   226  H   1.0    0.25    1.00    1.43   336.66382   146.04108   164.53570
   227  H   1.0    0.15    0.99    1.43   337.08924   141.31463   167.43666
   228  H   1.0    0.12    0.99    1.43   341.77125   142.26921   166.89048
   229  H   1.0    0.30    0.99    1.43   340.93482   146.60115   166.09352
   230  H   1.0    0.12    0.99    1.43   341.96274   141.17786   162.31452
   231  H   1.0    0.12    0.99    1.43   339.67688   139.35221   163.96645
   232  H   1.0    0.13    0.99    1.43   338.72339   141.88726   161.98259
   233  N   5.0   -0.49    3.01    1.93   337.67766   143.62122   171.52051
   234  C   4.0    0.08    4.00    3.62   338.10762   144.82518   173.93649
   235  C   4.0    0.28    3.01    3.02   340.05306   143.33180   175.46027
   236  O   6.0   -0.46    1.00    1.80   339.93476   141.02551   175.74226
   237  C   4.0   -0.08    3.98    3.58   335.62170   145.17262   175.43834
   238  C   4.0   -0.14    3.98    3.58   334.28532   142.63943   175.86443
   239  C   4.0   -0.22    3.98    3.59   333.93713   147.06176   174.04928
   240  C   4.0   -0.23    3.98    3.58   332.05284   142.82205   177.67671
   241  H   1.0    0.29    1.00    1.43   337.10290   141.78857   171.51846
   242  H   1.0    0.14    0.99    1.43   338.91329   146.68730   173.52189
   243  H   1.0    0.12    0.99    1.43   336.16199   145.95283   177.27927
   244  H   1.0    0.13    0.99    1.43   333.64202   141.88392   174.05353
   245  H   1.0    0.13    0.99    1.43   335.66439   141.32052   176.64360
   246  H   1.0    0.10    0.99    1.43   332.32057   147.54126   175.21598
   247  H   1.0    0.11    0.99    1.43   335.00824   148.76576   173.63487
   248  H   1.0    0.12    0.99    1.43   333.28654   146.23453   172.28143
   249  H   1.0    0.11    0.99    1.43   331.25976   140.95194   177.98828
   250  H   1.0    0.11    0.99    1.43   332.66322   143.59389   179.47973
   251  H   1.0    0.11    0.99    1.43   330.57399   144.01533   176.90630
   252  N   5.0   -0.47    3.01    1.93   341.86946   144.72846   176.48498
   253  C   4.0    0.09    4.00    3.61   343.80663   143.69189   178.11026
   254  C   4.0    0.28    3.01    3.02   342.65782   142.88455   180.64418
   255  O   6.0   -0.39    1.00    1.80   340.79754   143.91964   181.54402
   256  C   4.0   -0.09    3.98    3.59   345.76983   145.73798   178.68399
   257  C   4.0    0.32    2.99    3.02   346.62468   147.01588   176.17708
   258  O   6.0   -0.34    1.00    1.80   348.69287   146.32440   175.26393
   259  O   6.0   -0.39    1.00    1.80   345.16177   148.59602   175.25075
   260  H   1.0    0.27    1.00    1.43   342.06178   146.59177   176.06776
   261  H   1.0    0.16    0.99    1.43   344.69824   142.06173   177.19075
   262  H   1.0    0.14    0.99    1.43   344.90243   147.18873   179.86864
   263  H   1.0    0.14    0.99    1.43   347.37016   144.91161   179.67764
   264  N   5.0   -0.47    3.01    1.93   343.92963   141.02049   181.78437
   265  C   4.0    0.01    3.99    3.60   343.51772   140.31738   184.37808
   266  C   4.0    0.06    3.00    3.02   345.89068   140.82962   185.96236
   267  O   6.0   -0.36    1.00    1.80   347.69859   141.98441   185.14230
   268  H   1.0    0.30    1.00    1.43   345.43581   140.22543   180.89641
   269  H   1.0    0.14    0.99    1.43   341.94493   141.45561   185.09108
   270  H   1.0    0.09    0.99    1.43   343.02463   138.31206   184.50052
   271  N   5.0   -0.67    3.00    1.93   338.37511   120.14477   192.20328
   272  C   4.0    0.06    3.98    3.58   336.78585   121.68629   190.58399
   273  C   4.0    0.09    3.00    3.02   335.17835   119.96269   188.88887
   274  O   6.0   -0.37    1.00    1.80   336.03780   118.05564   187.91267
   275  C   4.0   -0.13    3.99    3.60   338.36762   123.45362   188.93319
   276  C   4.0   -0.11    3.98    3.58   339.78154   125.49100   190.43495
   277  C   4.0   -0.23    3.98    3.59   341.64695   126.85713   188.70635
   278  C   4.0   -0.22    3.98    3.59   337.96861   127.41129   191.60102
   279  H   1.0    0.27    1.00    1.43   340.05374   119.51103   191.52204
   280  H   1.0    0.11    0.99    1.43   335.50924   122.76155   191.80309
   281  H   1.0    0.12    0.99    1.43   339.73237   122.30372   187.89746
   282  H   1.0    0.12    0.99    1.43   337.12114   124.34646   187.55113
   283  H   1.0    0.11    0.99    1.43   340.83546   124.57536   191.96669
   284  H   1.0    0.10    0.99    1.43   342.63925   128.31248   189.76533
   285  H   1.0    0.10    0.99    1.43   343.03000   125.54637   187.94297
   286  H   1.0    0.12    0.99    1.43   340.63720   127.73892   187.14893
   287  H   1.0    0.11    0.99    1.43   339.01453   128.87941   192.59124
   288  H   1.0    0.12    0.99    1.43   336.82207   128.31604   190.15334
   289  H   1.0    0.11    0.99    1.43   336.69345   126.54263   192.96067
   290  N   5.0   -0.72    3.00    1.93   321.26349   125.45618   182.26990
   291  C   4.0    0.08    3.98    3.59   322.60114   127.44538   180.97028
   292  C   4.0    0.28    3.01    3.02   325.39524   126.82267   180.52660
   293  O   6.0   -0.49    1.00    1.80   326.56559   127.88519   178.83025
   294  C   4.0   -0.09    3.98    3.59   322.38483   130.00031   182.31612
   295  C   4.0    0.32    2.99    3.02   323.82691   130.10504   184.85616
   296  O   6.0   -0.46    1.00    1.80   324.27126   132.23737   185.74881
   297  O   6.0   -0.42    1.00    1.80   324.46037   128.05705   185.84721
   298  H   1.0    0.29    1.00    1.43   321.53342   125.35041   184.15748
   299  H   1.0    0.11    0.99    1.43   321.73058   127.63042   179.09539
   300  H   1.0    0.12    0.99    1.43   323.08435   131.49652   181.08025
   301  H   1.0    0.12    0.99    1.43   320.39768   130.41746   182.69498
   302  N   5.0   -0.48    3.00    1.93   326.45239   125.06819   182.00050
   303  C   4.0    0.02    3.99    3.61   329.01864   124.23064   181.67970
   304  C   4.0    0.26    3.00    3.02   330.94965   125.29232   183.55245
   305  O   6.0   -0.44    1.00    1.80   333.04847   124.35220   183.72005
   306  H   1.0    0.27    1.00    1.43   325.53159   124.46984   183.55899
   307  H   1.0    0.11    0.99    1.43   329.07240   122.16933   181.77407
   308  H   1.0    0.14    0.99    1.43   329.63804   124.81833   179.79398
   309  N   5.0   -0.48    3.00    1.93   330.21481   127.34317   184.84261
   310  C   4.0    0.06    3.99    3.60   331.88653   128.73375   186.48850
   311  C   4.0    0.06    3.00    3.02   330.85805   128.99075   189.18467
   312  O   6.0   -0.42    1.00    1.80   331.77582   130.49799   190.68146
   313  C   4.0   -0.13    3.98    3.59   332.51292   131.36185   185.42778
   314  C   4.0   -0.13    3.98    3.59   330.13452   132.82561   184.69316
   315  C   4.0   -0.15    3.98    3.59   330.65780   135.66027   184.53968
   316  C   4.0   -0.05    3.98    3.58   328.40244   137.14979   183.54995
   317  N   5.0   -0.72    3.98    2.81   326.20270   136.97163   185.28944
   318  H   1.0    0.29    1.00    1.43   328.38395   127.88655   184.79454
   319  H   1.0    0.13    0.99    1.43   333.63895   127.62805   186.62880
   320  H   1.0    0.13    0.99    1.43   333.51658   132.37169   186.91903
   321  H   1.0    0.12    0.99    1.43   333.75614   131.17469   183.79661
   322  H   1.0    0.13    0.99    1.43   329.44730   132.15586   182.86559
   323  H   1.0    0.16    0.99    1.43   328.67467   132.45006   186.10026
   324  H   1.0    0.11    0.99    1.43   331.20005   136.34826   186.40614
   325  H   1.0    0.10    0.99    1.43   332.24417   135.97738   183.26388
   326  H   1.0    0.11    0.99    1.43   328.91969   139.13514   183.35359
   327  H   1.0    0.11    0.99    1.43   327.82934   136.42452   181.70704
   328  H   1.0    0.26    1.00    1.43   324.77263   138.13441   184.69170
   329  H   1.0    0.31    0.99    1.43   325.46707   135.11447   185.36456
   330  H   1.0    0.25    1.00    1.43   326.72258   137.46919   187.09233
   331  H   1.0    0.30    1.00    1.43   314.56055   139.08284   167.90440
   332  H   1.0    0.15    1.00    1.43   313.28552   144.26816   174.85716
   333  H   1.0    0.31    1.00    1.43   311.15452   137.03532   179.06731
   334  H   1.0    0.16    1.00    1.43   310.97331   141.64974   183.22048
   335  H   1.0    0.29    1.00    1.43   319.29755   124.75203   174.32255
   336  H   1.0    0.13    1.00    1.43   343.15274   126.74867   171.79622
   337  H   1.0    0.30    1.00    1.43   351.15016   133.74296   181.88337
   338  H   1.0    0.15    1.00    1.43   324.97887   135.54484   161.67291
   339  H   1.0    0.29    1.00    1.43   331.04857   144.48597   159.38789
   340  H   1.0    0.12    1.00    1.43   345.99094   140.20494   187.74303
   341  H   1.0    0.28    1.00    1.43   338.78478   121.02425   193.60015
   342  H   1.0    0.13    1.00    1.43   333.36773   120.38833   188.55489
   343  H   1.0    0.30    1.00    1.43   319.58952   125.65810   182.04715
   344  H   1.0    0.15    1.00    1.43   329.41054   127.91563   189.75026

           ------------------------------------------------- 
          |        Self-Consistent Charge Iterations        |
           ------------------------------------------------- 

          ...................................................
          :                      SETUP                      :
          :.................................................:
          :  # basis functions                 848          :
          :  # atomic orbitals                 847          :
          :  # shells                          511          :
          :  # electrons                       942          :
          :  max. iterations                   250          :
          :  Hamiltonian                  GFN2-xTB          :
          :  restarted?                      false          :
          :  GBSA solvation                   true          :
          :  PC potential                    false          :
          :  electronic temp.          500.0000000     K    :
          :  accuracy                    0.1000000          :
          :  -> integral cutoff          0.3500000E+02      :
          :  -> integral neglect         0.1000000E-08      :
          :  -> SCF convergence          0.1000000E-06 Eh   :
          :  -> wf. convergence          0.1000000E-04 e    :
          :  Broyden damping             0.4000000          :
          ...................................................

 iter      E             dE          RMSdq      gap      omega  full diag
   1   -541.8845114 -0.541885E+03  0.441E+00    1.92       0.0  T
   2   -543.4234856 -0.153897E+01  0.225E+00    1.71       1.0  T
   3   -543.4806129 -0.571273E-01  0.122E+00    2.11       1.0  T
   4   -543.5025227 -0.219099E-01  0.316E-01    1.49       1.0  T
   5   -543.5175367 -0.150140E-01  0.122E-01    1.69       1.0  T
   6   -543.5181851 -0.648373E-03  0.565E-02    1.71       1.0  T
   7   -543.5182508 -0.656657E-04  0.247E-02    1.75       1.0  T
   8   -543.5183179 -0.671130E-04  0.916E-03    1.76       1.0  T
   9   -543.5183223 -0.445020E-05  0.459E-03    1.76       1.2  T
  10   -543.5183237 -0.139460E-05  0.179E-03    1.76       3.0  T
  11   -543.5183239 -0.173058E-06  0.800E-04    1.76       6.7  T
  12   -543.5183239 -0.356314E-07  0.397E-04    1.76      13.6  T
  13   -543.5183239 -0.134658E-07  0.198E-04    1.76      27.2  T
  14   -543.5183239 -0.297189E-08  0.878E-05    1.76      61.4  T
  15   -543.5183239 -0.633349E-09  0.391E-05    1.76     137.9  T

   *** convergence criteria satisfied after 15 iterations ***

         #    Occupation            Energy/Eh            Energy/eV
      -------------------------------------------------------------
         1        2.0000           -0.7388604             -20.1054
       ...           ...                  ...                  ...
       465        2.0000           -0.3625718              -9.8661
       466        2.0000           -0.3618386              -9.8461
       467        2.0000           -0.3617447              -9.8436
       468        2.0000           -0.3612026              -9.8288
       469        2.0000           -0.3563110              -9.6957
       470        2.0000           -0.3552474              -9.6668
       471        2.0000           -0.3547845              -9.6542 (HOMO)
       472                         -0.2902203              -7.8973 (LUMO)
       473                         -0.2894433              -7.8762
       474                         -0.2891893              -7.8692
       475                         -0.2879909              -7.8366
       476                         -0.2784972              -7.5783
       ...                                ...                  ...
       847                          0.6580461              17.9063
      -------------------------------------------------------------
                  HL-Gap            0.0645642 Eh            1.7569 eV
             Fermi-level           -0.3225707 Eh           -8.7776 eV

 SCC (total)                   0 d,  0 h,  0 min,  3.997 sec
 SCC setup                      ...        0 min,  0.053 sec (  1.315%)
 Dispersion                     ...        0 min,  0.041 sec (  1.030%)
 integral evaluation            ...        0 min,  0.145 sec (  3.633%)
 zeroth order Hamiltonian       ...        0 min,  0.003 sec (  0.072%)
 iterations                     ...        0 min,  3.089 sec ( 77.278%)
 molecular gradient             ...        0 min,  0.635 sec ( 15.888%)
 printout                       ...        0 min,  0.031 sec (  0.782%)

         :::::::::::::::::::::::::::::::::::::::::::::::::::::
         ::                     SUMMARY                     ::
         :::::::::::::::::::::::::::::::::::::::::::::::::::::
         :: total energy             -537.134584752332 Eh   ::
         :: total w/o Gsasa/hb       -537.047535116415 Eh   ::
         :: gradient norm               0.586404166649 Eh/α ::
         :: HOMO-LUMO gap               1.756882455492 eV   ::
         ::.................................................::
         :: SCC energy               -543.530098720663 Eh   ::
         :: -> isotropic ES             2.097670160029 Eh   ::
         :: -> anisotropic ES          -0.108137566082 Eh   ::
         :: -> anisotropic XC           0.162370006462 Eh   ::
         :: -> dispersion              -0.423380187645 Eh   ::
         :: -> Gsolv                   -0.647560403173 Eh   ::
         ::    -> Gborn                -0.560510767255 Eh   ::
         ::    -> Gsasa                -0.013632228210 Eh   ::
         ::    -> Ghb                  -0.075274850834 Eh   ::
         ::    -> Gshift                0.001857443127 Eh   ::
         :: repulsion energy            6.357056796534 Eh   ::
         :: add. restraining            0.000000000000 Eh   ::
         :::::::::::::::::::::::::::::::::::::::::::::::::::::

           -------------------------------------------------
          |                Property Printout                |
           -------------------------------------------------

    * Orbital Energies and Occupations

         #    Occupation            Energy/Eh            Energy/eV
      -------------------------------------------------------------
         1        2.0000           -0.7388604             -20.1054
       ...           ...                  ...                  ...
       459        2.0000           -0.3812609             -10.3746
       460        2.0000           -0.3781537             -10.2901
       461        2.0000           -0.3773719             -10.2688
       462        2.0000           -0.3734802             -10.1629
       463        2.0000           -0.3648493              -9.9281
       464        2.0000           -0.3635004              -9.8913
       465        2.0000           -0.3625718              -9.8661
       466        2.0000           -0.3618386              -9.8461
       467        2.0000           -0.3617447              -9.8436
       468        2.0000           -0.3612026              -9.8288
       469        2.0000           -0.3563110              -9.6957
       470        2.0000           -0.3552474              -9.6668
       471        2.0000           -0.3547845              -9.6542 (HOMO)
       472                         -0.2902203              -7.8973 (LUMO)
       473                         -0.2894433              -7.8762
       474                         -0.2891893              -7.8692
       475                         -0.2879909              -7.8366
       476                         -0.2784972              -7.5783
       477                         -0.2755049              -7.4969
       478                         -0.2716055              -7.3908
       479                         -0.2357243              -6.4144
       480                         -0.2336246              -6.3572
       481                         -0.2328964              -6.3374
       482                         -0.2311477              -6.2898
       ...                                ...                  ...
       847                          0.6580461              17.9063
      -------------------------------------------------------------
                  HL-Gap            0.0645642 Eh            1.7569 eV
             Fermi-level           -0.3225707 Eh           -8.7776 eV

   #   Z        covCN         q      C6AA      α(0)
   1   7 N      2.634    -0.393    30.178     8.159
   2   6 C      3.789     0.033    20.029     6.374
   3   6 C      2.752     0.274    22.363     7.744
   4   8 O      0.858    -0.507    23.937     6.560
   5   6 C      3.806    -0.050    21.474     6.597
   6   6 C      3.810    -0.096    22.316     6.724
   7   6 C      2.744     0.290    22.074     7.693
   8   8 O      0.859    -0.507    23.949     6.561
   9   7 N      2.639    -0.274    27.077     7.728
  10   1 H      0.860     0.165     1.302     1.787
  11   1 H      0.923     0.041     2.432     2.439
  12   1 H      0.924     0.043     2.410     2.428
  13   1 H      0.924     0.031     2.569     2.507
  14   1 H      0.925     0.060     2.194     2.316
  15   1 H      0.924     0.069     2.095     2.263
  16   1 H      0.860     0.209     1.061     1.613
  17   1 H      0.860     0.226     0.983     1.553
  18   7 N      2.692    -0.164    24.543     7.358
  19   6 C      3.789     0.029    20.099     6.385
  20   6 C      2.765     0.205    23.648     7.964
  21   8 O      0.856    -0.361    20.913     6.131
  22   6 C      3.680     0.067    19.659     6.350
  23   8 O      1.655    -0.480    22.476     6.400
  24   1 H      0.860     0.239     0.926     1.507
  25   1 H      0.923     0.082     1.958     2.189
  26   1 H      0.924     0.060     2.202     2.320
  27   1 H      0.924     0.068     2.107     2.270
  28   1 H      0.805     0.367     0.550     1.165
  29   7 N      2.637    -0.400    30.378     8.186
  30   6 C      3.783     0.063    19.549     6.298
  31   6 C      2.769     0.197    23.800     7.990
  32   8 O      0.856    -0.402    21.718     6.248
  33   6 C      3.803    -0.089    22.200     6.708
  34   6 C      2.682     0.381    20.546     7.418
  35   8 O      0.856    -0.645    27.258     7.000
  36   8 O      0.856    -0.616    26.508     6.903
  37   1 H      0.860     0.170     1.271     1.766
  38   1 H      0.923     0.021     2.715     2.577
  39   1 H      0.925     0.043     2.413     2.429
  40   1 H      0.924     0.014     2.828     2.630
  41   7 N      2.636    -0.399    30.348     8.182
  42   6 C      3.789     0.036    19.987     6.367
  43   6 C      2.760     0.268    22.476     7.764
  44   8 O      0.859    -0.500    23.782     6.538
  45   6 C      3.807    -0.069    21.818     6.649
  46   6 C      3.809    -0.072    21.877     6.658
  47   6 C      3.802    -0.091    22.238     6.714
  48   6 C      3.736    -0.052    21.596     6.632
  49   7 N      3.482    -0.148    24.196     7.306
  50   1 H      0.860     0.181     1.208     1.722
  51   1 H      0.924     0.014     2.826     2.629
  52   1 H      0.924     0.060     2.198     2.319
  53   1 H      0.924     0.042     2.427     2.436
  54   1 H      0.924     0.049     2.336     2.390
  55   1 H      0.924     0.049     2.334     2.389
  56   1 H      0.924     0.077     2.009     2.217
  57   1 H      0.925     0.083     1.952     2.185
  58   1 H      0.925     0.117     1.640     2.002
  59   1 H      0.924     0.111     1.685     2.030
  60   1 H      0.858     0.307     0.693     1.304
  61   1 H      0.859     0.301     0.711     1.321
  62   1 H      0.859     0.304     0.703     1.313
  63   7 N      2.691    -0.192    25.163     7.450
  64   6 C      3.800     0.035    19.989     6.366
  65   6 C      2.761     0.275    22.352     7.742
  66   8 O      0.858    -0.484    23.435     6.490
  67   6 C      3.814    -0.070    21.822     6.649
  68   6 C      2.968    -0.000    28.036     8.685
  69   6 C      2.924    -0.041    29.021     8.834
  70   6 C      2.926    -0.041    29.008     8.833
  71   6 C      2.917    -0.058    29.446     8.898
  72   6 C      2.917    -0.071    29.780     8.949
  73   6 C      2.847     0.145    24.845     8.169
  74   8 O      1.659    -0.418    21.203     6.216
  75   1 H      0.860     0.219     1.015     1.578
  76   1 H      0.924     0.046     2.373     2.409
  77   1 H      0.924     0.072     2.061     2.245
  78   1 H      0.924     0.052     2.294     2.369
  79   1 H      0.926     0.046     2.372     2.408
  80   1 H      0.926     0.024     2.669     2.555
  81   1 H      0.926     0.042     2.419     2.432
  82   1 H      0.925     0.032     2.552     2.498
  83   1 H      0.805     0.340     0.612     1.229
  84   7 N      2.695    -0.184    24.982     7.423
  85   6 C      3.797     0.017    20.292     6.414
  86   6 C      2.757     0.272    22.406     7.752
  87   8 O      0.858    -0.499    23.755     6.535
  88   6 C      3.807    -0.078    21.989     6.675
  89   6 C      3.803    -0.077    21.978     6.674
  90   6 C      3.804    -0.093    22.278     6.720
  91   6 C      3.732    -0.053    21.612     6.636
  92   7 N      3.483    -0.148    24.191     7.305
  93   1 H      0.860     0.220     1.009     1.574
  94   1 H      0.924     0.080     1.978     2.199
  95   1 H      0.924     0.073     2.056     2.243
  96   1 H      0.924     0.052     2.298     2.371
  97   1 H      0.924     0.051     2.305     2.374
  98   1 H      0.924     0.070     2.088     2.260
  99   1 H      0.924     0.083     1.948     2.183
 100   1 H      0.924     0.069     2.095     2.264
 101   1 H      0.924     0.119     1.618     1.989
 102   1 H      0.924     0.126     1.563     1.955
 103   1 H      0.859     0.307     0.694     1.305
 104   1 H      0.859     0.300     0.713     1.322
 105   1 H      0.859     0.296     0.726     1.335
 106   7 N      2.691    -0.154    24.338     7.327
 107   6 C      3.794     0.019    20.262     6.410
 108   6 C      2.766     0.202    23.699     7.973
 109   8 O      0.856    -0.349    20.690     6.098
 110   6 C      3.852    -0.014    20.798     6.486
 111   6 C      3.756    -0.123    22.909     6.825
 112   6 C      3.757    -0.119    22.835     6.813
 113   1 H      0.860     0.222     0.999     1.566
 114   1 H      0.924     0.087     1.907     2.160
 115   1 H      0.924     0.061     2.184     2.311
 116   1 H      0.925     0.064     2.149     2.292
 117   1 H      0.925     0.043     2.414     2.430
 118   1 H      0.925     0.045     2.379     2.412
 119   1 H      0.925     0.061     2.193     2.316
 120   1 H      0.925     0.040     2.451     2.448
 121   1 H      0.925     0.050     2.325     2.385
 122   7 N      2.635    -0.383    29.899     8.121
 123   6 C      3.786     0.035    20.003     6.370
 124   6 C      2.757     0.274    22.372     7.746
 125   8 O      0.859    -0.482    23.382     6.483
 126   6 C      3.826    -0.063    21.692     6.627
 127   6 C      3.794    -0.013    20.814     6.497
 128  16 S      1.958    -0.230   150.880    20.674
 129   6 C      3.745    -0.060    21.717     6.648
 130   1 H      0.860     0.154     1.376     1.837
 131   1 H      0.924     0.050     2.324     2.384
 132   1 H      0.924     0.038     2.470     2.458
 133   1 H      0.924     0.045     2.382     2.413
 134   1 H      0.925     0.057     2.230     2.335
 135   1 H      0.925     0.065     2.139     2.287
 136   1 H      0.925     0.071     2.071     2.251
 137   1 H      0.925     0.068     2.105     2.269
 138   1 H      0.925     0.047     2.354     2.399
 139   7 N      2.690    -0.172    24.726     7.385
 140   6 C      3.795     0.021    20.232     6.405
 141   6 C      2.760     0.261    22.599     7.785
 142   8 O      0.858    -0.478    23.308     6.473
 143   6 C      3.678     0.085    19.381     6.307
 144   8 O      1.655    -0.489    22.657     6.426
 145   1 H      0.860     0.211     1.054     1.608
 146   1 H      0.924     0.069     2.095     2.263
 147   1 H      0.924     0.052     2.294     2.368
 148   1 H      0.924     0.023     2.695     2.567
 149   1 H      0.805     0.346     0.598     1.215
 150   7 N      2.693    -0.172    24.727     7.385
 151   6 C      3.799     0.022    20.205     6.400
 152   6 C      2.757     0.274    22.365     7.744
 153   8 O      0.858    -0.494    23.656     6.521
 154   6 C      3.813    -0.074    21.908     6.662
 155   6 C      2.970     0.002    27.980     8.677
 156   6 C      2.924    -0.040    29.005     8.832
 157   6 C      2.926    -0.039    28.971     8.827
 158   6 C      2.918    -0.077    29.916     8.969
 159   6 C      2.917    -0.061    29.506     8.907
 160   6 C      2.846     0.139    24.956     8.187
 161   8 O      1.659    -0.411    21.055     6.194
 162   1 H      0.860     0.225     0.988     1.557
 163   1 H      0.924     0.090     1.882     2.145
 164   1 H      0.925     0.058     2.226     2.333
 165   1 H      0.925     0.057     2.235     2.338
 166   1 H      0.926     0.036     2.499     2.472
 167   1 H      0.926     0.041     2.436     2.441
 168   1 H      0.926     0.039     2.456     2.451
 169   1 H      0.926     0.061     2.183     2.311
 170   1 H      0.805     0.335     0.624     1.241
 171   7 N      2.691    -0.168    24.634     7.371
 172   6 C      3.798     0.016    20.311     6.417
 173   6 C      2.759     0.270    22.435     7.757
 174   8 O      0.858    -0.488    23.523     6.503
 175   6 C      3.727     0.120    18.716     6.176
 176   8 O      1.656    -0.494    22.760     6.440
 177   6 C      3.752    -0.140    23.257     6.877
 178   1 H      0.860     0.231     0.962     1.536
 179   1 H      0.924     0.085     1.928     2.172
 180   1 H      0.923     0.035     2.523     2.484
 181   1 H      0.805     0.355     0.577     1.193
 182   1 H      0.925     0.082     1.962     2.190
 183   1 H      0.925     0.052     2.292     2.368
 184   1 H      0.925     0.050     2.315     2.379
 185   7 N      2.691    -0.158    24.416     7.339
 186   6 C      3.794     0.046    19.804     6.337
 187   6 C      2.765     0.211    23.534     7.945
 188   8 O      0.856    -0.380    21.280     6.185
 189   6 C      3.803    -0.094    22.300     6.723
 190   6 C      2.684     0.374    20.663     7.439
 191   8 O      0.856    -0.622    26.675     6.925
 192   8 O      0.856    -0.605    26.231     6.867
 193   1 H      0.860     0.216     1.027     1.588
 194   1 H      0.924     0.090     1.876     2.142
 195   1 H      0.925     0.043     2.406     2.426
 196   1 H      0.924     0.034     2.524     2.484
 197   7 N      2.636    -0.400    30.385     8.187
 198   6 C      3.788     0.039    19.933     6.359
 199   6 C      2.753     0.278    22.293     7.732
 200   8 O      0.858    -0.492    23.606     6.514
 201   6 C      3.806    -0.071    21.856     6.655
 202   6 C      3.804    -0.069    21.825     6.651
 203   6 C      3.804    -0.089    22.191     6.706
 204   6 C      3.732    -0.048    21.532     6.623
 205   7 N      3.483    -0.149    24.215     7.309
 206   1 H      0.860     0.161     1.332     1.808
 207   1 H      0.924     0.029     2.605     2.524
 208   1 H      0.924     0.042     2.428     2.437
 209   1 H      0.924     0.056     2.249     2.345
 210   1 H      0.924     0.028     2.619     2.531
 211   1 H      0.924     0.050     2.316     2.380
 212   1 H      0.925     0.079     1.987     2.204
 213   1 H      0.924     0.071     2.079     2.255
 214   1 H      0.924     0.107     1.723     2.053
 215   1 H      0.924     0.121     1.604     1.981
 216   1 H      0.859     0.308     0.689     1.300
 217   1 H      0.859     0.304     0.703     1.313
 218   1 H      0.859     0.298     0.718     1.327
 219   7 N      2.693    -0.175    24.793     7.395
 220   6 C      3.793     0.004    20.514     6.450
 221   6 C      2.761     0.267    22.500     7.768
 222   8 O      0.858    -0.498    23.750     6.534
 223   6 C      3.728     0.126    18.623     6.161
 224   8 O      1.655    -0.477    22.411     6.391
 225   6 C      3.753    -0.133    23.117     6.856
 226   1 H      0.860     0.212     1.047     1.603
 227   1 H      0.924     0.078     2.002     2.213
 228   1 H      0.922    -0.003     3.105     2.756
 229   1 H      0.804     0.328     0.642     1.259
 230   1 H      0.925     0.073     2.048     2.238
 231   1 H      0.925     0.071     2.079     2.255
 232   1 H      0.925     0.056     2.240     2.341
 233   7 N      2.689    -0.177    24.823     7.400
 234   6 C      3.802     0.021    20.226     6.403
 235   6 C      2.756     0.272    22.404     7.751
 236   8 O      0.859    -0.498    23.746     6.533
 237   6 C      3.851    -0.019    20.883     6.500
 238   6 C      3.802    -0.058    21.619     6.620
 239   6 C      3.755    -0.124    22.931     6.828
 240   6 C      3.752    -0.116    22.784     6.807
 241   1 H      0.860     0.231     0.962     1.537
 242   1 H      0.924     0.062     2.173     2.305
 243   1 H      0.924     0.044     2.402     2.424
 244   1 H      0.924     0.034     2.526     2.486
 245   1 H      0.924     0.033     2.544     2.494
 246   1 H      0.925     0.076     2.016     2.220
 247   1 H      0.925     0.051     2.309     2.376
 248   1 H      0.925     0.044     2.401     2.423
 249   1 H      0.925     0.041     2.435     2.440
 250   1 H      0.925     0.049     2.332     2.388
 251   1 H      0.925     0.054     2.272     2.357
 252   7 N      2.693    -0.175    24.782     7.394
 253   6 C      3.799     0.045    19.822     6.339
 254   6 C      2.759     0.276    22.336     7.740
 255   8 O      0.858    -0.488    23.525     6.503
 256   6 C      3.807    -0.095    22.309     6.724
 257   6 C      2.685     0.375    20.644     7.436
 258   8 O      0.856    -0.637    27.036     6.971
 259   8 O      0.856    -0.625    26.748     6.934
 260   1 H      0.860     0.212     1.049     1.604
 261   1 H      0.924     0.051     2.307     2.376
 262   1 H      0.924     0.030     2.590     2.517
 263   1 H      0.925     0.037     2.484     2.465
 264   7 N      2.689    -0.172    24.726     7.385
 265   6 C      3.740    -0.024    21.088     6.552
 266   6 C      2.762     0.197    23.801     7.990
 267   8 O      0.856    -0.365    20.991     6.143
 268   1 H      0.860     0.220     1.008     1.573
 269   1 H      0.924     0.129     1.540     1.941
 270   1 H      0.924     0.097     1.815     2.107
 271   7 N      2.635    -0.385    29.953     8.128
 272   6 C      3.782     0.040    19.917     6.357
 273   6 C      2.766     0.202    23.697     7.972
 274   8 O      0.856    -0.365    21.000     6.144
 275   6 C      3.809    -0.067    21.768     6.641
 276   6 C      3.849    -0.008    20.686     6.469
 277   6 C      3.757    -0.119    22.828     6.812
 278   6 C      3.756    -0.112    22.705     6.794
 279   1 H      0.860     0.163     1.317     1.798
 280   1 H      0.924     0.047     2.357     2.401
 281   1 H      0.924     0.048     2.341     2.393
 282   1 H      0.924     0.039     2.458     2.452
 283   1 H      0.924     0.032     2.556     2.500
 284   1 H      0.925     0.042     2.421     2.433
 285   1 H      0.925     0.039     2.457     2.451
 286   1 H      0.925     0.053     2.284     2.363
 287   1 H      0.925     0.045     2.389     2.417
 288   1 H      0.925     0.037     2.492     2.469
 289   1 H      0.925     0.028     2.609     2.526
 290   7 N      2.634    -0.388    30.039     8.140
 291   6 C      3.784     0.047    19.797     6.338
 292   6 C      2.756     0.269    22.453     7.759
 293   8 O      0.859    -0.503    23.858     6.549
 294   6 C      3.803    -0.090    22.218     6.711
 295   6 C      2.685     0.366    20.786     7.461
 296   8 O      0.857    -0.611    26.384     6.887
 297   8 O      0.856    -0.612    26.406     6.890
 298   1 H      0.860     0.164     1.307     1.791
 299   1 H      0.923     0.030     2.593     2.518
 300   1 H      0.924     0.017     2.779     2.607
 301   1 H      0.924     0.018     2.757     2.597
 302   7 N      2.685    -0.157    24.397     7.336
 303   6 C      3.745    -0.040    21.363     6.593
 304   6 C      2.750     0.274    22.374     7.745
 305   8 O      0.858    -0.474    23.211     6.459
 306   1 H      0.860     0.222     1.001     1.567
 307   1 H      0.924     0.107     1.720     2.051
 308   1 H      0.924     0.107     1.725     2.054
 309   7 N      2.688    -0.173    24.745     7.388
 310   6 C      3.791     0.027    20.125     6.389
 311   6 C      2.764     0.200    23.749     7.981
 312   8 O      0.856    -0.354    20.793     6.114
 313   6 C      3.806    -0.076    21.938     6.668
 314   6 C      3.802    -0.069    21.814     6.649
 315   6 C      3.803    -0.089    22.203     6.708
 316   6 C      3.731    -0.033    21.253     6.581
 317   7 N      3.481    -0.162    24.497     7.351
 318   1 H      0.860     0.195     1.133     1.668
 319   1 H      0.923     0.109     1.710     2.045
 320   1 H      0.924     0.083     1.947     2.182
 321   1 H      0.925     0.063     2.169     2.303
 322   1 H      0.924     0.036     2.509     2.477
 323   1 H      0.924     0.048     2.351     2.398
 324   1 H      0.924     0.083     1.950     2.184
 325   1 H      0.924     0.082     1.955     2.186
 326   1 H      0.924     0.113     1.669     2.020
 327   1 H      0.924     0.089     1.891     2.151
 328   1 H      0.859     0.273     0.800     1.401
 329   1 H      0.856     0.293     0.736     1.344
 330   1 H      0.859     0.290     0.743     1.350
 331   1 H      0.862     0.190     1.159     1.686
 332   1 H      0.930     0.085     1.923     2.168
 333   1 H      0.862     0.173     1.252     1.753
 334   1 H      0.930     0.071     2.073     2.251
 335   1 H      0.862     0.170     1.271     1.766
 336   1 H      0.930     0.074     2.045     2.236
 337   1 H      0.862     0.188     1.170     1.694
 338   1 H      0.930     0.065     2.136     2.285
 339   1 H      0.862     0.181     1.208     1.722
 340   1 H      0.930     0.097     1.817     2.108
 341   1 H      0.862     0.180     1.212     1.724
 342   1 H      0.930     0.059     2.212     2.326
 343   1 H      0.862     0.181     1.209     1.722
 344   1 H      0.930     0.068     2.110     2.272

 Mol. C6AA /au·bohr⁶  :    1090091.051767
 Mol. C8AA /au·bohr⁸  :   24353545.145148
 Mol. α(0) /au        :       1561.740825


Wiberg/Mayer (AO) data.
largest (>0.10) Wiberg bond orders for each atom
          total WBO             WBO to atom ...
     1  N   2.996        C    2 1.018    H  331 0.954    H   10 0.953
     2  C   3.987        N    1 1.018    C    5 0.979    H   11 0.959    C    3 0.931
     3  C   3.939        O    4 1.616    N   18 1.310    C    2 0.931
     4  O   1.968        C    3 1.616    N   18 0.196
     5  C   3.994        C    6 0.989    C    2 0.979    H   13 0.976    H   12 0.973
     6  C   3.993        C    5 0.989    H   14 0.970    H   15 0.968    C    7 0.966
     7  C   3.944        O    8 1.629    N    9 1.322    C    6 0.966
     8  O   1.933        C    7 1.629    N    9 0.201
     9  N   3.411        C    7 1.322    H   16 0.936    H   17 0.904    O    8 0.201
    10  H   0.973        N    1 0.953
    11  H   0.998        C    2 0.959
    12  H   0.998        C    5 0.973
    13  H   0.999        C    5 0.976
    14  H   0.996        C    6 0.970
    15  H   0.995        C    6 0.968
    16  H   0.956        N    9 0.936
    17  H   0.949        N    9 0.904
    18  N   3.475        C    3 1.310    C   19 0.982    H   24 0.905    O    4 0.196
    19  C   3.968        N   18 0.982    C   20 0.970    C   22 0.964    H   25 0.946
    20  C   3.898        O   21 1.900    C   19 0.970    H  332 0.952
    21  O   2.050        C   20 1.900
    22  C   3.958        O   23 1.008    H   26 0.969    C   19 0.964    H   27 0.961
    23  O   1.925        C   22 1.008    H   28 0.851
    24  H   0.943        N   18 0.905
    25  H   0.993        C   19 0.946
    26  H   0.996        C   22 0.969
    27  H   0.995        C   22 0.961
    28  H   0.865        O   23 0.851
    29  N   2.993        C   30 1.013    H  333 0.959    H   37 0.924
    30  C   3.988        N   29 1.013    C   31 0.984    C   33 0.962    H   38 0.957
    31  C   3.899        O   32 1.853    C   30 0.984    H  334 0.954
    32  O   1.999        C   31 1.853
    33  C   3.981        H   39 0.971    H   40 0.966    C   30 0.962    C   34 0.889
    34  C   3.936        O   36 1.514    O   35 1.501    C   33 0.889
    35  O   1.800        C   34 1.501    O   36 0.215
    36  O   1.820        C   34 1.514    O   35 0.215
    37  H   0.971        N   29 0.924
    38  H   0.999        C   30 0.957
    39  H   0.998        C   33 0.971
    40  H   1.000        C   33 0.966
    41  N   2.993        C   42 1.013    H  335 0.961    H   50 0.948
    42  C   3.985        N   41 1.013    C   45 0.970    H   51 0.961    C   43 0.942
    43  C   3.938        O   44 1.611    N   63 1.302    C   42 0.942
    44  O   1.939        C   43 1.611    N   63 0.190
    45  C   3.989        C   46 1.003    H   53 0.976    H   52 0.971    C   42 0.970
    46  C   3.992        C   45 1.003    C   47 1.002    H   54 0.977    H   55 0.970
    47  C   3.985        C   48 1.011    C   46 1.002    H   57 0.972    H   56 0.970
    48  C   3.919        C   47 1.011    H   59 0.965    H   58 0.964    N   49 0.960
    49  N   3.664        C   48 0.960    H   62 0.895    H   61 0.894    H   60 0.894
    50  H   0.967        N   41 0.948
    51  H   1.000        C   42 0.961
    52  H   0.996        C   45 0.971
    53  H   0.998        C   45 0.976
    54  H   0.998        C   46 0.977
    55  H   0.998        C   46 0.970
    56  H   0.994        C   47 0.970
    57  H   0.993        C   47 0.972
    58  H   0.986        C   48 0.964
    59  H   0.988        C   48 0.965
    60  H   0.906        N   49 0.894
    61  H   0.910        N   49 0.894
    62  H   0.908        N   49 0.895
    63  N   3.461        C   43 1.302    C   64 0.989    H   75 0.886    O   44 0.190
    64  C   3.971        N   63 0.989    C   67 0.963    H   76 0.953    C   65 0.929
    65  C   3.952        O   66 1.636    N   84 1.306    C   64 0.929
    66  O   1.945        C   65 1.636    N   84 0.195
    67  C   3.990        C   68 1.009    H   77 0.965    H   78 0.964    C   64 0.963
    68  C   3.988        C   70 1.409    C   69 1.400    C   67 1.009
    69  C   3.988        C   71 1.462    C   68 1.400    H   79 0.964    C   72 0.104
    70  C   3.991        C   72 1.447    C   68 1.409    H   80 0.965    C   71 0.107
    71  C   3.988        C   69 1.462    C   73 1.359    H   81 0.968    C   70 0.107
    72  C   3.987        C   70 1.447    C   73 1.371    H   82 0.963    C   69 0.104
    73  C   3.941        C   72 1.371    C   71 1.359    O   74 1.080
    74  O   2.105        C   73 1.080    H   83 0.864
    75  H   0.952        N   63 0.886
    76  H   0.997        C   64 0.953
    77  H   0.994        C   67 0.965
    78  H   0.996        C   67 0.964
    79  H   0.998        C   69 0.964
    80  H   0.999        C   70 0.965
    81  H   0.998        C   71 0.968
    82  H   0.999        C   72 0.963
    83  H   0.884        O   74 0.864
    84  N   3.462        C   65 1.306    C   85 0.972    H   93 0.896    O   66 0.195
    85  C   3.957        C   88 0.978    N   84 0.972    H   94 0.953    C   86 0.931
    86  C   3.944        O   87 1.610    N  106 1.315    C   85 0.931
    87  O   1.967        C   86 1.610    N  106 0.195
    88  C   3.982        C   89 1.005    C   85 0.978    H   95 0.969    H   96 0.965
    89  C   3.990        C   88 1.005    C   90 1.003    H   97 0.975    H   98 0.973
    90  C   3.987        C   91 1.012    C   89 1.003    H  100 0.972    H   99 0.970
    91  C   3.914        C   90 1.012    H  101 0.964    H  102 0.962    N   92 0.958
    92  N   3.663        C   91 0.958    H  105 0.897    H  104 0.895    H  103 0.893
    93  H   0.952        N   84 0.896
    94  H   0.993        C   85 0.953
    95  H   0.994        C   88 0.969
    96  H   0.997        C   88 0.965
    97  H   0.997        C   89 0.975
    98  H   0.995        C   89 0.973
    99  H   0.993        C   90 0.970
   100  H   0.995        C   90 0.972
   101  H   0.986        C   91 0.964
   102  H   0.984        C   91 0.962
   103  H   0.906        N   92 0.893
   104  H   0.910        N   92 0.895
   105  H   0.912        N   92 0.897
   106  N   3.490        C   86 1.315    C  107 0.983    H  113 0.919    O   87 0.195
   107  C   3.964        N  106 0.983    C  108 0.978    H  114 0.946    C  110 0.937
   108  C   3.906        O  109 1.904    C  107 0.978    H  336 0.954
   109  O   2.046        C  108 1.904
   110  C   3.986        C  111 1.008    C  112 1.008    H  115 0.964    C  107 0.937
   111  C   3.992        C  110 1.008    H  118 0.984    H  117 0.984    H  116 0.982
   112  C   3.992        C  110 1.008    H  121 0.982    H  120 0.982    H  119 0.981
   113  H   0.950        N  106 0.919
   114  H   0.992        C  107 0.946
   115  H   0.996        C  110 0.964
   116  H   0.995        C  111 0.982
   117  H   0.998        C  111 0.984
   118  H   0.998        C  111 0.984
   119  H   0.995        C  112 0.981
   120  H   0.998        C  112 0.982
   121  H   0.998        C  112 0.982
   122  N   3.002        C  123 1.025    H  130 0.957    H  337 0.954
   123  C   3.986        N  122 1.025    C  126 0.970    H  131 0.957    C  124 0.935
   124  C   3.935        O  125 1.630    N  139 1.285    C  123 0.935
   125  O   1.981        C  124 1.630    N  139 0.186
   126  C   3.995        C  127 1.011    H  133 0.972    C  123 0.970    H  132 0.964
   127  C   3.980        C  126 1.011    S  128 0.990    H  134 0.970    H  135 0.970
   128  S   2.086        C  129 1.011    C  127 0.990
   129  C   3.975        S  128 1.011    H  138 0.984    H  137 0.980    H  136 0.979
   130  H   0.976        N  122 0.957
   131  H   0.997        C  123 0.957
   132  H   0.999        C  126 0.964
   133  H   0.998        C  126 0.972
   134  H   0.997        C  127 0.970
   135  H   0.995        C  127 0.970
   136  H   0.995        C  129 0.979
   137  H   0.995        C  129 0.980
   138  H   0.998        C  129 0.984
   139  N   3.460        C  124 1.285    C  140 0.990    H  145 0.919    O  125 0.186
   140  C   3.971        N  139 0.990    C  143 0.966    H  146 0.951    C  141 0.934
   141  C   3.958        O  142 1.617    N  150 1.334    C  140 0.934
   142  O   1.945        C  141 1.617    N  150 0.206
   143  C   3.957        O  144 0.999    H  148 0.969    H  147 0.967    C  140 0.966
   144  O   1.921        C  143 0.999    H  149 0.867
   145  H   0.955        N  139 0.919
   146  H   0.995        C  140 0.951
   147  H   0.997        C  143 0.967
   148  H   0.999        C  143 0.969
   149  H   0.880        O  144 0.867
   150  N   3.497        C  141 1.334    C  151 0.979    H  162 0.883    O  142 0.206
   151  C   3.957        N  150 0.979    C  154 0.953    H  163 0.950    C  152 0.936
   152  C   3.946        O  153 1.596    N  171 1.329    C  151 0.936
   153  O   1.967        C  152 1.596    N  171 0.196
   154  C   3.987        C  155 1.009    H  164 0.966    H  165 0.960    C  151 0.953
   155  C   3.987        C  156 1.412    C  157 1.402    C  154 1.009
   156  C   3.990        C  158 1.447    C  155 1.412    H  166 0.967    C  159 0.107
   157  C   3.990        C  159 1.460    C  155 1.402    H  167 0.965    C  158 0.105
   158  C   3.986        C  156 1.447    C  160 1.376    H  168 0.961    C  157 0.105
   159  C   3.987        C  157 1.460    C  160 1.360    H  169 0.965    C  156 0.107
   160  C   3.944        C  158 1.376    C  159 1.360    O  161 1.074
   161  O   2.104        C  160 1.074    H  170 0.866
   162  H   0.949        N  150 0.883
   163  H   0.991        C  151 0.950
   164  H   0.996        C  154 0.966
   165  H   0.996        C  154 0.960
   166  H   0.999        C  156 0.967
   167  H   0.998        C  157 0.965
   168  H   0.998        C  158 0.961
   169  H   0.996        C  159 0.965
   170  H   0.888        O  161 0.866
   171  N   3.492        C  152 1.329    C  172 0.983    H  178 0.888    O  153 0.196
   172  C   3.960        N  171 0.983    C  175 0.952    H  179 0.944    C  173 0.936
   173  C   3.949        O  174 1.592    N  185 1.336    C  172 0.936
   174  O   1.949        C  173 1.592    N  185 0.200
   175  C   3.955        C  177 1.001    O  176 0.990    C  172 0.952    H  180 0.951
   176  O   1.931        C  175 0.990    H  181 0.857
   177  C   3.988        C  175 1.001    H  184 0.983    H  183 0.979    H  182 0.979
   178  H   0.946        N  171 0.888
   179  H   0.992        C  172 0.944
   180  H   0.999        C  175 0.951
   181  H   0.874        O  176 0.857
   182  H   0.992        C  177 0.979
   183  H   0.997        C  177 0.979
   184  H   0.997        C  177 0.983
   185  N   3.509        C  173 1.336    C  186 0.989    H  193 0.903    O  174 0.200
   186  C   3.970        N  185 0.989    C  187 0.982    C  189 0.967    H  194 0.924
   187  C   3.912        O  188 1.862    C  186 0.982    H  338 0.955
   188  O   2.027        C  187 1.862
   189  C   3.978        H  196 0.971    C  186 0.967    H  195 0.960    C  190 0.911
   190  C   3.939        O  192 1.519    O  191 1.483    C  189 0.911
   191  O   1.846        C  190 1.483    O  192 0.216
   192  O   1.832        C  190 1.519    O  191 0.216
   193  H   0.953        N  185 0.903
   194  H   0.992        C  186 0.924
   195  H   0.997        C  189 0.960
   196  H   0.999        C  189 0.971
   197  N   2.992        C  198 1.016    H  339 0.956    H  206 0.938
   198  C   3.984        N  197 1.016    C  201 0.969    H  207 0.962    C  199 0.940
   199  C   3.936        O  200 1.628    N  219 1.286    C  198 0.940
   200  O   1.971        C  199 1.628    N  219 0.188
   201  C   3.990        C  202 1.005    H  208 0.973    C  198 0.969    H  209 0.963
   202  C   3.996        C  201 1.005    C  203 1.003    H  211 0.976    H  210 0.976
   203  C   3.988        C  204 1.011    C  202 1.003    H  213 0.972    H  212 0.971
   204  C   3.919        C  203 1.011    H  214 0.965    H  215 0.963    N  205 0.961
   205  N   3.663        C  204 0.961    H  218 0.896    H  217 0.893    H  216 0.892
   206  H   0.974        N  197 0.938
   207  H   0.999        C  198 0.962
   208  H   0.998        C  201 0.973
   209  H   0.997        C  201 0.963
   210  H   0.999        C  202 0.976
   211  H   0.997        C  202 0.976
   212  H   0.994        C  203 0.971
   213  H   0.995        C  203 0.972
   214  H   0.989        C  204 0.965
   215  H   0.985        C  204 0.963
   216  H   0.904        N  205 0.892
   217  H   0.908        N  205 0.893
   218  H   0.911        N  205 0.896
   219  N   3.461        C  199 1.286    C  220 0.985    H  226 0.916    O  200 0.188
   220  C   3.966        N  219 0.985    H  227 0.950    C  223 0.942    C  221 0.939
   221  C   3.950        O  222 1.595    N  233 1.332    C  220 0.939
   222  O   1.950        C  221 1.595    N  233 0.199
   223  C   3.958        O  224 1.002    C  225 1.002    H  228 0.959    C  220 0.942
   224  O   1.947        C  223 1.002    H  229 0.848
   225  C   3.986        C  223 1.002    H  232 0.984    H  230 0.981    H  231 0.975
   226  H   0.955        N  219 0.916
   227  H   0.994        C  220 0.950
   228  H   0.999        C  223 0.959
   229  H   0.892        O  224 0.848
   230  H   0.994        C  225 0.981
   231  H   0.995        C  225 0.975
   232  H   0.997        C  225 0.984
   233  N   3.492        C  221 1.332    C  234 0.983    H  241 0.881    O  222 0.199
   234  C   3.960        N  233 0.983    H  242 0.953    C  237 0.947    C  235 0.940
   235  C   3.943        O  236 1.577    N  252 1.337    C  234 0.940
   236  O   1.945        C  235 1.577    N  252 0.193
   237  C   3.983        C  239 1.006    C  238 0.997    H  243 0.965    C  234 0.947
   238  C   3.995        C  240 1.018    C  237 0.997    H  244 0.974    H  245 0.968
   239  C   3.991        C  237 1.006    H  248 0.985    H  247 0.984    H  246 0.979
   240  C   3.993        C  238 1.018    H  250 0.987    H  249 0.986    H  251 0.984
   241  H   0.947        N  233 0.881
   242  H   0.996        C  234 0.953
   243  H   0.997        C  237 0.965
   244  H   0.999        C  238 0.974
   245  H   0.999        C  238 0.968
   246  H   0.993        C  239 0.979
   247  H   0.997        C  239 0.984
   248  H   0.998        C  239 0.985
   249  H   0.998        C  240 0.986
   250  H   0.998        C  240 0.987
   251  H   0.997        C  240 0.984
   252  N   3.496        C  235 1.337    C  253 0.983    H  260 0.898    O  236 0.193
   253  C   3.967        N  252 0.983    C  256 0.969    H  261 0.949    C  254 0.931
   254  C   3.954        O  255 1.631    N  264 1.304    C  253 0.931
   255  O   1.946        C  254 1.631    N  264 0.196
   256  C   3.983        H  263 0.978    H  262 0.975    C  253 0.969    C  257 0.907
   257  C   3.937        O  258 1.513    O  259 1.491    C  256 0.907
   258  O   1.806        C  257 1.513    O  259 0.218
   259  O   1.821        C  257 1.491    O  258 0.218
   260  H   0.955        N  252 0.898
   261  H   0.997        C  253 0.949
   262  H   0.999        C  256 0.975
   263  H   0.998        C  256 0.978
   264  N   3.470        C  254 1.304    C  265 1.003    H  268 0.887    O  255 0.196
   265  C   3.964        N  264 1.003    C  266 0.994    H  270 0.933    H  269 0.925
   266  C   3.903        O  267 1.904    C  265 0.994    H  340 0.948
   267  O   2.053        C  266 1.904
   268  H   0.951        N  264 0.887
   269  H   0.983        C  265 0.925
   270  H   0.990        C  265 0.933
   271  N   2.996        C  272 1.017    H  279 0.955    H  341 0.953
   272  C   3.987        N  271 1.017    C  273 0.975    H  280 0.957    C  275 0.956
   273  C   3.898        O  274 1.903    C  272 0.975    H  342 0.956
   274  O   2.038        C  273 1.903
   275  C   3.991        C  276 0.991    H  281 0.972    H  282 0.971    C  272 0.956
   276  C   3.995        C  278 1.010    C  277 1.006    C  275 0.991    H  283 0.966
   277  C   3.993        C  276 1.006    H  285 0.986    H  284 0.985    H  286 0.982
   278  C   3.995        C  276 1.010    H  287 0.985    H  288 0.984    H  289 0.983
   279  H   0.973        N  271 0.955
   280  H   0.998        C  272 0.957
   281  H   0.998        C  275 0.972
   282  H   0.998        C  275 0.971
   283  H   0.999        C  276 0.966
   284  H   0.997        C  277 0.985
   285  H   0.998        C  277 0.986
   286  H   0.997        C  277 0.982
   287  H   0.998        C  278 0.985
   288  H   0.999        C  278 0.984
   289  H   0.999        C  278 0.983
   290  N   2.995        C  291 1.026    H  343 0.954    H  298 0.948
   291  C   3.988        N  290 1.026    C  294 0.967    H  299 0.953    C  292 0.948
   292  C   3.947        O  293 1.591    N  302 1.317    C  291 0.948
   293  O   1.944        C  292 1.591    N  302 0.186
   294  C   3.985        H  300 0.970    C  291 0.967    H  301 0.959    C  295 0.929
   295  C   3.937        O  297 1.500    O  296 1.466    C  294 0.929
   296  O   1.854        C  295 1.466    O  297 0.205
   297  O   1.824        C  295 1.500    O  296 0.205
   298  H   0.973        N  290 0.948
   299  H   0.999        C  291 0.953
   300  H   1.000        C  294 0.970
   301  H   0.999        C  294 0.959
   302  N   3.487        C  292 1.317    C  303 1.000    H  306 0.913    O  293 0.186
   303  C   3.957        N  302 1.000    H  307 0.951    C  304 0.949    H  308 0.940
   304  C   3.952        O  305 1.643    N  309 1.291    C  303 0.949
   305  O   1.966        C  304 1.643    N  309 0.196
   306  H   0.951        N  302 0.913
   307  H   0.988        C  303 0.951
   308  H   0.988        C  303 0.940
   309  N   3.471        C  304 1.291    C  310 0.989    H  318 0.912    O  305 0.196
   310  C   3.966        N  309 0.989    C  311 0.985    C  313 0.966    H  319 0.912
   311  C   3.907        O  312 1.896    C  310 0.985    H  344 0.954
   312  O   2.049        C  311 1.896
   313  C   3.985        C  314 1.006    H  321 0.971    C  310 0.966    H  320 0.965
   314  C   3.995        C  315 1.007    C  313 1.006    H  322 0.977    H  323 0.968
   315  C   3.986        C  316 1.011    C  314 1.007    H  324 0.969    H  325 0.966
   316  C   3.919        C  315 1.011    H  327 0.968    H  326 0.966    N  317 0.954
   317  N   3.650        C  316 0.954    H  328 0.912    H  330 0.900    H  329 0.820
   318  H   0.962        N  309 0.912
   319  H   0.988        C  310 0.912
   320  H   0.993        C  313 0.965
   321  H   0.996        C  313 0.971
   322  H   0.999        C  314 0.977
   323  H   0.998        C  314 0.968
   324  H   0.993        C  315 0.969
   325  H   0.993        C  315 0.966
   326  H   0.986        C  316 0.966
   327  H   0.992        C  316 0.968
   328  H   0.925        N  317 0.912
   329  H   0.914        N  317 0.820
   330  H   0.916        N  317 0.900
   331  H   0.964        N    1 0.954
   332  H   0.993        C   20 0.952
   333  H   0.970        N   29 0.959
   334  H   0.995        C   31 0.954
   335  H   0.971        N   41 0.961
   336  H   0.994        C  108 0.954
   337  H   0.964        N  122 0.954
   338  H   0.995        C  187 0.955
   339  H   0.967        N  197 0.956
   340  H   0.990        C  266 0.948
   341  H   0.967        N  271 0.953
   342  H   0.996        C  273 0.956
   343  H   0.967        N  290 0.954
   344  H   0.995        C  311 0.954
 
molecular dipole:
                 x           y           z       tot (Debye)
 q only:       -1.949     -26.348     -14.540
   full:       -3.619     -25.556     -14.180      74.854
molecular quadrupole (traceless):
                xx          xy          yy          xz          yz          zz
 q only:     4017.135  -13634.079   -3154.705   -7820.919   -9663.583    -862.430
  q+dip:     2753.753  -13547.436   -2468.601   -8082.966   -9386.771    -285.151
   full:     2757.585  -13547.816   -2472.994   -8083.389   -9384.530    -284.591


           -------------------------------------------------
          | TOTAL ENERGY             -537.134584752332 Eh   |
          | GRADIENT NORM               0.586404166649 Eh/α |
          | HOMO-LUMO GAP               1.756882455492 eV   |
           -------------------------------------------------

------------------------------------------------------------------------
 * finished run on 2019/05/31 at 05:35:29.116     
------------------------------------------------------------------------
 total:
 * wall-time:     0 d,  0 h,  0 min,  4.539 sec
 *  cpu-time:     0 d,  0 h,  0 min,  8.126 sec
 * ratio c/w:     1.790 speedup
 SCF:
 * wall-time:     0 d,  0 h,  0 min,  3.998 sec
 *  cpu-time:     0 d,  0 h,  0 min,  7.460 sec
 * ratio c/w:     1.866 speedup

