      -----------------------------------------------------------      
     |                   =====================                   |     
     |                           x T B                           |     
     |                   =====================                   |     
     |                         S. Grimme                         |     
     |          Mulliken Center for Theoretical Chemistry        |     
     |                    University of Bonn                     |     
     |                 Version 6.0.1 (SAW181210)                 |     
      -----------------------------------------------------------      

   This program is distributed in the hope that it will be useful,
   but WITHOUT ANY WARRANTY; without even the implied warranty of
   MERCHANTABILITY or FITNESS FOR A PARTICULAR PURPOSE.
   
   FOR NON-COMMERCIAL, ACADEMIA USE ONLY.
   
   Cite this work as:
   S. Grimme, C. Bannwarth, P. Shushkov, J. Comput. Theory Chem., 2017,
   13, 1989-2009.
   C. Bannwarth, S. Ehlert and S. Grimme., ChemRxiv, 2018, preprint.
   http://doi.org/10.26434/chemrxiv.7246238.v1
   
   for sTDA-xTB:
   S. Grimme and C. Bannwarth, J. Chem. Phys., 2016, 145, 054103.
   
   in the mass-spec context:
   V. Asgeirsson, C. Bauer and S. Grimme, Chem. Sci., 2017, 8, 4879.
   
   if GBSA is used:
   P. Shushkov, F. März and S. Grimme, unpublished.
   
   for ANC optimizer:
   S. Grimme, unpublished.
   Rational Function algorithm used in ANCopt:
   F. Eckert, P. Pulay, H.-J. Werner, J. Comput. Chem., 1997, 18, 1473.
   
   with help from (in alphabetical order)
   C. Bannwarth, F. Bohle, G. Brandenburg, E. Caldeweyher, M. Checinski,
   S. Dohm, S. Ehlert, S. Ehrlich, F. März, H. Neugebauer, J. Pisarek,
   P. Pracht, P. Shushkov, and S. Spicher.
   
 * started run on 2019/03/07 at 11:37:45.417     
========================================================================
 # omp threads = 1
========================================================================
number of atoms            : 251
number of electrons        : 688
charge                     : 1
spin                       : .0
first test random number   : .2346
           ------------------------------------------------- 
          |                 G F N 2 - x T B                 |
          | Geometry, Frequencies, Noncovalent interactions |
          |            JCTC 2018 parametrisation            |
           ------------------------------------------------- 
 
      method parameters     
 k(s)        :  1.8500
 k(p)        :  2.2300
 k(d)        :  2.2300
 k(f)        :  2.0000
 kEN (H0ij)  : -2.0000
 D4 a1       :  0.5200
 D4 a2       :  5.0000
 D4 s6       :  1.0000
 D4 s8       :  2.7000
 D4 s9       :  5.0000
 alphaj      :  2.0000

 Solvent             : h2o
 Using internal parameter file: .param_gbsa2_h2o
 Gsolv ref. state (COSMO-RS): gsolv [1 M gas/solution]
 temperature (mdtemp)       :    298.150000000000     
 dielectric constant        :    80.2000000000000     
 rho                        :    1.00000000000000     
 mass                       :    18.0000000000000     
 surface tension            :    15.5689454083859     
 probe radius               :   0.975313790000000     
 vdW radii scaling          :    1.00000000000000     
 Gshift (Eh)                :   1.857443126794793E-003
 c1                         :    1.55243817000000     
 soset                      :   0.130326360000000     
 HB correction              :  T

            Z     q(EN)     CN     RAES       Cart. coordinates
     1  N   5.0   -0.23    3.26    1.97   252.42392   125.54961   245.72107
     2  C   4.0    0.04    4.35    4.29   253.12879   128.05917   244.94250
     3  C   4.0    0.10    3.24    3.04   255.90858   128.02515   244.16960
     4  O   6.0   -0.25    1.11    1.80   256.58132   128.88498   242.11925
     5  C   4.0   -0.03    4.44    4.45   252.81510   129.96590   247.06088
     6  C   4.0    0.17    3.31    3.06   250.21105   131.06194   247.16671
     7  O   6.0   -0.27    1.23    1.80   248.99407   131.41721   245.23163
     8  N   5.0   -0.23    3.23    1.96   249.37202   131.69500   249.45894
     9  H   1.0    0.11    1.09    1.44   251.82110   125.48536   247.22907
    10  H   1.0    0.07    1.13    1.45   252.03842   128.55239   243.55355
    11  H   1.0    0.05    1.10    1.44   253.19682   129.15899   248.66148
    12  H   1.0    0.06    1.10    1.44   254.03208   131.31895   246.83978
    13  H   1.0    0.13    1.09    1.44   247.91126   132.38853   249.62713
    14  H   1.0    0.11    1.09    1.44   250.29231   131.40965   250.76852
    15  N   5.0   -0.22    3.25    1.97   247.33678   109.24506   249.16604
    16  C   4.0    0.03    4.37    4.33   245.20328   110.96849   249.23407
    17  C   4.0    0.09    3.25    3.04   242.91293   109.86678   250.56632
    18  O   6.0   -0.29    1.13    1.80   241.31611   111.21415   251.47339
    19  C   4.0   -0.03    4.38    4.34   244.39070   111.79241   246.52987
    20  C   4.0   -0.09    4.22    4.04   246.59601   113.05285   245.12958
    21  C   4.0   -0.09    4.27    4.13   243.49308   109.50395   245.06911
    22  H   1.0    0.11    1.08    1.44   247.03820   107.82398   248.43471
    23  H   1.0    0.06    1.13    1.45   245.79099   112.41980   250.18649
    24  H   1.0    0.05    1.12    1.45   243.02821   113.00939   246.66971
    25  H   1.0    0.04    1.06    1.44   246.04988   113.55174   243.45150
    26  H   1.0    0.05    1.05    1.44   247.14403   114.53440   246.05933
    27  H   1.0    0.05    1.06    1.44   247.98874   111.86989   244.99163
    28  H   1.0    0.04    1.06    1.44   242.98663   110.01418   243.38347
    29  H   1.0    0.04    1.06    1.44   244.85368   108.27941   244.95384
    30  H   1.0    0.05    1.06    1.44   242.06445   108.74806   245.93271
    31  N   5.0   -0.22    3.28    1.97   248.83344   106.14213   240.42416
    32  C   4.0    0.03    4.41    4.39   249.12068   107.29486   237.96563
    33  C   4.0    0.09    3.30    3.05   251.89480   107.59533   237.42895
    34  O   6.0   -0.27    1.14    1.80   253.18359   109.06553   238.65916
    35  C   4.0   -0.02    4.48    4.51   247.86590   109.92725   237.85225
    36  C   4.0   -0.06    4.33    4.26   245.04832   109.70804   238.40216
    37  C   4.0   -0.08    4.27    4.14   248.40826   111.12344   235.30301
    38  C   4.0   -0.09    4.15    3.90   243.78032   112.22327   238.85758
    39  H   1.0    0.11    1.09    1.44   249.62146   106.94904   241.59390
    40  H   1.0    0.04    1.12    1.45   248.30810   106.21583   236.72597
    41  H   1.0    0.05    1.13    1.45   248.56888   111.02518   239.14104
    42  H   1.0    0.04    1.09    1.44   244.22818   108.87089   236.99242
    43  H   1.0    0.04    1.10    1.44   244.80644   108.64223   239.87425
    44  H   1.0    0.04    1.06    1.44   247.62213   112.77695   235.22364
    45  H   1.0    0.06    1.06    1.44   250.22050   111.29730   235.08191
    46  H   1.0    0.04    1.06    1.44   247.72984   110.06142   233.97264
    47  H   1.0    0.04    1.06    1.44   241.99831   111.95870   239.19584
    48  H   1.0    0.04    1.06    1.44   244.55888   113.04908   240.29755
    49  H   1.0    0.04    1.06    1.44   243.96929   113.28151   237.37226
    50  N   5.0   -0.23    3.28    1.97   244.37936   124.03027   227.33403
    51  C   4.0    0.04    4.41    4.39   241.63359   123.97169   227.34915
    52  C   4.0    0.15    3.43    3.09   240.58479   121.79095   228.90628
    53  O   6.0   -0.31    1.31    1.80   238.64215   122.08574   230.16673
    54  C   4.0   -0.03    4.39    4.37   240.56778   123.83941   224.65062
    55  C   4.0    0.17    3.31    3.05   241.48430   125.99748   222.99900
    56  O   6.0   -0.26    1.24    1.80   242.48019   127.86075   223.92686
    57  N   5.0   -0.23    3.23    1.96   241.07612   125.76126   220.53480
    58  H   1.0    0.11    1.08    1.44   245.05210   123.52005   225.94508
    59  H   1.0    0.07    1.13    1.45   241.09691   125.53638   228.13717
    60  H   1.0    0.05    1.09    1.44   241.05155   122.24448   223.88717
    61  H   1.0    0.06    1.09    1.44   238.73664   123.86587   224.72054
    62  H   1.0    0.14    1.09    1.44   241.51831   126.95179   219.52001
    63  H   1.0    0.12    1.09    1.44   240.36936   124.41767   219.95276
    64  N   5.0   -0.16    3.53    2.10   241.84524   119.60642   228.90628
    65  C   4.0    0.03    4.49    4.52   241.02132   117.35009   230.35948
    66  C   4.0    0.16    3.53    3.13   241.21218   118.07953   233.10337
    67  O   6.0   -0.31    1.25    1.80   239.56245   117.47292   234.63404
    68  C   4.0   -0.05    4.42    4.41   242.72396   115.06352   229.88516
    69  C   4.0   -0.05    4.32    4.24   241.79988   112.66924   231.18529
    70  C   4.0   -0.02    4.36    4.30   243.75764   110.57164   230.93774
    71  N   5.0   -0.16    3.49    2.07   244.54755   110.16535   228.32614
    72  C   4.0    0.12    3.51    3.12   243.04332   109.28096   226.55924
    73  N   5.0   -0.23    3.30    1.98   243.85780   109.02585   224.21976
    74  N   5.0   -0.23    3.35    2.00   240.66605   108.71404   227.12427
    75  H   1.0    0.09    1.13    1.45   243.21529   119.37210   228.06347
    76  H   1.0    0.06    1.12    1.45   239.32623   116.87010   229.85493
    77  H   1.0    0.05    1.09    1.44   242.83356   114.76117   228.08047
    78  H   1.0    0.04    1.10    1.44   244.41904   115.44714   230.46909
    79  H   1.0    0.05    1.09    1.44   241.47296   113.00939   232.95597
    80  H   1.0    0.05    1.09    1.44   240.21251   112.13067   230.44263
    81  H   1.0    0.04    1.10    1.44   245.22407   110.98927   231.95630
    82  H   1.0    0.05    1.09    1.44   243.06411   109.01451   231.61048
    83  H   1.0    0.10    1.14    1.45   246.08011   110.52440   227.92174
    84  H   1.0    0.12    1.09    1.44   245.38280   109.43970   223.83993
    85  H   1.0    0.12    1.09    1.44   242.86380   108.44570   223.07270
    86  H   1.0    0.11    1.11    1.44   240.11803   108.92569   228.63983
    87  H   1.0    0.12    1.09    1.44   239.67394   108.13390   225.97532
    88  N   5.0   -0.17    3.59    2.15   243.26820   119.39666   233.70052
    89  C   4.0    0.03    4.54    4.59   243.80866   120.29051   236.21952
    90  C   4.0    0.16    3.49    3.11   241.71863   122.10086   237.06423
    91  O   6.0   -0.31    1.26    1.80   240.70195   121.82307   239.14104
    92  C   4.0   -0.04    4.43    4.44   246.32956   121.68512   236.24031
    93  C   4.0   -0.01    3.58    3.15   248.54243   120.09775   237.12659
    94  C   4.0   -0.04    3.51    3.12   250.97639   120.95191   236.75243
    95  C   4.0   -0.05    3.54    3.13   248.19850   117.81118   238.37948
    96  C   4.0   -0.03    3.45    3.10   253.02864   119.54784   237.60469
    97  C   4.0   -0.04    3.43    3.09   250.28475   116.39767   239.26576
    98  C   4.0   -0.03    3.44    3.09   252.68471   117.30285   238.86703
    99  H   1.0    0.09    1.15    1.45   244.40771   119.79729   232.61393
   100  H   1.0    0.05    1.14    1.45   243.89370   118.85998   237.36092
   101  H   1.0    0.05    1.10    1.44   246.68105   122.29928   234.54901
   102  H   1.0    0.05    1.10    1.44   246.18405   123.15533   237.32501
   103  H   1.0    0.06    1.10    1.44   251.24662   122.47881   235.92473
   104  H   1.0    0.05    1.10    1.44   246.56955   117.20269   238.63837
   105  H   1.0    0.07    1.10    1.44   254.65947   120.13744   237.31556
   106  H   1.0    0.06    1.09    1.44   250.03531   114.87455   240.10669
   107  H   1.0    0.07    1.10    1.44   254.07365   116.39956   239.44906
   108  N   5.0   -0.16    3.54    2.10   241.05155   123.85453   235.39560
   109  C   4.0    0.03    4.51    4.55   239.04844   125.71024   235.90961
   110  C   4.0    0.17    3.51    3.12   236.53322   124.34586   236.34047
   111  O   6.0   -0.31    1.30    1.80   235.06868   125.08852   237.95618
   112  C   4.0   -0.03    4.43    4.43   238.70640   127.43556   233.60603
   113  C   4.0    0.17    3.31    3.06   240.83612   129.28749   233.29045
   114  O   6.0   -0.26    1.21    1.80   241.85847   129.61630   231.22876
   115  N   5.0   -0.23    3.26    1.97   241.45028   130.63864   235.31245
   116  H   1.0    0.10    1.14    1.45   241.73941   124.01138   233.93106
   117  H   1.0    0.05    1.12    1.45   239.51143   126.66644   237.40249
   118  H   1.0    0.07    1.10    1.44   238.57223   126.40566   232.09614
   119  H   1.0    0.06    1.10    1.44   237.12848   128.35397   233.77044
   120  H   1.0    0.13    1.09    1.44   242.59546   131.78760   235.20663
   121  H   1.0    0.11    1.09    1.44   240.70384   130.36463   236.72975
   122  N   5.0   -0.15    3.59    2.15   236.07779   122.40700   234.83624
   123  C   4.0    0.04    4.47    4.50   233.79500   120.92923   235.06112
   124  C   4.0    0.16    3.52    3.12   233.71186   119.78028   237.71619
   125  O   6.0   -0.31    1.31    1.80   231.77867   119.90500   238.98041
   126  C   4.0    0.03    4.25    4.10   233.79500   118.75983   233.10148
   127  O   6.0   -0.26    2.08    1.84   234.05768   119.71981   230.57869
   128  H   1.0    0.12    1.17    1.46   237.08502   121.91378   233.65894
   129  H   1.0    0.06    1.12    1.45   232.33992   122.00449   234.76443
   130  H   1.0    0.06    1.07    1.44   235.16695   117.59954   233.46619
   131  H   1.0    0.06    1.07    1.44   232.23598   117.80552   233.23943
   132  H   1.0    0.17    1.11    1.45   235.49009   120.38499   230.41051
   133  N   5.0   -0.16    3.55    2.11   235.81890   118.61999   238.44940
   134  C   4.0    0.04    4.41    4.40   236.02299   117.48993   240.95140
   135  C   4.0    0.17    3.47    3.10   235.44663   119.49682   242.96207
   136  O   6.0   -0.32    1.28    1.80   234.07279   118.99415   244.72896
   137  C   4.0   -0.08    4.18    3.96   238.72719   116.39011   241.36903
   138  H   1.0    0.12    1.15    1.45   237.14738   118.46881   237.52532
   139  H   1.0    0.05    1.12    1.45   234.81357   116.11988   241.08935
   140  H   1.0    0.05    1.05    1.44   238.83301   115.64556   243.04143
   141  H   1.0    0.05    1.05    1.44   239.06734   115.10510   240.10669
   142  H   1.0    0.06    1.05    1.44   239.96496   117.73371   241.21974
   143  N   5.0   -0.16    3.52    2.09   236.36881   121.80418   242.50475
   144  C   4.0    0.04    4.49    4.53   235.97764   123.92634   244.23007
   145  C   4.0    0.17    3.44    3.09   233.11848   124.62554   244.37180
   146  O   6.0   -0.31    1.28    1.80   232.16606   125.01860   246.44294
   147  C   4.0   -0.03    4.41    4.39   237.51965   126.38298   243.49308
   148  C   4.0   -0.05    4.35    4.29   240.33724   125.90110   243.59890
   149  C   4.0   -0.07    4.26    4.12   236.89982   128.53916   245.31288
   150  C   4.0   -0.08    4.17    3.94   241.95295   128.06106   242.79010
   151  H   1.0    0.12    1.15    1.45   237.23809   122.17834   241.18383
   152  H   1.0    0.06    1.12    1.45   236.59747   123.35186   245.85713
   153  H   1.0    0.06    1.12    1.45   237.04155   126.83841   241.78288
   154  H   1.0    0.05    1.10    1.44   240.78888   125.44568   245.31666
   155  H   1.0    0.06    1.11    1.45   240.72274   124.45546   242.54066
   156  H   1.0    0.05    1.06    1.44   237.85414   130.03015   244.84234
   157  H   1.0    0.06    1.06    1.44   235.10647   128.91144   245.23163
   158  H   1.0    0.06    1.06    1.44   237.34391   128.04405   247.02120
   159  H   1.0    0.06    1.06    1.44   243.71796   127.58674   242.91860
   160  H   1.0    0.05    1.06    1.44   241.56367   128.49947   241.05344
   161  H   1.0    0.05    1.06    1.44   241.62981   129.50481   243.87102
   162  N   5.0   -0.16    3.53    2.10   231.90717   124.73703   242.14759
   163  C   4.0    0.04    4.50    4.53   229.21431   125.33040   241.91705
   164  C   4.0    0.16    3.46    3.10   227.65151   123.15911   242.95640
   165  O   6.0   -0.31    1.26    1.80   225.59926   123.57107   243.93149
   166  C   4.0    0.06    4.31    4.22   228.47543   125.86142   239.10891
   167  O   6.0   -0.26    2.14    1.85   229.89839   127.94579   238.16216
   168  C   4.0   -0.06    4.18    3.97   225.66918   126.40566   238.75176
   169  H   1.0    0.13    1.16    1.46   232.64038   124.46680   240.72274
   170  H   1.0    0.07    1.12    1.45   228.87227   126.84785   242.88648
   171  H   1.0    0.06    1.11    1.45   228.85904   124.33074   238.17728
   172  H   1.0    0.16    1.08    1.44   231.40450   127.49792   237.92973
   173  H   1.0    0.06    1.05    1.44   225.32714   126.71935   236.97919
   174  H   1.0    0.06    1.06    1.44   224.69031   124.96380   239.31678
   175  H   1.0    0.07    1.06    1.44   225.20242   127.88153   239.73252
   176  N   5.0   -0.15    3.57    2.13   228.70219   120.85742   242.77876
   177  C   4.0    0.04    4.48    4.51   227.47954   118.51794   243.64804
   178  C   4.0    0.17    3.51    3.12   227.47576   118.67857   246.52987
   179  O   6.0   -0.28    1.24    1.80   225.45564   119.03951   247.71284
   180  C   4.0   -0.03    4.46    4.47   229.05935   116.23326   242.86002
   181  C   4.0    0.17    3.30    3.05   227.65529   114.50794   241.05155
   182  O   6.0   -0.26    1.20    1.80   226.48743   112.65790   241.84146
   183  N   5.0   -0.23    3.23    1.96   227.75733   115.11833   238.62136
   184  H   1.0    0.13    1.18    1.46   230.17429   120.61176   242.13626
   185  H   1.0    0.07    1.12    1.45   225.79768   118.33653   242.94317
   186  H   1.0    0.06    1.11    1.44   230.60893   116.81152   242.06822
   187  H   1.0    0.06    1.11    1.45   229.54123   115.28462   244.35290
   188  H   1.0    0.13    1.09    1.44   226.98632   114.20370   237.52154
   189  H   1.0    0.12    1.09    1.44   228.59448   116.42791   238.14704
   190  N   5.0   -0.16    3.57    2.13   229.73020   118.44802   247.59000
   191  C   4.0    0.03    4.53    4.58   230.10437   118.59164   250.34522
   192  C   4.0    0.17    3.55    3.14   229.00266   120.98214   251.38079
   193  O   6.0   -0.29    1.33    1.80   227.82725   120.98026   253.34233
   194  C   4.0   -0.05    4.50    4.54   232.94085   118.48204   250.99718
   195  C   4.0   -0.02    4.37    4.32   234.29578   116.07831   250.22050
   196  C   4.0   -0.07    4.24    4.07   237.07935   116.21059   250.79687
   197  C   4.0   -0.07    4.29    4.18   233.00699   113.91835   251.46016
   198  H   1.0    0.12    1.17    1.46   231.09837   118.20425   246.74719
   199  H   1.0    0.06    1.14    1.45   229.25021   117.15734   251.10300
   200  H   1.0    0.06    1.10    1.44   233.77611   119.90500   250.19783
   201  H   1.0    0.05    1.10    1.44   233.12982   118.69747   252.80754
   202  H   1.0    0.06    1.14    1.45   234.20508   115.85154   248.40448
   203  H   1.0    0.06    1.06    1.44   237.88626   114.64778   250.27908
   204  H   1.0    0.05    1.06    1.44   237.82579   117.61465   249.88602
   205  H   1.0    0.06    1.06    1.44   237.32123   116.45436   252.59778
   206  H   1.0    0.06    1.06    1.44   233.84225   112.35555   250.98962
   207  H   1.0    0.06    1.06    1.44   233.07880   114.12622   253.27997
   208  H   1.0    0.05    1.07    1.44   231.25521   113.85977   250.92159
   209  N   5.0   -0.15    3.54    2.10   229.38627   123.05139   250.02586
   210  C   4.0    0.03    4.38    4.34   228.40929   125.45891   250.84600
   211  C   4.0    0.18    3.45    3.09   225.55958   125.27560   251.11812
   212  O   6.0   -0.24    1.24    1.80   224.53157   126.05039   253.07399
   213  H   1.0    0.13    1.17    1.46   230.21019   123.09108   248.62557
   214  H   1.0    0.07    1.09    1.44   229.16707   125.93701   252.44471
   215  H   1.0    0.06    1.09    1.44   228.84581   126.76282   249.63469
   216  N   5.0   -0.15    3.54    2.10   224.30102   124.17578   249.24351
   217  C   4.0    0.05    4.51    4.55   221.54202   123.96980   249.33800
   218  C   4.0    0.18    3.49    3.11   220.77290   122.50148   251.69260
   219  O   6.0   -0.23    1.21    1.80   219.13262   123.35375   253.13635
   220  C   4.0   -0.02    4.40    4.38   220.52724   122.68101   246.95506
   221  C   4.0    0.18    3.29    3.05   219.06459   124.48759   245.26942
   222  O   6.0   -0.24    1.20    1.80   217.06337   125.38521   245.95539
   223  N   5.0   -0.22    3.23    1.96   220.17008   125.07907   243.06411
   224  H   1.0    0.13    1.15    1.45   224.99077   123.54272   247.91504
   225  H   1.0    0.08    1.13    1.45   220.81826   125.65166   249.41548
   226  H   1.0    0.07    1.11    1.44   221.92564   121.96858   246.01019
   227  H   1.0    0.07    1.10    1.44   219.43876   121.28639   247.43694
   228  H   1.0    0.13    1.08    1.44   219.46143   126.14110   242.05878
   229  H   1.0    0.13    1.10    1.44   221.58738   124.39688   242.65782
   230  N   5.0   -0.15    3.49    2.07   222.04091   120.36798   252.11590
   231  C   4.0    0.05    4.37    4.33   221.57226   118.72959   254.29097
   232  C   4.0    0.12    3.21    3.04   221.94831   120.17712   256.78352
   233  O   6.0   -0.23    1.11    1.80   220.28535   120.18468   258.39735
   234  C   4.0    0.05    4.26    4.11   223.21254   116.24082   254.25696
   235  O   6.0   -0.26    2.18    1.85   225.48021   116.63200   252.77163
   236  C   4.0   -0.06    4.16    3.91   221.75178   113.98071   253.21383
   237  H   1.0    0.13    1.15    1.45   223.21443   119.82374   251.13324
   238  H   1.0    0.07    1.13    1.45   219.82048   118.20236   254.17003
   239  H   1.0    0.06    1.11    1.45   223.65663   115.86099   255.99362
   240  H   1.0    0.17    1.12    1.45   226.35137   117.78473   253.42926
   241  H   1.0    0.07    1.05    1.44   222.82893   112.49728   253.22706
   242  H   1.0    0.06    1.05    1.44   220.27591   113.67269   254.25507
   243  H   1.0    0.07    1.05    1.44   221.22266   114.33409   251.49418
   244  H   1.0    0.10    1.08    1.44   251.23250   124.94273   244.66999
   245  H   1.0    0.07    1.04    1.44   257.20489   127.29777   245.33646
   246  H   1.0    0.10    1.08    1.44   248.62522   109.96953   248.32484
   247  H   1.0    0.06    1.05    1.44   242.70983   107.99296   250.70275
   248  H   1.0    0.09    1.09    1.44   247.18546   106.10009   240.84244
   249  H   1.0    0.06    1.05    1.44   252.70559   106.58612   236.05229
   250  H   1.0    0.13    1.08    1.44   244.91461   125.62434   227.58898
   251  H   1.0    0.08    1.04    1.43   223.55631   121.11949   257.09554

  Z AO/shell   Hii/eV     exponent
  1     Wed Apr 25 08:07:45 CEST 2018   EN: 2.200 GM2: 0.406  GM3: 0.0800  RAES: 1.40
     1s    -10.707211    1.230000
  6     Wed Apr 25 08:07:45 CEST 2018   EN: 2.550 GM2: 0.538  GM3: 0.1500  RAES: 3.00
     2s    -13.970922    2.096432
     2p    -10.063292    1.800000
  7     Wed Apr 25 08:07:45 CEST 2018   EN: 3.040 GM2: 0.461  GM3:-0.0640  RAES: 1.90
     2s    -16.686243    2.339881
     2p    -12.523956    2.014332
  8     Wed Apr 25 08:07:45 CEST 2018   EN: 3.440 GM2: 0.452  GM3:-0.0517  RAES: 1.80
     2s    -20.229985    2.439742
     2p    -15.503117    2.137023
 no old-style atom pair restraining (fixing) potential

molecular fragmentation (1/2 indicates fragments):
111111111111112222222222222222222222222222222222222222222222222222222222
222222222222222222222222222222222222222222222222222222222222222222222222
222222222222222222222222222222222222222222222222222222222222222222222222
22222222222222222222222222211222222
# atoms in fragment 1/2:    16   235
 fragment masses (1/2) :      116.12     1622.86
CMA distance (Bohr)    :  19.842
constraining FC (au)   :  0.0500
           ------------------------------------------------- 
          |        Self-Consistent Charge Iterations        |
           ------------------------------------------------- 

 Ncao       : 617
 Nao        : 617
 Nshell     : 373
 Nel        : 688
 T(el)      :   500.0
 intcut     :    35.0
 scfconv/Eh :  0.100E-06
   qconv/e  :  0.100E-04
 intneglect :  0.100E-08
 broydamp   :      0.400
 iter      E             dE          RMSdq      gap      omega  full diag
   1   -397.4837125 -0.397484E+03  0.474E+00    3.10       0.0  T
   2   -398.4726324 -0.988920E+00  0.220E+00    1.91       1.0  T
   3   -398.5217434 -0.491111E-01  0.124E+00    2.27       1.0  T
   4   -398.5752990 -0.535556E-01  0.229E-01    1.98       1.0  T
   5   -398.5792901 -0.399109E-02  0.985E-02    2.17       1.0  T
   6   -398.5796003 -0.310230E-03  0.400E-02    2.14       1.0  T
   7   -398.5796890 -0.886834E-04  0.147E-02    2.15       1.0  T
   8   -398.5796963 -0.732621E-05  0.743E-03    2.14       1.0  T
   9   -398.5796991 -0.274039E-05  0.292E-03    2.14       2.2  T
  10   -398.5796996 -0.497395E-06  0.115E-03    2.14       5.5  T
  11   -398.5796996 -0.667948E-07  0.450E-04    2.14      14.0  T
  12   -398.5796996 -0.765561E-08  0.225E-04    2.14      28.1  T
  13   -398.5796997 -0.187646E-08  0.868E-05    2.14      72.7  T
  14   -398.5796997 -0.484647E-09  0.409E-05    2.14     154.3  T
speedup  1.00
cpu  time for SCC    1.60 s
wall time for SCC    1.60 s

   *** convergence criteria satisfied after 14 iterations ***

          eigenvalues
 #    :         332        333        334        335        336        337        338        339
 occ. :        2.000      2.000      2.000      2.000      2.000      2.000      2.000      2.000
 eps  :       -11.132    -11.060    -11.021    -11.004    -11.001    -10.975    -10.967    -10.900
 #    :         340        341        342        343        344        345        346        347
 occ. :        2.000      2.000      2.000      2.000      2.000      0.000      0.000      0.000
 eps  :       -10.752    -10.601    -10.265    -10.072    -10.010     -7.873     -7.831     -7.751
 #    :         348        349        350        351        352        353        354        355
 occ. :        0.000      0.000      0.000      0.000      0.000      0.000      0.000      0.000
 eps  :        -7.450     -7.142     -7.048     -6.932     -6.884     -6.816     -6.748     -6.592


   #   Z            q   n(s)   n(p)   n(d)      C6AA      α(0)
   1   7 N     -0.415  1.281  4.135  0.000    30.802     8.243
   2   6 C      0.037  1.026  2.937  0.000    19.961     6.362
   3   6 C      0.195  1.095  2.710  0.000    23.842     7.997
   4   8 O     -0.382  1.764  4.618  0.000    21.334     6.193
   5   6 C     -0.126  1.014  3.112  0.000    22.881     6.806
   6   6 C      0.288  1.031  2.681  0.000    22.114     7.700
   7   8 O     -0.500  1.752  4.748  0.000    23.778     6.538
   8   7 N     -0.309  1.201  4.108  0.000    27.960     7.853
   9   1 H      0.196  0.804  0.000  0.000     1.124     1.661
  10   1 H      0.083  0.917  0.000  0.000     1.943     2.180
  11   1 H      0.090  0.910  0.000  0.000     1.877     2.142
  12   1 H      0.092  0.908  0.000  0.000     1.863     2.134
  13   1 H      0.239  0.761  0.000  0.000     0.925     1.507
  14   1 H      0.238  0.762  0.000  0.000     0.932     1.512
  15   7 N     -0.426  1.294  4.131  0.000    31.094     8.282
  16   6 C      0.017  1.039  2.943  0.000    20.291     6.415
  17   6 C      0.203  1.080  2.716  0.000    23.680     7.969
  18   8 O     -0.384  1.752  4.632  0.000    21.364     6.197
  19   6 C     -0.032  1.042  2.990  0.000    21.108     6.534
  20   6 C     -0.148  0.978  3.170  0.000    23.402     6.894
  21   6 C     -0.150  0.974  3.176  0.000    23.422     6.896
  22   1 H      0.182  0.818  0.000  0.000     1.202     1.717
  23   1 H      0.081  0.919  0.000  0.000     1.972     2.196
  24   1 H      0.055  0.945  0.000  0.000     2.260     2.350
  25   1 H      0.072  0.928  0.000  0.000     2.063     2.246
  26   1 H      0.052  0.948  0.000  0.000     2.294     2.369
  27   1 H      0.055  0.945  0.000  0.000     2.252     2.347
  28   1 H      0.078  0.922  0.000  0.000     1.995     2.209
  29   1 H      0.056  0.944  0.000  0.000     2.250     2.346
  30   1 H      0.041  0.959  0.000  0.000     2.435     2.440
  31   7 N     -0.413  1.291  4.122  0.000    30.742     8.235
  32   6 C      0.021  1.033  2.946  0.000    20.220     6.403
  33   6 C      0.207  1.083  2.711  0.000    23.612     7.959
  34   8 O     -0.382  1.761  4.621  0.000    21.315     6.190
  35   6 C     -0.045  1.043  3.001  0.000    21.327     6.567
  36   6 C     -0.094  1.004  3.090  0.000    22.288     6.719
  37   6 C     -0.162  0.979  3.183  0.000    23.668     6.932
  38   6 C     -0.153  0.975  3.177  0.000    23.489     6.907
  39   1 H      0.175  0.825  0.000  0.000     1.244     1.747
  40   1 H      0.075  0.925  0.000  0.000     2.027     2.226
  41   1 H      0.061  0.939  0.000  0.000     2.192     2.315
  42   1 H      0.063  0.937  0.000  0.000     2.158     2.297
  43   1 H      0.050  0.950  0.000  0.000     2.321     2.382
  44   1 H      0.073  0.927  0.000  0.000     2.048     2.238
  45   1 H      0.045  0.955  0.000  0.000     2.380     2.412
  46   1 H      0.069  0.931  0.000  0.000     2.101     2.266
  47   1 H      0.055  0.945  0.000  0.000     2.260     2.351
  48   1 H      0.050  0.950  0.000  0.000     2.313     2.378
  49   1 H      0.061  0.939  0.000  0.000     2.190     2.314
  50   7 N     -0.410  1.267  4.143  0.000    30.659     8.224
  51   6 C      0.027  1.030  2.943  0.000    20.132     6.390
  52   6 C      0.257  1.056  2.687  0.000    22.682     7.799
  53   8 O     -0.519  1.748  4.771  0.000    24.208     6.597
  54   6 C     -0.129  1.018  3.112  0.000    22.964     6.820
  55   6 C      0.289  1.031  2.680  0.000    22.103     7.698
  56   8 O     -0.506  1.760  4.746  0.000    23.911     6.556
  57   7 N     -0.311  1.200  4.110  0.000    27.998     7.858
  58   1 H      0.190  0.810  0.000  0.000     1.156     1.684
  59   1 H      0.076  0.924  0.000  0.000     2.017     2.221
  60   1 H      0.093  0.907  0.000  0.000     1.846     2.124
  61   1 H      0.092  0.908  0.000  0.000     1.862     2.134
  62   1 H      0.234  0.766  0.000  0.000     0.946     1.524
  63   1 H      0.243  0.757  0.000  0.000     0.913     1.496
  64   7 N     -0.187  1.214  3.972  0.000    25.046     7.433
  65   6 C     -0.008  1.047  2.960  0.000    20.715     6.480
  66   6 C      0.265  1.039  2.696  0.000    22.534     7.774
  67   8 O     -0.486  1.746  4.740  0.000    23.480     6.497
  68   6 C     -0.118  1.014  3.105  0.000    22.747     6.787
  69   6 C     -0.115  1.009  3.105  0.000    22.678     6.778
  70   6 C     -0.059  1.014  3.045  0.000    21.692     6.641
  71   7 N     -0.150  1.177  3.973  0.000    24.242     7.313
  72   6 C      0.225  1.013  2.761  0.000    23.258     7.896
  73   7 N     -0.268  1.174  4.094  0.000    26.930     7.707
  74   7 N     -0.258  1.167  4.091  0.000    26.701     7.674
  75   1 H      0.235  0.765  0.000  0.000     0.945     1.523
  76   1 H      0.117  0.883  0.000  0.000     1.634     1.999
  77   1 H      0.102  0.898  0.000  0.000     1.767     2.078
  78   1 H      0.090  0.910  0.000  0.000     1.880     2.144
  79   1 H      0.094  0.906  0.000  0.000     1.844     2.123
  80   1 H      0.089  0.911  0.000  0.000     1.887     2.148
  81   1 H      0.113  0.887  0.000  0.000     1.670     2.021
  82   1 H      0.107  0.893  0.000  0.000     1.722     2.052
  83   1 H      0.242  0.758  0.000  0.000     0.915     1.498
  84   1 H      0.254  0.746  0.000  0.000     0.868     1.459
  85   1 H      0.255  0.745  0.000  0.000     0.863     1.455
  86   1 H      0.250  0.750  0.000  0.000     0.884     1.473
  87   1 H      0.250  0.750  0.000  0.000     0.884     1.473
  88   7 N     -0.187  1.205  3.982  0.000    25.059     7.435
  89   6 C      0.000  1.041  2.959  0.000    20.577     6.458
  90   6 C      0.265  1.043  2.692  0.000    22.527     7.772
  91   8 O     -0.479  1.747  4.731  0.000    23.318     6.474
  92   6 C     -0.107  1.012  3.094  0.000    22.514     6.752
  93   6 C     -0.001  1.080  2.920  0.000    28.045     8.686
  94   6 C     -0.061  1.054  3.006  0.000    29.511     8.909
  95   6 C     -0.071  1.057  3.013  0.000    29.758     8.946
  96   6 C     -0.050  1.057  2.993  0.000    29.238     8.868
  97   6 C     -0.050  1.060  2.990  0.000    29.231     8.866
  98   6 C     -0.051  1.054  2.997  0.000    29.256     8.870
  99   1 H      0.224  0.776  0.000  0.000     0.990     1.558
 100   1 H      0.118  0.882  0.000  0.000     1.628     1.995
 101   1 H      0.087  0.913  0.000  0.000     1.910     2.161
 102   1 H      0.082  0.918  0.000  0.000     1.959     2.188
 103   1 H      0.058  0.942  0.000  0.000     2.224     2.332
 104   1 H      0.074  0.926  0.000  0.000     2.038     2.232
 105   1 H      0.052  0.948  0.000  0.000     2.295     2.369
 106   1 H      0.069  0.931  0.000  0.000     2.100     2.266
 107   1 H      0.054  0.946  0.000  0.000     2.269     2.355
 108   7 N     -0.191  1.206  3.985  0.000    25.150     7.448
 109   6 C      0.007  1.045  2.948  0.000    20.458     6.440
 110   6 C      0.271  1.036  2.693  0.000    22.427     7.755
 111   8 O     -0.497  1.739  4.758  0.000    23.714     6.529
 112   6 C     -0.129  1.016  3.112  0.000    22.945     6.816
 113   6 C      0.284  1.030  2.686  0.000    22.187     7.713
 114   8 O     -0.494  1.760  4.734  0.000    23.641     6.519
 115   7 N     -0.295  1.194  4.100  0.000    27.597     7.802
 116   1 H      0.215  0.785  0.000  0.000     1.030     1.590
 117   1 H      0.097  0.903  0.000  0.000     1.808     2.102
 118   1 H      0.106  0.894  0.000  0.000     1.729     2.056
 119   1 H      0.105  0.895  0.000  0.000     1.738     2.062
 120   1 H      0.243  0.757  0.000  0.000     0.909     1.493
 121   1 H      0.229  0.771  0.000  0.000     0.971     1.544
 122   7 N     -0.177  1.204  3.973  0.000    24.837     7.402
 123   6 C     -0.006  1.045  2.960  0.000    20.678     6.474
 124   6 C      0.259  1.044  2.697  0.000    22.642     7.792
 125   8 O     -0.499  1.743  4.756  0.000    23.768     6.536
 126   6 C      0.039  1.005  2.956  0.000    20.102     6.418
 127   8 O     -0.484  1.682  4.802  0.000    22.541     6.409
 128   1 H      0.236  0.764  0.000  0.000     0.939     1.518
 129   1 H      0.099  0.901  0.000  0.000     1.790     2.092
 130   1 H      0.088  0.912  0.000  0.000     1.901     2.156
 131   1 H      0.090  0.910  0.000  0.000     1.879     2.144
 132   1 H      0.336  0.664  0.000  0.000     0.620     1.237
 133   7 N     -0.183  1.213  3.970  0.000    24.956     7.419
 134   6 C      0.001  1.047  2.953  0.000    20.575     6.459
 135   6 C      0.271  1.041  2.688  0.000    22.424     7.754
 136   8 O     -0.489  1.738  4.751  0.000    23.540     6.505
 137   6 C     -0.169  0.987  3.182  0.000    23.835     6.959
 138   1 H      0.243  0.757  0.000  0.000     0.911     1.495
 139   1 H      0.097  0.903  0.000  0.000     1.815     2.107
 140   1 H      0.085  0.915  0.000  0.000     1.927     2.170
 141   1 H      0.101  0.899  0.000  0.000     1.780     2.086
 142   1 H      0.092  0.908  0.000  0.000     1.862     2.134
 143   7 N     -0.192  1.210  3.982  0.000    25.175     7.452
 144   6 C     -0.002  1.057  2.946  0.000    20.632     6.469
 145   6 C      0.272  1.048  2.680  0.000    22.408     7.751
 146   8 O     -0.491  1.748  4.743  0.000    23.595     6.513
 147   6 C     -0.040  1.047  2.993  0.000    21.252     6.557
 148   6 C     -0.094  1.000  3.094  0.000    22.274     6.716
 149   6 C     -0.152  0.978  3.175  0.000    23.478     6.904
 150   6 C     -0.146  0.972  3.174  0.000    23.360     6.888
 151   1 H      0.225  0.775  0.000  0.000     0.987     1.556
 152   1 H      0.092  0.908  0.000  0.000     1.860     2.133
 153   1 H      0.066  0.934  0.000  0.000     2.128     2.281
 154   1 H      0.057  0.943  0.000  0.000     2.229     2.335
 155   1 H      0.070  0.930  0.000  0.000     2.089     2.260
 156   1 H      0.075  0.925  0.000  0.000     2.031     2.229
 157   1 H      0.045  0.955  0.000  0.000     2.383     2.414
 158   1 H      0.062  0.938  0.000  0.000     2.177     2.307
 159   1 H      0.063  0.937  0.000  0.000     2.167     2.302
 160   1 H      0.044  0.956  0.000  0.000     2.392     2.419
 161   1 H      0.058  0.942  0.000  0.000     2.223     2.331
 162   7 N     -0.199  1.212  3.987  0.000    25.320     7.473
 163   6 C     -0.007  1.050  2.957  0.000    20.709     6.480
 164   6 C      0.264  1.043  2.693  0.000    22.555     7.777
 165   8 O     -0.492  1.742  4.750  0.000    23.607     6.514
 166   6 C      0.105  1.027  2.868  0.000    18.946     6.214
 167   8 O     -0.480  1.679  4.801  0.000    22.474     6.400
 168   6 C     -0.167  0.982  3.185  0.000    23.782     6.951
 169   1 H      0.232  0.768  0.000  0.000     0.958     1.533
 170   1 H      0.098  0.902  0.000  0.000     1.806     2.101
 171   1 H      0.059  0.941  0.000  0.000     2.210     2.324
 172   1 H      0.332  0.668  0.000  0.000     0.632     1.248
 173   1 H      0.095  0.905  0.000  0.000     1.835     2.118
 174   1 H      0.067  0.933  0.000  0.000     2.115     2.274
 175   1 H      0.079  0.921  0.000  0.000     1.993     2.207
 176   7 N     -0.196  1.218  3.978  0.000    25.260     7.465
 177   6 C      0.017  1.042  2.941  0.000    20.284     6.413
 178   6 C      0.263  1.044  2.693  0.000    22.566     7.779
 179   8 O     -0.505  1.764  4.741  0.000    23.903     6.555
 180   6 C     -0.138  1.018  3.120  0.000    23.133     6.844
 181   6 C      0.284  1.032  2.683  0.000    22.180     7.711
 182   8 O     -0.497  1.761  4.736  0.000    23.721     6.530
 183   7 N     -0.293  1.194  4.099  0.000    27.558     7.797
 184   1 H      0.237  0.763  0.000  0.000     0.934     1.514
 185   1 H      0.095  0.905  0.000  0.000     1.828     2.114
 186   1 H      0.104  0.896  0.000  0.000     1.745     2.066
 187   1 H      0.098  0.902  0.000  0.000     1.807     2.102
 188   1 H      0.250  0.750  0.000  0.000     0.883     1.472
 189   1 H      0.234  0.766  0.000  0.000     0.948     1.525
 190   7 N     -0.189  1.215  3.973  0.000    25.088     7.439
 191   6 C     -0.002  1.045  2.956  0.000    20.609     6.463
 192   6 C      0.283  1.030  2.687  0.000    22.217     7.719
 193   8 O     -0.501  1.744  4.757  0.000    23.809     6.542
 194   6 C     -0.102  1.014  3.088  0.000    22.412     6.736
 195   6 C     -0.027  1.023  3.004  0.000    21.010     6.519
 196   6 C     -0.154  0.977  3.177  0.000    23.505     6.908
 197   6 C     -0.160  0.975  3.185  0.000    23.625     6.924
 198   1 H      0.247  0.753  0.000  0.000     0.896     1.482
 199   1 H      0.110  0.890  0.000  0.000     1.698     2.037
 200   1 H      0.069  0.931  0.000  0.000     2.098     2.265
 201   1 H      0.073  0.927  0.000  0.000     2.054     2.241
 202   1 H      0.062  0.938  0.000  0.000     2.174     2.306
 203   1 H      0.070  0.930  0.000  0.000     2.083     2.257
 204   1 H      0.056  0.944  0.000  0.000     2.246     2.344
 205   1 H      0.054  0.946  0.000  0.000     2.271     2.357
 206   1 H      0.065  0.935  0.000  0.000     2.146     2.291
 207   1 H      0.055  0.945  0.000  0.000     2.261     2.351
 208   1 H      0.051  0.949  0.000  0.000     2.307     2.375
 209   7 N     -0.187  1.203  3.983  0.000    25.048     7.433
 210   6 C     -0.042  1.006  3.036  0.000    21.374     6.590
 211   6 C      0.278  1.038  2.684  0.000    22.289     7.731
 212   8 O     -0.513  1.764  4.749  0.000    24.076     6.579
 213   1 H      0.231  0.769  0.000  0.000     0.962     1.537
 214   1 H      0.103  0.897  0.000  0.000     1.755     2.072
 215   1 H      0.107  0.893  0.000  0.000     1.726     2.054
 216   7 N     -0.188  1.212  3.976  0.000    25.079     7.438
 217   6 C      0.029  1.037  2.934  0.000    20.085     6.380
 218   6 C      0.280  1.041  2.679  0.000    22.266     7.727
 219   8 O     -0.508  1.764  4.744  0.000    23.970     6.564
 220   6 C     -0.132  1.017  3.115  0.000    23.022     6.828
 221   6 C      0.289  1.034  2.677  0.000    22.101     7.698
 222   8 O     -0.494  1.752  4.741  0.000    23.648     6.520
 223   7 N     -0.298  1.197  4.101  0.000    27.669     7.812
 224   1 H      0.229  0.771  0.000  0.000     0.967     1.540
 225   1 H      0.090  0.910  0.000  0.000     1.883     2.146
 226   1 H      0.110  0.890  0.000  0.000     1.696     2.036
 227   1 H      0.093  0.907  0.000  0.000     1.849     2.126
 228   1 H      0.244  0.756  0.000  0.000     0.906     1.491
 229   1 H      0.234  0.766  0.000  0.000     0.948     1.525
 230   7 N     -0.177  1.206  3.971  0.000    24.822     7.399
 231   6 C      0.000  1.050  2.950  0.000    20.594     6.463
 232   6 C      0.206  1.085  2.709  0.000    23.620     7.959
 233   8 O     -0.359  1.755  4.604  0.000    20.883     6.127
 234   6 C      0.102  1.035  2.863  0.000    19.012     6.227
 235   8 O     -0.483  1.677  4.806  0.000    22.525     6.407
 236   6 C     -0.169  0.985  3.184  0.000    23.826     6.957
 237   1 H      0.239  0.761  0.000  0.000     0.929     1.509
 238   1 H      0.104  0.896  0.000  0.000     1.745     2.066
 239   1 H      0.062  0.938  0.000  0.000     2.178     2.307
 240   1 H      0.325  0.675  0.000  0.000     0.651     1.267
 241   1 H      0.097  0.903  0.000  0.000     1.813     2.105
 242   1 H      0.079  0.921  0.000  0.000     1.993     2.207
 243   1 H      0.083  0.917  0.000  0.000     1.953     2.185
 244   1 H      0.191  0.809  0.000  0.000     1.153     1.682
 245   1 H      0.082  0.918  0.000  0.000     1.954     2.186
 246   1 H      0.188  0.812  0.000  0.000     1.170     1.694
 247   1 H      0.059  0.941  0.000  0.000     2.210     2.325
 248   1 H      0.189  0.811  0.000  0.000     1.166     1.691
 249   1 H      0.061  0.939  0.000  0.000     2.181     2.309
 250   1 H      0.177  0.823  0.000  0.000     1.232     1.739
 251   1 H      0.074  0.926  0.000  0.000     2.042     2.234

 Mol. C6AA /au·bohr⁶  :     570539.611897
 Mol. C8AA /au·bohr⁸  :   12684305.340097
 Mol. α(0) /au        :       1128.998619

 
molecular dipole:
                 x           y           z       tot (Debye)
 q only:      259.072     103.997     213.151
   full:      261.238     104.993     211.097     894.449
molecular quadrupole (traceless):
                xx          xy          yy          xz          yz          zz
 q only:    38697.067   40910.234  -44983.696   83893.877   32840.271    6286.629
  q+dip:    40060.141   41663.540  -44752.968   83972.234   32832.901    4692.827
   full:    40058.958   41664.063  -44751.736   83972.557   32833.606    4692.778
speedup  1.00
cpu  time for grad    2.25 s
wall time for grad    2.26 s

SCC energy    :    -398.5927598
rep           :       8.5543839
ES            :       1.2190088
AES           :      -0.0240532
AXC           :       0.0543771
disp          :      -0.3155355
XB            :       0.0000000
fix           :       0.0000000
Gborn         :       0.0000000
Gsasa         :       0.0000000
Ghb           :       0.0000000
Gshift        :       0.0000000
Gsolv         :      -0.3146351     -197.44
Etot ala COSMO:    -398.5927598
grad norm     :       2.1430917
total E       :    -390.0157044
atomizationE  :      68.0480861    42700.82
(atE without considering molecular charge,
 total energy contains solvation terms)
H-L gap (eV)  :          2.1370

------------------------------------------------------------------------
 * finished run on 2019/03/07 at 11:37:48.162     
------------------------------------------------------------------------
 total:
 * wall-time:     0 d,  0 h,  0 min,  2.744 sec
 *  cpu-time:     0 d,  0 h,  0 min,  2.509 sec
 * ratio c/w:     0.915 speedup
 SCF:
 * wall-time:     0 d,  0 h,  0 min,  2.443 sec
 *  cpu-time:     0 d,  0 h,  0 min,  2.439 sec
 * ratio c/w:     0.999 speedup

