      -----------------------------------------------------------      
     |                   =====================                   |     
     |                           x T B                           |     
     |                   =====================                   |     
     |                         S. Grimme                         |     
     |          Mulliken Center for Theoretical Chemistry        |     
     |                    University of Bonn                     |     
     |                Version 6.1 RC1 (SAW190329)                |     
      -----------------------------------------------------------      

   This program is distributed in the hope that it will be useful,
   but WITHOUT ANY WARRANTY; without even the implied warranty of
   MERCHANTABILITY or FITNESS FOR A PARTICULAR PURPOSE.
   
   FOR NON-COMMERCIAL, ACADEMIA USE ONLY.
   
   Cite this work as:
   S. Grimme, C. Bannwarth, P. Shushkov, J. Comput. Theory Chem., 2017,
   13, 1989-2009. DOI: 10.1021/acs.jctc.7b00118
   C. Bannwarth, S. Ehlert and S. Grimme., J. Comput. Theory Chem., 2019,
   just accepted. DOI: 10.1021/acs.jctc.8b01176
   
   for sTDA-xTB:
   S. Grimme and C. Bannwarth, J. Chem. Phys., 2016, 145, 054103.
   DOI: 10.1063/1.4959605
   
   in the mass-spec context:
   V. Asgeirsson, C. Bauer and S. Grimme, Chem. Sci., 2017, 8, 4879.
   DOI: 10.1039/c7sc00601b
   
   for metadynamics refer to:
   S. Grimme, ChemRxiv, Preprint. DOI: 10.26434/chemrxiv.7660532.v1
   
   with help from (in alphabetical order)
   C. Bannwarth, F. Bohle, G. Brandenburg, E. Caldeweyher, M. Checinski,
   S. Dohm, S. Ehlert, S. Ehrlich, F. März, H. Neugebauer, J. Pisarek,
   P. Pracht, P. Shushkov, and S. Spicher.
   
 * started run on 2019/05/31 at 05:34:51.545     

           -------------------------------------------------
          |                Calculation Setup                |
           -------------------------------------------------

          program call               : /home/lum/install/xtb/xtb-190329/bin/xtb xtb_tmp.xyz --chrg 0 --grad --gfn 2 --etemp 500 --acc 0.1 --gbsa h2o --parallel 2
          hostname                   : cpu02
          coordinate file            : xtb_tmp.xyz
          omp threads                :                     2
          number of atoms            :                   496
          number of electrons        :                  1332
          charge                     :                     0
          spin                       :                   0.0
          first test random number   :      0.16220999312953


molecular fragmentation (1/2 indicates fragments):
111111111111111111122222222222222222222222222222222222222222222222222222
222222222222222222222222222222222222222222222222222222222222222222222222
222222222222222222222222222222222222222222222222222222222222222222222222
222222222222222222222222222222222222222222222222222222222222222222222222
222222222222222222222222222222222222222222222222222222222222222222222222
222222222222222222222222222222222222222222222222222222222222222222222222
2222222222222222222222222222222222222222222222221122222222222222
# atoms in fragment 1/2:    21   475
 fragment masses (1/2) :      115.17     3226.75
CMA distance (Bohr)    :  17.378
constraining FC (au)   :  0.0500

########################################################################
# WARNING! Please study the warnings concerning your input carefully
#  - XTBPATH is not set, using XTBHOME instead
#  - Process number higher than OMP_NUM_THREADS, I hope you know what you are doing.
########################################################################

           ------------------------------------------------- 
          |                 G F N 2 - x T B                 |
          | Geometry, Frequencies, Noncovalent interactions |
          |            JCTC 2018 parametrisation            |
           ------------------------------------------------- 
 
             k(s)              :                1.8500
             k(p)              :                2.2300
             k(d)              :                2.2300
             k(f)              :                2.0000
             kEN (H0ij)        :               -2.0000
             D4 a1             :                0.5200
             D4 a2             :                5.0000
             D4 s6             :                1.0000
             D4 s8             :                2.7000
             D4 s9             :                5.0000
             alphaj            :                2.0000

  Z AO/shell   Hii/eV     exponent
  1     Wed Apr 25 08:07:45 CEST 2018   EN: 2.200 GM2: 0.406  GM3: 0.0800  RAES: 1.40
     1s    -10.707211    1.230000
  6     Wed Apr 25 08:07:45 CEST 2018   EN: 2.550 GM2: 0.538  GM3: 0.1500  RAES: 3.00
     2s    -13.970922    2.096432
     2p    -10.063292    1.800000
  7     Wed Apr 25 08:07:45 CEST 2018   EN: 3.040 GM2: 0.461  GM3:-0.0640  RAES: 1.90
     2s    -16.686243    2.339881
     2p    -12.523956    2.014332
  8     Wed Apr 25 08:07:45 CEST 2018   EN: 3.440 GM2: 0.452  GM3:-0.0517  RAES: 1.80
     2s    -20.229985    2.439742
     2p    -15.503117    2.137023

 Solvent             : h2o
 Using internal parameter file: .param_gbsa2_h2o
 Gsolv ref. state (COSMO-RS): gsolv [1 M gas/solution]
 temperature (mdtemp)       :    298.150000000000     
 dielectric constant        :    80.2000000000000     
 rho                        :    1.00000000000000     
 mass                       :    18.0000000000000     
 surface tension            :    15.5689454083859     
 probe radius               :   0.975313790000000     
 vdW radii scaling          :    1.00000000000000     
 Gshift (Eh)                :   1.857443126794793E-003
 c1                         :    1.55243817000000     
 soset                      :   0.130326360000000     
 HB correction              :  T
 Number of grid points      :          230

            Z     q(EN)     CN     RAES       Cart. coordinates
     1  N   5.0   -0.72    3.00    1.93   264.15451   127.51818   236.73988
     2  C   4.0    0.06    3.98    3.59   266.07631   125.98605   235.53447
     3  C   4.0    0.07    3.00    3.02   265.56350   126.04722   232.70191
     4  O   6.0   -0.51    1.00    1.80   267.20555   126.67416   231.17374
     5  C   4.0   -0.09    3.98    3.59   266.07128   123.25853   236.53579
     6  C   4.0   -0.16    3.98    3.59   267.13334   123.21279   239.22928
     7  C   4.0   -0.23    3.98    3.59   267.61668   121.56246   234.78139
     8  C   4.0   -0.24    3.98    3.58   266.75381   120.69791   240.57979
     9  H   1.0    0.25    1.00    1.43   263.22589   126.80278   238.25592
    10  H   1.0    0.11    0.99    1.43   267.94408   126.84006   235.85525
    11  H   1.0    0.11    0.99    1.43   264.10586   122.61543   236.56236
    12  H   1.0    0.11    0.99    1.43   269.14465   123.64893   239.15694
    13  H   1.0    0.11    0.99    1.43   266.21837   124.68891   240.33983
    14  H   1.0    0.09    0.99    1.43   267.66536   119.64987   235.51989
    15  H   1.0    0.11    0.99    1.43   266.79670   121.50607   232.89857
    16  H   1.0    0.10    0.99    1.43   269.54216   122.26065   234.62119
    17  H   1.0    0.10    0.99    1.43   267.42171   120.86026   242.51551
    18  H   1.0    0.10    0.99    1.43   264.75920   120.20318   240.63175
    19  H   1.0    0.10    0.99    1.43   267.78805   119.18263   239.66142
    20  N   5.0   -0.70    3.00    1.93   266.75433   132.54436   229.57106
    21  C   4.0    0.08    3.98    3.59   269.39511   133.23064   229.37490
    22  C   4.0    0.30    3.01    3.02   270.70122   131.67566   227.31743
    23  O   6.0   -0.46    1.00    1.80   272.20809   132.63925   225.84364
    24  C   4.0    0.04    3.98    3.58   270.81769   132.89230   231.90858
    25  O   6.0   -0.47    1.99    1.82   271.01478   130.34342   232.62432
    26  C   4.0   -0.22    3.98    3.59   269.64552   134.51889   233.98890
    27  H   1.0    0.27    1.00    1.43   266.09440   131.76773   231.19271
    28  H   1.0    0.10    0.99    1.43   269.53344   135.22044   228.80471
    29  H   1.0    0.13    0.99    1.43   272.77434   133.49461   231.57689
    30  H   1.0    0.29    0.99    1.43   269.34107   129.60669   232.73104
    31  H   1.0    0.11    0.99    1.43   270.82720   134.42941   235.66476
    32  H   1.0    0.10    0.99    1.43   269.49816   136.46941   233.37573
    33  H   1.0    0.10    0.99    1.43   267.77735   133.82569   234.48707
    34  N   5.0   -0.47    3.01    1.93   270.11483   129.23111   227.31909
    35  C   4.0    0.08    3.99    3.61   271.17814   127.50357   225.48885
    36  C   4.0    0.08    3.00    3.02   270.43859   128.35354   222.83255
    37  O   6.0   -0.49    1.00    1.80   271.98487   128.43276   221.11130
    38  C   4.0    0.04    3.98    3.58   270.28118   124.77407   226.02158
    39  O   6.0   -0.51    1.99    1.83   270.94605   124.01127   228.47591
    40  C   4.0   -0.21    3.98    3.59   271.50484   122.93140   224.17623
    41  H   1.0    0.30    1.00    1.43   268.79732   128.56476   228.53466
    42  H   1.0    0.13    0.99    1.43   273.24773   127.57702   225.61687
    43  H   1.0    0.12    0.99    1.43   268.21107   124.75097   225.79824
    44  H   1.0    0.31    0.99    1.43   269.90510   124.90468   229.68845
    45  H   1.0    0.11    0.99    1.43   270.77875   121.04539   224.52710
    46  H   1.0    0.10    0.99    1.43   271.10695   123.47705   222.24075
    47  H   1.0    0.11    0.99    1.43   273.53395   122.91567   224.48441
    48  N   5.0   -0.69    3.00    1.93   274.02705   134.20040   220.84984
    49  C   4.0    0.07    3.98    3.59   276.50963   133.40378   219.99844
    50  C   4.0    0.29    3.01    3.02   276.33933   132.29518   217.33349
    51  O   6.0   -0.48    1.00    1.80   277.81635   132.93262   215.65733
    52  C   4.0   -0.21    3.99    3.60   277.56610   131.48914   221.86207
    53  H   1.0    0.32    1.00    1.43   273.39980   133.50889   222.52763
    54  H   1.0    0.11    0.99    1.43   277.75413   135.06113   219.87486
    55  H   1.0    0.09    0.99    1.43   279.45430   130.91331   221.30481
    56  H   1.0    0.11    0.99    1.43   277.66068   132.35556   223.72038
    57  H   1.0    0.13    0.99    1.43   276.33275   129.84773   221.94212
    58  N   5.0   -0.49    3.01    1.93   274.51535   130.60239   216.97680
    59  C   4.0    0.06    3.99    3.61   274.11440   129.46938   214.52352
    60  C   4.0    0.08    3.00    3.02   273.57649   131.48427   212.53764
    61  O   6.0   -0.42    1.00    1.80   274.36633   131.21780   210.36779
    62  C   4.0   -0.14    3.99    3.60   271.93471   127.57459   214.55431
    63  C   4.0   -0.10    3.98    3.58   272.51482   125.12314   215.98917
    64  C   4.0   -0.23    3.98    3.59   270.09776   123.55438   216.19408
    65  C   4.0   -0.24    3.98    3.59   274.56957   123.57539   214.68606
    66  H   1.0    0.30    1.00    1.43   273.37717   130.05323   218.42023
    67  H   1.0    0.12    0.99    1.43   275.86343   128.53361   213.91658
    68  H   1.0    0.12    0.99    1.43   270.30632   128.51392   215.40188
    69  H   1.0    0.11    0.99    1.43   271.46121   127.11203   212.59976
    70  H   1.0    0.13    0.99    1.43   273.14401   125.61083   217.89664
    71  H   1.0    0.10    0.99    1.43   270.45065   121.81461   217.22721
    72  H   1.0    0.11    0.99    1.43   268.62814   124.59560   217.18645
    73  H   1.0    0.10    0.99    1.43   269.39200   123.05655   214.32782
    74  H   1.0    0.09    0.99    1.43   274.80547   121.78249   215.65719
    75  H   1.0    0.10    0.99    1.43   274.04233   123.19467   212.73652
    76  H   1.0    0.09    0.99    1.43   276.37558   124.55016   214.70273
    77  N   5.0   -0.69    3.00    1.93   279.68431   134.12343   210.70218
    78  C   4.0    0.08    3.98    3.59   280.91640   132.29362   209.07262
    79  C   4.0    0.09    3.00    3.02   279.78105   132.48956   206.41235
    80  O   6.0   -0.40    1.00    1.80   281.11291   132.63830   204.52881
    81  C   4.0   -0.08    3.98    3.59   280.69815   129.63041   210.20870
    82  C   4.0   -0.16    3.98    3.59   282.41173   129.49711   212.54463
    83  C   4.0   -0.22    3.98    3.59   281.37371   127.63204   208.24122
    84  C   4.0   -0.24    3.98    3.58   282.08474   127.10520   214.10889
    85  H   1.0    0.32    1.00    1.43   278.80198   133.50954   212.29491
    86  H   1.0    0.12    0.99    1.43   282.92458   132.79426   208.88595
    87  H   1.0    0.14    0.99    1.43   278.72896   129.36279   210.78016
    88  H   1.0    0.10    0.99    1.43   284.37845   129.64651   211.93854
    89  H   1.0    0.12    0.99    1.43   282.00187   131.11779   213.75357
    90  H   1.0    0.10    0.99    1.43   281.20609   125.75508   209.04951
    91  H   1.0    0.12    0.99    1.43   280.10564   127.75613   206.63114
    92  H   1.0    0.12    0.99    1.43   283.29441   127.90075   207.56880
    93  H   1.0    0.10    0.99    1.43   283.40430   127.13684   215.68161
    94  H   1.0    0.10    0.99    1.43   280.17736   127.00001   214.86490
    95  H   1.0    0.10    0.99    1.43   282.45589   125.41604   213.00519
    96  N   5.0   -0.72    3.00    1.93   291.87146   131.27714   219.86796
    97  C   4.0    0.07    3.99    3.60   289.31219   131.21697   220.84489
    98  C   4.0    0.28    3.01    3.02   288.71129   128.58165   221.86305
    99  O   6.0   -0.47    1.00    1.80   287.84343   128.26315   223.99914
   100  C   4.0   -0.09    3.98    3.59   287.40833   131.99173   218.79259
   101  C   4.0   -0.23    3.98    3.59   284.70280   131.53704   219.68911
   102  C   4.0   -0.23    3.98    3.59   287.76341   134.76951   218.10429
   103  H   1.0    0.25    1.00    1.43   292.11898   131.70035   218.01913
   104  H   1.0    0.11    0.99    1.43   289.17631   132.53197   222.44785
   105  H   1.0    0.11    0.99    1.43   287.78464   130.82490   217.12526
   106  H   1.0    0.10    0.99    1.43   283.38337   132.17687   218.25089
   107  H   1.0    0.11    0.99    1.43   284.36998   129.53820   220.02970
   108  H   1.0    0.12    0.99    1.43   284.33784   132.57287   221.42569
   109  H   1.0    0.10    0.99    1.43   286.41694   135.31894   216.65270
   110  H   1.0    0.11    0.99    1.43   287.45050   135.96688   219.74224
   111  H   1.0    0.10    0.99    1.43   289.64756   135.13835   217.37475
   112  N   5.0   -0.50    3.01    1.93   289.15466   126.69975   220.26461
   113  C   4.0    0.08    3.99    3.61   288.59585   124.09500   220.86634
   114  C   4.0    0.32    3.01    3.02   289.44930   123.39849   223.54137
   115  O   6.0   -0.40    1.00    1.80   288.07442   122.31110   225.03728
   116  C   4.0   -0.02    3.98    3.59   289.96373   122.35743   218.97634
   117  O   6.0   -0.47    1.99    1.82   289.57767   119.78991   219.50204
   118  H   1.0    0.23    1.00    1.43   289.80324   127.06974   218.49686
   119  H   1.0    0.12    0.99    1.43   286.55063   123.75252   220.74838
   120  H   1.0    0.11    0.99    1.43   289.31743   122.82829   217.06417
   121  H   1.0    0.12    0.99    1.43   291.99803   122.70005   219.09096
   122  H   1.0    0.31    0.99    1.43   287.92880   119.34233   218.83360
   123  N   5.0   -0.48    3.00    1.93   291.86297   123.98713   224.03729
   124  C   4.0    0.02    4.00    3.61   293.08025   123.05493   226.28925
   125  C   4.0    0.28    3.01    3.02   292.65726   124.64354   228.66197
   126  O   6.0   -0.45    1.00    1.80   292.94085   123.72278   230.75875
   127  H   1.0    0.24    1.00    1.43   292.91952   124.83192   222.68838
   128  H   1.0    0.14    0.99    1.43   292.35955   121.15815   226.69412
   129  H   1.0    0.10    0.99    1.43   295.11155   122.93312   225.95275
   130  N   5.0   -0.47    3.01    1.93   292.04540   127.06651   228.29012
   131  C   4.0    0.07    4.00    3.61   291.93677   128.82336   230.37777
   132  C   4.0    0.28    3.01    3.02   289.26138   129.41675   231.30857
   133  O   6.0   -0.43    1.00    1.80   288.89903   130.08260   233.49187
   134  C   4.0   -0.13    3.98    3.59   293.28088   131.29034   229.67410
   135  C   4.0   -0.11    3.99    3.60   296.08324   130.81963   229.17106
   136  C   4.0    0.27    3.00    3.02   297.46582   133.19363   228.36931
   137  O   6.0   -0.39    1.00    1.80   296.40407   135.13618   227.70908
   138  N   5.0   -0.65    3.00    1.93   299.99417   132.99988   228.41948
   139  H   1.0    0.26    1.00    1.43   291.96001   127.76728   226.51224
   140  H   1.0    0.14    0.99    1.43   292.91875   127.92199   231.96714
   141  H   1.0    0.13    0.99    1.43   292.42021   132.06817   227.96981
   142  H   1.0    0.13    0.99    1.43   293.05099   132.65103   231.20327
   143  H   1.0    0.11    0.99    1.43   296.99093   130.01861   230.83789
   144  H   1.0    0.12    0.99    1.43   296.25453   129.47483   227.61235
   145  H   1.0    0.26    1.00    1.43   300.86279   131.37157   228.86986
   146  H   1.0    0.29    1.00    1.43   301.05762   134.47573   227.85680
   147  N   5.0   -0.46    3.01    1.93   287.40184   129.27347   229.60453
   148  C   4.0    0.09    4.00    3.62   284.85070   129.97218   230.33260
   149  C   4.0    0.27    3.01    3.02   283.93741   128.19842   232.42490
   150  O   6.0   -0.43    1.00    1.80   284.13224   125.90494   232.23061
   151  C   4.0    0.04    3.98    3.58   283.05139   129.80468   228.03959
   152  O   6.0   -0.50    1.99    1.82   283.97046   131.25451   226.01358
   153  C   4.0   -0.20    3.98    3.59   280.44381   130.80659   228.75152
   154  H   1.0    0.29    1.00    1.43   287.69542   128.53423   227.86664
   155  H   1.0    0.13    0.99    1.43   284.89723   131.92478   231.02594
   156  H   1.0    0.12    0.99    1.43   282.91097   127.80257   227.49356
   157  H   1.0    0.30    0.99    1.43   285.38646   130.36848   225.23872
   158  H   1.0    0.11    0.99    1.43   279.15988   130.53242   227.17601
   159  H   1.0    0.11    0.99    1.43   279.70192   129.82625   230.39249
   160  H   1.0    0.12    0.99    1.43   280.56456   132.81876   229.14349
   161  N   5.0   -0.49    3.01    1.93   282.90962   129.31579   234.45233
   162  C   4.0    0.09    4.00    3.62   282.04063   127.85959   236.59223
   163  C   4.0    0.28    3.01    3.02   279.60691   128.93406   237.71175
   164  O   6.0   -0.39    1.00    1.80   279.04224   131.16656   237.55215
   165  C   4.0   -0.11    3.98    3.59   284.08492   127.68917   238.66530
   166  C   4.0   -0.10    3.98    3.59   285.03461   130.24860   239.60128
   167  C   4.0    0.30    3.00    3.02   283.09822   131.67636   241.15661
   168  O   6.0   -0.42    1.00    1.80   281.60886   130.61015   242.58423
   169  N   5.0   -0.64    3.00    1.93   283.23236   134.19078   241.00490
   170  H   1.0    0.25    1.00    1.43   282.61082   131.19758   234.51038
   171  H   1.0    0.15    0.99    1.43   281.67277   125.94116   235.91774
   172  H   1.0    0.15    0.99    1.43   283.30677   126.59500   240.22728
   173  H   1.0    0.12    0.99    1.43   285.67824   126.66584   237.85940
   174  H   1.0    0.11    0.99    1.43   286.65402   129.93657   240.84494
   175  H   1.0    0.13    0.99    1.43   285.68481   131.37251   238.00438
   176  H   1.0    0.26    1.00    1.43   284.38735   135.06017   239.77141
   177  H   1.0    0.29    1.00    1.43   281.99975   135.25059   241.99569
   178  N   5.0   -0.49    3.02    1.93   278.22906   127.17306   238.90977
   179  C   4.0    0.08    3.99    3.61   276.18892   127.74550   240.63118
   180  C   4.0    0.29    3.02    3.02   276.98402   126.62107   243.16948
   181  O   6.0   -0.45    1.00    1.80   277.43224   124.36102   243.37744
   182  C   4.0   -0.13    3.99    3.60   273.66910   126.56517   239.79070
   183  C   4.0   -0.04    3.03    3.02   271.66081   127.13780   241.71813
   184  C   4.0   -0.10    3.03    3.02   270.23009   129.33080   241.54988
   185  C   4.0   -0.09    3.03    3.02   271.25594   125.51589   243.74496
   186  C   4.0   -0.11    3.03    3.02   268.42813   129.88547   243.36228
   187  C   4.0   -0.11    3.03    3.02   269.45200   126.06740   245.55534
   188  C   4.0   -0.10    3.03    3.02   268.02838   128.25671   245.37124
   189  H   1.0    0.28    1.00    1.43   278.81272   125.34403   238.85989
   190  H   1.0    0.14    0.99    1.43   276.02137   129.80219   240.73568
   191  H   1.0    0.11    0.99    1.43   273.16148   127.34041   237.94911
   192  H   1.0    0.11    0.99    1.43   273.94351   124.52817   239.62251
   193  H   1.0    0.11    0.99    1.43   270.50323   130.60696   239.98012
   194  H   1.0    0.12    1.00    1.43   272.34691   123.79769   243.89274
   195  H   1.0    0.11    1.00    1.43   267.32600   131.59225   243.19665
   196  H   1.0    0.11    0.99    1.43   269.13653   124.78881   247.11753
   197  H   1.0    0.11    0.99    1.43   266.61019   128.68112   246.78254
   198  N   5.0   -0.49    3.01    1.93   277.31301   128.24355   245.07568
   199  C   4.0    0.09    4.00    3.62   278.19666   127.39059   247.52302
   200  C   4.0    0.30    3.01    3.02   280.40237   125.51876   247.24359
   201  O   6.0   -0.40    1.00    1.80   280.55952   123.59659   248.51139
   202  C   4.0   -0.08    3.99    3.60   276.09647   126.15787   249.08555
   203  C   4.0    0.29    3.00    3.02   277.01435   125.79742   251.78654
   204  O   6.0   -0.38    1.00    1.80   278.39042   127.33320   252.82960
   205  N   5.0   -0.64    3.00    1.93   276.13248   123.73884   252.95810
   206  H   1.0    0.25    1.00    1.43   276.95239   130.09543   244.83120
   207  H   1.0    0.14    0.99    1.43   278.91901   129.02071   248.57317
   208  H   1.0    0.11    0.99    1.43   274.44544   127.39536   249.11751
   209  H   1.0    0.13    0.99    1.43   275.56732   124.35569   248.24615
   210  H   1.0    0.29    1.00    1.43   276.67984   123.39275   254.75380
   211  H   1.0    0.26    1.00    1.43   275.07714   122.44402   252.05615
   212  N   5.0   -0.48    3.00    1.93   282.17703   126.25073   245.58886
   213  C   4.0    0.02    3.99    3.61   284.44800   124.80352   245.16600
   214  C   4.0    0.27    3.00    3.02   284.28956   122.85177   243.04134
   215  O   6.0   -0.48    1.00    1.80   286.17016   122.29787   241.78954
   216  H   1.0    0.30    1.00    1.43   281.89484   127.83631   244.52444
   217  H   1.0    0.11    0.99    1.43   286.01281   126.09809   244.81173
   218  H   1.0    0.14    0.99    1.43   284.83219   123.73029   246.89898
   219  N   5.0   -0.47    3.01    1.93   282.06765   121.72708   242.76758
   220  C   4.0    0.08    4.00    3.62   281.65434   119.63224   241.04549
   221  C   4.0    0.29    3.01    3.02   282.02704   120.57511   238.33318
   222  O   6.0   -0.48    1.00    1.80   280.82191   122.36505   237.48731
   223  C   4.0   -0.09    3.98    3.59   278.97836   118.56969   241.41507
   224  C   4.0   -0.23    3.98    3.59   278.39447   116.60115   239.38607
   225  C   4.0   -0.21    3.98    3.59   278.70752   117.41539   244.04593
   226  H   1.0    0.30    1.00    1.43   280.51859   122.42194   243.65527
   227  H   1.0    0.12    0.99    1.43   283.05937   118.17101   241.47506
   228  H   1.0    0.14    0.99    1.43   277.65449   120.14792   241.23520
   229  H   1.0    0.10    0.99    1.43   276.49779   115.86419   239.65857
   230  H   1.0    0.12    0.99    1.43   278.49499   117.42215   237.50390
   231  H   1.0    0.11    0.99    1.43   279.71490   115.02987   239.49579
   232  H   1.0    0.10    0.99    1.43   276.78448   116.74540   244.31222
   233  H   1.0    0.11    0.99    1.43   279.98287   115.81919   244.27163
   234  H   1.0    0.13    0.99    1.43   279.10845   118.79264   245.51781
   235  N   5.0   -0.49    3.01    1.93   283.81755   119.37935   237.02022
   236  C   4.0    0.07    3.99    3.61   284.65841   120.09846   234.50116
   237  C   4.0    0.28    3.00    3.02   282.82052   118.95327   232.56022
   238  O   6.0   -0.45    1.00    1.80   283.16269   116.91091   231.52295
   239  C   4.0   -0.14    3.98    3.59   287.37475   119.21130   234.09593
   240  C   4.0   -0.14    3.98    3.58   289.21857   120.23765   236.07314
   241  C   4.0   -0.12    3.98    3.59   289.52447   123.10061   235.86625
   242  C   4.0   -0.05    3.98    3.58   291.50540   124.18004   237.65287
   243  N   5.0   -0.73    3.98    2.81   291.10591   123.31327   240.30670
   244  H   1.0    0.23    1.00    1.43   284.60873   117.79286   237.72830
   245  H   1.0    0.15    0.99    1.43   284.53495   122.15479   234.32619
   246  H   1.0    0.11    0.99    1.43   287.39793   117.14982   234.12735
   247  H   1.0    0.12    0.99    1.43   287.95892   119.82633   232.21886
   248  H   1.0    0.13    0.99    1.43   288.51684   119.73560   237.94328
   249  H   1.0    0.11    0.99    1.43   291.03843   119.32989   235.75060
   250  H   1.0    0.15    0.99    1.43   290.09486   123.57914   233.94617
   251  H   1.0    0.13    0.99    1.43   287.71202   124.00712   236.21556
   252  H   1.0    0.12    0.99    1.43   293.38328   123.59799   237.03934
   253  H   1.0    0.12    0.99    1.43   291.39126   126.23605   237.58449
   254  H   1.0    0.24    1.00    1.43   292.09713   124.42967   241.54637
   255  H   1.0    0.30    0.99    1.43   289.18428   123.30294   240.80990
   256  H   1.0    0.25    1.00    1.43   291.72257   121.48120   240.49284
   257  N   5.0   -0.48    3.01    1.93   280.79766   120.41408   232.17477
   258  C   4.0    0.08    3.99    3.60   278.51958   119.64683   230.87002
   259  C   4.0    0.27    3.01    3.02   278.92568   118.67770   228.17487
   260  O   6.0   -0.44    1.00    1.80   277.35490   117.28628   227.21161
   261  C   4.0   -0.09    3.98    3.58   276.57313   121.82185   230.86790
   262  C   4.0   -0.22    3.98    3.59   275.58408   122.30567   233.53623
   263  C   4.0   -0.21    3.98    3.59   277.67418   124.23682   229.73884
   264  H   1.0    0.26    1.00    1.43   280.65309   122.00374   233.23007
   265  H   1.0    0.12    0.99    1.43   277.68360   118.02841   231.87421
   266  H   1.0    0.12    0.99    1.43   274.98489   121.21701   229.69044
   267  H   1.0    0.11    0.99    1.43   274.27012   123.88104   233.48422
   268  H   1.0    0.09    0.99    1.43   274.59930   120.64876   234.24516
   269  H   1.0    0.13    0.99    1.43   277.10948   122.77318   234.83214
   270  H   1.0    0.12    0.99    1.43   276.22944   125.69528   229.72940
   271  H   1.0    0.13    0.99    1.43   279.28345   124.91803   230.82118
   272  H   1.0    0.11    0.99    1.43   278.28672   123.92619   227.80366
   273  N   5.0   -0.48    3.00    1.93   281.01535   119.45502   226.96499
   274  C   4.0    0.08    3.99    3.61   281.59897   118.69839   224.40644
   275  C   4.0    0.29    3.01    3.02   283.86605   116.92250   224.21001
   276  O   6.0   -0.45    1.00    1.80   284.73049   116.34571   222.13546
   277  C   4.0   -0.13    3.99    3.60   282.10127   121.00017   222.72670
   278  C   4.0   -0.10    3.98    3.58   279.78437   122.65722   222.23237
   279  C   4.0   -0.24    3.99    3.60   280.62748   125.08732   220.92606
   280  C   4.0   -0.23    3.98    3.59   277.82427   121.29562   220.61842
   281  H   1.0    0.26    1.00    1.43   282.20203   120.69459   227.80064
   282  H   1.0    0.16    0.99    1.43   279.97634   117.61876   223.69907
   283  H   1.0    0.14    0.99    1.43   283.58511   122.11342   223.63874
   284  H   1.0    0.13    0.99    1.43   282.83458   120.30391   220.92902
   285  H   1.0    0.11    0.99    1.43   278.91470   123.14491   224.04567
   286  H   1.0    0.10    0.99    1.43   279.00693   126.26304   220.47565
   287  H   1.0    0.11    0.99    1.43   281.89424   126.16257   222.13816
   288  H   1.0    0.10    0.99    1.43   281.60292   124.63481   219.17507
   289  H   1.0    0.09    0.99    1.43   276.20479   122.51556   220.29627
   290  H   1.0    0.10    0.99    1.43   278.63291   120.78560   218.80129
   291  H   1.0    0.12    0.99    1.43   277.16878   119.57753   221.53257
   292  N   5.0   -0.47    3.01    1.93   284.82146   116.04568   226.37654
   293  C   4.0    0.08    3.99    3.61   287.09412   114.53086   226.43996
   294  C   4.0    0.27    3.01    3.02   286.60550   111.69900   226.22917
   295  O   6.0   -0.47    1.00    1.80   288.16274   110.30673   225.23504
   296  C   4.0   -0.20    3.99    3.60   288.54773   115.02121   228.88051
   297  H   1.0    0.30    1.00    1.43   284.01111   116.47948   228.06362
   298  H   1.0    0.15    0.99    1.43   288.23954   115.05636   224.79356
   299  H   1.0    0.12    0.99    1.43   290.20492   113.81442   228.96220
   300  H   1.0    0.12    0.99    1.43   289.13050   116.98738   228.94725
   301  H   1.0    0.13    0.99    1.43   287.32510   114.61930   230.47985
   302  N   5.0   -0.47    3.01    1.93   284.48428   110.81159   227.27807
   303  C   4.0    0.07    4.00    3.62   283.86881   108.15827   227.12676
   304  C   4.0    0.28    3.01    3.02   281.02141   107.78554   226.90498
   305  O   6.0   -0.39    1.00    1.80   279.49848   109.21490   227.89637
   306  C   4.0   -0.13    3.98    3.59   284.80632   106.66790   229.45506
   307  C   4.0   -0.09    3.98    3.59   283.71580   107.68635   231.93530
   308  C   4.0    0.28    3.00    3.02   284.06687   105.78124   234.05789
   309  O   6.0   -0.39    1.00    1.80   285.60555   106.06780   235.75670
   310  N   5.0   -0.65    3.00    1.93   282.53855   103.76889   233.91429
   311  H   1.0    0.28    1.00    1.43   283.16384   111.95959   228.04262
   312  H   1.0    0.13    0.99    1.43   284.81335   107.39720   225.44850
   313  H   1.0    0.13    0.99    1.43   284.24606   104.70052   229.19998
   314  H   1.0    0.13    0.99    1.43   286.86444   106.76179   229.50537
   315  H   1.0    0.13    0.99    1.43   284.65992   109.43929   232.45862
   316  H   1.0    0.14    0.99    1.43   281.70058   108.05024   231.70299
   317  H   1.0    0.31    1.00    1.43   281.24990   103.56778   232.51989
   318  H   1.0    0.30    1.00    1.43   282.69714   102.38298   235.20855
   319  N   5.0   -0.47    3.01    1.93   280.37011   105.66904   225.69135
   320  C   4.0    0.09    4.00    3.62   277.78636   104.78171   225.68499
   321  C   4.0    0.29    3.01    3.02   277.01538   104.24013   228.41560
   322  O   6.0   -0.43    1.00    1.80   278.51115   103.39557   229.96663
   323  C   4.0   -0.10    3.98    3.59   277.54250   102.38353   224.10715
   324  C   4.0    0.31    2.99    3.02   277.96090   102.87832   221.22534
   325  O   6.0   -0.46    1.00    1.80   276.77554   101.44047   219.76833
   326  O   6.0   -0.44    1.00    1.80   279.39786   104.61386   220.59238
   327  H   1.0    0.25    1.00    1.43   281.64144   104.65143   224.70575
   328  H   1.0    0.16    0.99    1.43   276.54125   106.25544   224.93993
   329  H   1.0    0.13    0.99    1.43   278.93484   100.98958   224.72818
   330  H   1.0    0.12    0.99    1.43   275.66923   101.56328   224.35699
   331  N   5.0   -0.48    3.01    1.93   274.59235   104.71897   228.94269
   332  C   4.0    0.08    3.99    3.60   273.44148   104.05748   231.33143
   333  C   4.0    0.08    3.00    3.02   270.56545   104.25066   231.04379
   334  O   6.0   -0.44    1.00    1.80   269.62213   105.56594   229.38764
   335  C   4.0   -0.09    3.99    3.60   274.36241   105.78436   233.48561
   336  C   4.0    0.27    3.00    3.02   274.10882   104.52501   236.06136
   337  O   6.0   -0.39    1.00    1.80   273.00883   102.51393   236.38574
   338  N   5.0   -0.65    3.00    1.93   275.20287   105.78361   237.95559
   339  H   1.0    0.29    1.00    1.43   273.45094   105.53737   227.63480
   340  H   1.0    0.15    0.99    1.43   273.95802   102.10467   231.79921
   341  H   1.0    0.14    0.99    1.43   276.35369   106.20458   233.14694
   342  H   1.0    0.11    0.99    1.43   273.30665   107.55605   233.46947
   343  H   1.0    0.29    1.00    1.43   275.13132   105.04511   239.71126
   344  H   1.0    0.26    1.00    1.43   276.13494   107.41438   237.66566
   345  N   5.0   -0.69    3.00    1.93   262.95647   109.78966   227.96449
   346  C   4.0    0.09    3.99    3.61   265.09468   108.59588   226.74550
   347  C   4.0    0.28    3.01    3.02   266.90416   110.65105   225.80463
   348  O   6.0   -0.40    1.00    1.80   266.19973   112.43115   224.50504
   349  C   4.0   -0.09    3.98    3.58   264.23513   106.87885   224.59707
   350  C   4.0    0.31    3.00    3.02   262.40304   104.89610   225.79039
   351  O   6.0   -0.38    1.00    1.80   260.15584   105.54969   226.04260
   352  O   6.0   -0.36    1.00    1.80   263.36238   102.85458   226.47290
   353  H   1.0    0.30    1.00    1.43   261.51300   110.28905   226.82578
   354  H   1.0    0.15    0.99    1.43   266.05227   107.44330   228.17030
   355  H   1.0    0.13    0.99    1.43   263.25427   107.96376   223.14023
   356  H   1.0    0.12    0.99    1.43   265.86820   105.91699   223.79565
   357  N   5.0   -0.49    3.01    1.93   269.26409   110.34173   226.62769
   358  C   4.0    0.07    3.99    3.60   271.37523   111.91336   225.88122
   359  C   4.0    0.27    3.01    3.02   273.09608   110.29811   224.21517
   360  O   6.0   -0.45    1.00    1.80   273.05099   107.98294   224.37377
   361  C   4.0   -0.12    3.99    3.60   272.80572   112.84446   228.22366
   362  C   4.0   -0.09    3.98    3.58   271.08791   114.17324   230.14658
   363  C   4.0   -0.23    3.99    3.60   272.62731   114.81666   232.49792
   364  C   4.0   -0.21    3.98    3.59   269.91543   116.56772   229.04575
   365  H   1.0    0.29    1.00    1.43   269.70889   108.71644   227.54162
   366  H   1.0    0.13    0.99    1.43   270.60940   113.49206   224.79078
   367  H   1.0    0.13    0.99    1.43   273.69517   111.20569   229.11427
   368  H   1.0    0.14    0.99    1.43   274.30367   114.12998   227.62877
   369  H   1.0    0.13    0.99    1.43   269.56333   112.86847   230.66943
   370  H   1.0    0.09    0.99    1.43   271.42149   115.64343   233.93827
   371  H   1.0    0.10    0.99    1.43   273.52021   113.13002   233.25764
   372  H   1.0    0.11    0.99    1.43   274.09156   116.16454   231.99520
   373  H   1.0    0.10    0.99    1.43   268.89162   117.59117   230.50150
   374  H   1.0    0.11    0.99    1.43   271.38013   117.79971   228.29811
   375  H   1.0    0.13    0.99    1.43   268.59206   116.11076   227.54182
   376  N   5.0   -0.49    3.01    1.93   274.55008   111.55059   222.57962
   377  C   4.0    0.08    3.99    3.61   276.20690   110.33334   220.77993
   378  C   4.0    0.28    3.01    3.02   278.73833   111.70837   220.64485
   379  O   6.0   -0.42    1.00    1.80   278.91714   113.98167   221.01411
   380  C   4.0   -0.14    3.99    3.60   275.06328   110.39904   218.10278
   381  C   4.0   -0.17    3.98    3.58   272.69921   108.76572   217.82172
   382  C   4.0   -0.13    3.98    3.59   273.21872   106.03194   218.57789
   383  C   4.0   -0.06    3.98    3.58   271.41205   104.15381   217.35919
   384  N   5.0   -0.72    3.98    2.81   271.90014   101.61301   218.45306
   385  H   1.0    0.25    1.00    1.43   274.65764   113.45653   222.64491
   386  H   1.0    0.14    0.99    1.43   276.51321   108.38491   221.37704
   387  H   1.0    0.10    0.99    1.43   274.62598   112.36133   217.64296
   388  H   1.0    0.11    0.99    1.43   276.50397   109.73218   216.78637
   389  H   1.0    0.12    0.99    1.43   271.16503   109.53146   218.96973
   390  H   1.0    0.09    0.99    1.43   272.12567   108.82184   215.84684
   391  H   1.0    0.14    0.99    1.43   275.13868   105.54366   218.00902
   392  H   1.0    0.15    0.99    1.43   273.09259   105.86435   220.62875
   393  H   1.0    0.11    0.99    1.43   269.45039   104.69488   217.69589
   394  H   1.0    0.11    0.99    1.43   271.75633   104.08374   215.32967
   395  H   1.0    0.25    1.00    1.43   271.23891   100.19297   217.31413
   396  H   1.0    0.31    0.99    1.43   273.88887   101.39639   218.76045
   397  H   1.0    0.26    1.00    1.43   271.06736   101.46572   220.19627
   398  N   5.0   -0.48    3.01    1.93   280.67510   110.22598   219.96292
   399  C   4.0    0.08    4.00    3.61   283.14620   111.27199   219.38497
   400  C   4.0    0.27    3.01    3.02   283.09811   112.39858   216.70745
   401  O   6.0   -0.47    1.00    1.80   282.97536   111.04493   214.82435
   402  C   4.0   -0.13    3.98    3.59   285.21768   109.26842   219.52842
   403  C   4.0   -0.11    3.99    3.60   287.79635   110.52989   219.16674
   404  C   4.0    0.28    3.00    3.02   289.98688   108.67072   219.16600
   405  O   6.0   -0.43    1.00    1.80   291.39190   108.42839   217.33589
   406  N   5.0   -0.64    3.00    1.93   290.27303   107.34614   221.29127
   407  H   1.0    0.27    1.00    1.43   280.40799   108.34236   219.73416
   408  H   1.0    0.17    0.99    1.43   283.51786   112.79754   220.73132
   409  H   1.0    0.13    0.99    1.43   285.12158   108.32302   221.35403
   410  H   1.0    0.14    0.99    1.43   284.88516   107.86477   218.05269
   411  H   1.0    0.14    0.99    1.43   287.80765   111.53513   217.36774
   412  H   1.0    0.14    0.99    1.43   288.08850   111.88423   220.69360
   413  H   1.0    0.31    1.00    1.43   289.39141   107.92150   222.88663
   414  H   1.0    0.29    1.00    1.43   291.76700   106.17356   221.43701
   415  N   5.0   -0.49    3.01    1.93   283.20860   114.91011   216.61841
   416  C   4.0    0.08    4.00    3.62   283.22783   116.33615   214.27838
   417  C   4.0    0.27    3.01    3.02   285.70058   117.82309   214.17262
   418  O   6.0   -0.47    1.00    1.80   286.12251   119.55752   215.64528
   419  C   4.0   -0.08    3.98    3.59   280.97490   118.16475   214.10334
   420  C   4.0   -0.16    3.98    3.58   278.45595   116.75733   214.37145
   421  C   4.0   -0.23    3.98    3.59   281.13975   119.65678   211.63771
   422  C   4.0   -0.23    3.98    3.58   278.03512   114.66060   212.43706
   423  H   1.0    0.27    1.00    1.43   283.30946   115.89701   218.25751
   424  H   1.0    0.13    0.99    1.43   283.15293   114.99639   212.71490
   425  H   1.0    0.11    0.99    1.43   281.13983   119.49755   215.68020
   426  H   1.0    0.13    0.99    1.43   278.34789   115.95650   216.27184
   427  H   1.0    0.09    0.99    1.43   276.93803   118.14105   214.19107
   428  H   1.0    0.09    0.99    1.43   279.48907   120.86265   211.43716
   429  H   1.0    0.11    0.99    1.43   282.82011   120.84050   211.62893
   430  H   1.0    0.11    0.99    1.43   281.24614   118.39263   210.02395
   431  H   1.0    0.09    0.99    1.43   276.12594   113.93164   212.61799
   432  H   1.0    0.10    0.99    1.43   278.26793   115.35099   210.51820
   433  H   1.0    0.14    0.99    1.43   279.33475   113.09770   212.72440
   434  N   5.0   -0.47    3.01    1.93   287.33935   117.07455   212.40447
   435  C   4.0    0.07    3.99    3.60   289.69085   118.38132   211.92415
   436  C   4.0    0.08    3.00    3.02   290.47622   117.80797   209.21016
   437  O   6.0   -0.37    1.00    1.80   289.25542   116.35707   207.87154
   438  C   4.0   -0.09    3.99    3.60   291.74303   117.65065   213.84808
   439  C   4.0    0.30    3.00    3.02   292.26523   114.84394   213.73060
   440  O   6.0   -0.40    1.00    1.80   292.76057   113.76381   211.72873
   441  N   5.0   -0.64    3.00    1.93   292.13114   113.63279   215.92881
   442  H   1.0    0.29    1.00    1.43   286.94335   115.63192   211.19675
   443  H   1.0    0.11    0.99    1.43   289.37117   120.42414   212.08559
   444  H   1.0    0.10    0.99    1.43   293.46149   118.70224   213.40560
   445  H   1.0    0.13    0.99    1.43   291.11191   118.19647   215.73101
   446  H   1.0    0.32    1.00    1.43   292.27954   111.71451   216.04303
   447  H   1.0    0.27    1.00    1.43   291.81384   114.61736   217.52627
   448  N   5.0   -0.67    3.00    1.93   290.62693   110.63729   207.67120
   449  C   4.0    0.10    3.98    3.59   288.31341   109.19671   207.49777
   450  C   4.0    0.10    3.00    3.02   286.77116   109.96794   205.17128
   451  O   6.0   -0.40    1.00    1.80   285.55948   108.40169   203.97424
   452  C   4.0    0.05    3.98    3.58   286.66606   109.26405   209.87866
   453  O   6.0   -0.46    1.98    1.82   285.88414   111.75503   210.44961
   454  C   4.0   -0.19    3.98    3.59   288.03254   108.09503   212.13140
   455  H   1.0    0.34    1.00    1.43   290.96980   111.77849   209.16858
   456  H   1.0    0.12    0.99    1.43   288.84419   107.21290   207.17610
   457  H   1.0    0.12    0.99    1.43   284.98777   108.12219   209.40791
   458  H   1.0    0.29    0.99    1.43   284.72229   111.56563   211.88580
   459  H   1.0    0.13    0.99    1.43   286.71877   107.91297   213.69843
   460  H   1.0    0.11    0.99    1.43   288.77197   106.24867   211.63191
   461  H   1.0    0.15    0.99    1.43   289.58518   109.31518   212.69374
   462  N   5.0   -0.71    3.00    1.93   264.07009   114.96584   209.69291
   463  C   4.0    0.06    3.98    3.59   264.41372   114.78978   212.39847
   464  C   4.0    0.07    3.00    3.02   263.28483   117.12868   213.66616
   465  O   6.0   -0.39    1.00    1.80   261.97130   116.97959   215.57816
   466  C   4.0   -0.15    3.99    3.60   267.22398   114.50740   212.99077
   467  C   4.0   -0.10    3.98    3.58   268.37280   112.13991   211.77391
   468  C   4.0   -0.24    3.98    3.59   271.24972   112.34195   211.86692
   469  C   4.0   -0.23    3.98    3.59   267.43356   109.72974   213.04868
   470  H   1.0    0.25    1.00    1.43   265.44906   115.85088   208.70889
   471  H   1.0    0.13    0.99    1.43   263.32225   113.16514   213.08440
   472  H   1.0    0.10    0.99    1.43   268.18857   116.18022   212.26068
   473  H   1.0    0.11    0.99    1.43   267.45838   114.44014   215.03729
   474  H   1.0    0.11    0.99    1.43   267.81088   112.09935   209.78663
   475  H   1.0    0.10    0.99    1.43   272.11873   110.62700   211.14697
   476  H   1.0    0.09    0.99    1.43   271.85653   113.91043   210.68756
   477  H   1.0    0.09    0.99    1.43   271.87904   112.67631   213.79169
   478  H   1.0    0.10    0.99    1.43   268.28161   108.08373   212.16019
   479  H   1.0    0.10    0.99    1.43   267.89461   109.74865   215.04838
   480  H   1.0    0.11    0.99    1.43   265.38997   109.55473   212.89140
   481  H   1.0    0.29    1.00    1.43   264.85170   128.96330   237.30391
   482  H   1.0    0.14    1.00    1.43   263.85884   125.57096   232.03980
   483  H   1.0    0.29    1.00    1.43   265.79028   133.92806   229.35076
   484  H   1.0    0.14    1.00    1.43   268.65606   128.86223   222.46526
   485  H   1.0    0.30    1.00    1.43   274.00264   135.89195   221.02486
   486  H   1.0    0.15    1.00    1.43   272.58133   133.02322   212.99847
   487  H   1.0    0.30    1.00    1.43   280.83014   135.25040   211.25857
   488  H   1.0    0.16    1.00    1.43   277.90521   132.49805   206.18387
   489  H   1.0    0.30    1.00    1.43   292.77396   132.44584   220.71189
   490  H   1.0    0.15    1.00    1.43   269.43233   103.29584   232.21658
   491  H   1.0    0.32    1.00    1.43   262.29792   108.73039   229.12070
   492  H   1.0    0.13    1.00    1.43   292.01848   118.62091   208.48104
   493  H   1.0    0.30    1.00    1.43   291.95703   109.57739   207.67135
   494  H   1.0    0.17    1.00    1.43   286.74459   111.77251   204.61102
   495  H   1.0    0.29    1.00    1.43   263.96161   113.40272   209.03149
   496  H   1.0    0.13    1.00    1.43   263.60682   118.84414   212.94187

           ------------------------------------------------- 
          |        Self-Consistent Charge Iterations        |
           ------------------------------------------------- 

          ...................................................
          :                      SETUP                      :
          :.................................................:
          :  # basis functions                1198          :
          :  # atomic orbitals                1198          :
          :  # shells                          730          :
          :  # electrons                      1332          :
          :  max. iterations                   250          :
          :  Hamiltonian                  GFN2-xTB          :
          :  restarted?                      false          :
          :  GBSA solvation                   true          :
          :  PC potential                    false          :
          :  electronic temp.          500.0000000     K    :
          :  accuracy                    0.1000000          :
          :  -> integral cutoff          0.3500000E+02      :
          :  -> integral neglect         0.1000000E-08      :
          :  -> SCF convergence          0.1000000E-06 Eh   :
          :  -> wf. convergence          0.1000000E-04 e    :
          :  Broyden damping             0.4000000          :
          ...................................................

 iter      E             dE          RMSdq      gap      omega  full diag
   1   -763.9310157 -0.763931E+03  0.423E+00    1.64       0.0  T
   2   -766.0404465 -0.210943E+01  0.216E+00    1.34       1.0  T
   3   -766.1057006 -0.652541E-01  0.116E+00    1.50       1.0  T
   4   -766.1236524 -0.179518E-01  0.263E-01    0.84       1.0  T
   5   -766.1430764 -0.194240E-01  0.105E-01    1.01       1.0  T
   6   -766.1437468 -0.670399E-03  0.495E-02    1.04       1.0  T
   7   -766.1438293 -0.824816E-04  0.211E-02    1.08       1.0  T
   8   -766.1439031 -0.738620E-04  0.856E-03    1.09       1.0  T
   9   -766.1439117 -0.856637E-05  0.436E-03    1.08       1.0  T
  10   -766.1439134 -0.166405E-05  0.180E-03    1.08       2.5  T
  11   -766.1439137 -0.294347E-06  0.706E-04    1.08       6.4  T
  12   -766.1439137 -0.452046E-07  0.341E-04    1.08      13.2  T
  13   -766.1439137 -0.138617E-07  0.162E-04    1.08      27.7  T
  14   -766.1439137 -0.263128E-08  0.665E-05    1.08      67.5  T
  15   -766.1439137 -0.661657E-09  0.259E-05    1.08     173.3  T

   *** convergence criteria satisfied after 15 iterations ***

         #    Occupation            Energy/Eh            Energy/eV
      -------------------------------------------------------------
         1        2.0000           -0.7527718             -20.4840
       ...           ...                  ...                  ...
       660        2.0000           -0.3755149             -10.2183
       661        2.0000           -0.3681995             -10.0192
       662        2.0000           -0.3665998              -9.9757
       663        2.0000           -0.3530739              -9.6076
       664        2.0000           -0.3529424              -9.6041
       665        2.0000           -0.3500363              -9.5250
       666        2.0000           -0.3500171              -9.5245 (HOMO)
       667        0.0000           -0.3102201              -8.4415 (LUMO)
       668        0.0000           -0.3042857              -8.2800
       669                         -0.2949652              -8.0264
       670                         -0.2818750              -7.6702
       671                         -0.2814560              -7.6588
       ...                                ...                  ...
      1198                          0.6573710              17.8880
      -------------------------------------------------------------
                  HL-Gap            0.0397971 Eh            1.0829 eV
             Fermi-level           -0.3294809 Eh           -8.9656 eV

 SCC (total)                   0 d,  0 h,  0 min, 11.473 sec
 SCC setup                      ...        0 min,  0.118 sec (  1.031%)
 Dispersion                     ...        0 min,  0.117 sec (  1.017%)
 integral evaluation            ...        0 min,  0.336 sec (  2.926%)
 zeroth order Hamiltonian       ...        0 min,  0.006 sec (  0.053%)
 iterations                     ...        0 min,  9.404 sec ( 81.962%)
 molecular gradient             ...        0 min,  1.439 sec ( 12.540%)
 printout                       ...        0 min,  0.054 sec (  0.471%)

         :::::::::::::::::::::::::::::::::::::::::::::::::::::
         ::                     SUMMARY                     ::
         :::::::::::::::::::::::::::::::::::::::::::::::::::::
         :: total energy             -757.020565235865 Eh   ::
         :: total w/o Gsasa/hb       -756.935803876031 Eh   ::
         :: gradient norm               0.626066090014 Eh/α ::
         :: HOMO-LUMO gap               1.082932859871 eV   ::
         ::.................................................::
         :: SCC energy               -766.163857326481 Eh   ::
         :: -> isotropic ES             2.219339939136 Eh   ::
         :: -> anisotropic ES          -0.073189588702 Eh   ::
         :: -> anisotropic XC           0.231408138754 Eh   ::
         :: -> dispersion              -0.640467846850 Eh   ::
         :: -> Gsolv                   -0.415137139827 Eh   ::
         ::    -> Gborn                -0.330375779993 Eh   ::
         ::    -> Gsasa                -0.021801041793 Eh   ::
         ::    -> Ghb                  -0.064817761168 Eh   ::
         ::    -> Gshift                0.001857443127 Eh   ::
         :: repulsion energy            9.078769659213 Eh   ::
         :: add. restraining            0.000000000000 Eh   ::
         :::::::::::::::::::::::::::::::::::::::::::::::::::::

           -------------------------------------------------
          |                Property Printout                |
           -------------------------------------------------

    * Orbital Energies and Occupations

         #    Occupation            Energy/Eh            Energy/eV
      -------------------------------------------------------------
         1        2.0000           -0.7527718             -20.4840
       ...           ...                  ...                  ...
       654        2.0000           -0.3939835             -10.7208
       655        2.0000           -0.3929335             -10.6923
       656        2.0000           -0.3802012             -10.3458
       657        2.0000           -0.3798187             -10.3354
       658        2.0000           -0.3782823             -10.2936
       659        2.0000           -0.3765794             -10.2472
       660        2.0000           -0.3755149             -10.2183
       661        2.0000           -0.3681995             -10.0192
       662        2.0000           -0.3665998              -9.9757
       663        2.0000           -0.3530739              -9.6076
       664        2.0000           -0.3529424              -9.6041
       665        2.0000           -0.3500363              -9.5250
       666        2.0000           -0.3500171              -9.5245 (HOMO)
       667        0.0000           -0.3102201              -8.4415 (LUMO)
       668        0.0000           -0.3042857              -8.2800
       669                         -0.2949652              -8.0264
       670                         -0.2818750              -7.6702
       671                         -0.2814560              -7.6588
       672                         -0.2799647              -7.6182
       673                         -0.2768421              -7.5333
       674                         -0.2716610              -7.3923
       675                         -0.2449612              -6.6657
       676                         -0.2419475              -6.5837
       677                         -0.2416115              -6.5746
       ...                                ...                  ...
      1198                          0.6573710              17.8880
      -------------------------------------------------------------
                  HL-Gap            0.0397971 Eh            1.0829 eV
             Fermi-level           -0.3294809 Eh           -8.9656 eV

   #   Z        covCN         q      C6AA      α(0)
   1   7 N      2.638    -0.382    29.879     8.118
   2   6 C      3.787     0.034    20.008     6.371
   3   6 C      2.770     0.200    23.745     7.981
   4   8 O      0.856    -0.386    21.404     6.203
   5   6 C      3.853    -0.024    20.972     6.513
   6   6 C      3.805    -0.062    21.684     6.629
   7   6 C      3.756    -0.119    22.826     6.812
   8   6 C      3.751    -0.112    22.696     6.794
   9   1 H      0.860     0.170     1.270     1.765
  10   1 H      0.923     0.052     2.293     2.368
  11   1 H      0.924     0.049     2.332     2.388
  12   1 H      0.925     0.049     2.330     2.387
  13   1 H      0.924     0.036     2.505     2.475
  14   1 H      0.925     0.053     2.285     2.364
  15   1 H      0.925     0.032     2.559     2.501
  16   1 H      0.925     0.058     2.228     2.334
  17   1 H      0.925     0.044     2.391     2.418
  18   1 H      0.925     0.035     2.516     2.481
  19   1 H      0.925     0.043     2.403     2.424
  20   7 N      2.634    -0.392    30.164     8.157
  21   6 C      3.787     0.015    20.341     6.424
  22   6 C      2.758     0.270    22.444     7.758
  23   8 O      0.858    -0.502    23.827     6.545
  24   6 C      3.726     0.110    18.865     6.201
  25   8 O      1.655    -0.468    22.214     6.362
  26   6 C      3.752    -0.129    23.033     6.844
  27   1 H      0.860     0.159     1.345     1.816
  28   1 H      0.924     0.042     2.428     2.437
  29   1 H      0.924     0.038     2.477     2.461
  30   1 H      0.804     0.315     0.677     1.293
  31   1 H      0.925     0.060     2.200     2.320
  32   1 H      0.925     0.050     2.318     2.381
  33   1 H      0.925     0.051     2.305     2.374
  34   7 N      2.692    -0.169    24.656     7.375
  35   6 C      3.795     0.013    20.361     6.426
  36   6 C      2.766     0.198    23.782     7.987
  37   8 O      0.856    -0.345    20.620     6.088
  38   6 C      3.726     0.116    18.773     6.186
  39   8 O      1.656    -0.446    21.757     6.297
  40   6 C      3.754    -0.126    22.982     6.836
  41   1 H      0.860     0.239     0.928     1.509
  42   1 H      0.923     0.091     1.868     2.138
  43   1 H      0.923     0.032     2.565     2.505
  44   1 H      0.804     0.326     0.647     1.263
  45   1 H      0.925     0.065     2.136     2.285
  46   1 H      0.925     0.052     2.295     2.369
  47   1 H      0.925     0.070     2.091     2.261
  48   7 N      2.637    -0.412    30.711     8.231
  49   6 C      3.786     0.041    19.905     6.355
  50   6 C      2.760     0.267    22.500     7.768
  51   8 O      0.859    -0.512    24.051     6.575
  52   6 C      3.758    -0.120    22.844     6.814
  53   1 H      0.860     0.180     1.213     1.725
  54   1 H      0.923     0.025     2.666     2.554
  55   1 H      0.925     0.051     2.310     2.377
  56   1 H      0.925     0.054     2.267     2.355
  57   1 H      0.925     0.057     2.231     2.336
  58   7 N      2.690    -0.177    24.828     7.400
  59   6 C      3.797     0.032    20.037     6.374
  60   6 C      2.768     0.204    23.667     7.967
  61   8 O      0.856    -0.370    21.082     6.156
  62   6 C      3.811    -0.074    21.904     6.662
  63   6 C      3.849    -0.014    20.783     6.484
  64   6 C      3.757    -0.117    22.791     6.806
  65   6 C      3.756    -0.119    22.829     6.813
  66   1 H      0.860     0.241     0.919     1.501
  67   1 H      0.924     0.083     1.953     2.186
  68   1 H      0.924     0.059     2.209     2.324
  69   1 H      0.924     0.060     2.195     2.317
  70   1 H      0.924     0.050     2.321     2.383
  71   1 H      0.925     0.045     2.381     2.413
  72   1 H      0.925     0.035     2.514     2.480
  73   1 H      0.925     0.043     2.404     2.425
  74   1 H      0.925     0.050     2.316     2.380
  75   1 H      0.925     0.044     2.398     2.421
  76   1 H      0.925     0.042     2.427     2.436
  77   7 N      2.636    -0.406    30.541     8.208
  78   6 C      3.787     0.042    19.889     6.352
  79   6 C      2.765     0.207    23.607     7.957
  80   8 O      0.856    -0.391    21.510     6.218
  81   6 C      3.853    -0.018    20.859     6.496
  82   6 C      3.805    -0.059    21.624     6.620
  83   6 C      3.755    -0.114    22.730     6.798
  84   6 C      3.751    -0.106    22.586     6.777
  85   1 H      0.860     0.182     1.200     1.716
  86   1 H      0.923     0.037     2.488     2.467
  87   1 H      0.924     0.047     2.357     2.401
  88   1 H      0.924     0.034     2.524     2.484
  89   1 H      0.924     0.042     2.423     2.434
  90   1 H      0.925     0.055     2.260     2.351
  91   1 H      0.925     0.027     2.633     2.537
  92   1 H      0.925     0.042     2.427     2.436
  93   1 H      0.925     0.043     2.411     2.428
  94   1 H      0.925     0.033     2.542     2.493
  95   1 H      0.925     0.043     2.405     2.425
  96   7 N      2.636    -0.394    30.196     8.161
  97   6 C      3.791     0.022    20.217     6.403
  98   6 C      2.757     0.268    22.471     7.763
  99   8 O      0.858    -0.502    23.823     6.544
 100   6 C      3.853    -0.021    20.907     6.503
 101   6 C      3.756    -0.117    22.800     6.808
 102   6 C      3.757    -0.114    22.729     6.797
 103   1 H      0.860     0.166     1.298     1.785
 104   1 H      0.923     0.047     2.363     2.404
 105   1 H      0.924     0.040     2.451     2.448
 106   1 H      0.925     0.046     2.371     2.408
 107   1 H      0.925     0.032     2.555     2.500
 108   1 H      0.925     0.055     2.256     2.349
 109   1 H      0.925     0.043     2.408     2.426
 110   1 H      0.925     0.045     2.386     2.416
 111   1 H      0.925     0.044     2.399     2.422
 112   7 N      2.691    -0.166    24.591     7.365
 113   6 C      3.796     0.001    20.562     6.457
 114   6 C      2.760     0.288    22.118     7.702
 115   8 O      0.858    -0.468    23.084     6.442
 116   6 C      3.680     0.060    19.782     6.370
 117   8 O      1.655    -0.459    22.037     6.337
 118   1 H      0.860     0.221     1.003     1.569
 119   1 H      0.923     0.076     2.016     2.221
 120   1 H      0.924     0.060     2.198     2.318
 121   1 H      0.924     0.069     2.099     2.266
 122   1 H      0.804     0.325     0.651     1.267
 123   7 N      2.687    -0.178    24.855     7.404
 124   6 C      3.748    -0.039    21.344     6.589
 125   6 C      2.754     0.271    22.416     7.753
 126   8 O      0.859    -0.460    22.916     6.418
 127   1 H      0.860     0.210     1.055     1.609
 128   1 H      0.924     0.098     1.800     2.098
 129   1 H      0.924     0.105     1.738     2.061
 130   7 N      2.688    -0.171    24.697     7.381
 131   6 C      3.799     0.006    20.484     6.444
 132   6 C      2.760     0.268    22.473     7.763
 133   8 O      0.859    -0.476    23.249     6.465
 134   6 C      3.808    -0.064    21.713     6.633
 135   6 C      3.809    -0.108    22.546     6.759
 136   6 C      2.744     0.292    22.048     7.688
 137   8 O      0.859    -0.509    23.994     6.567
 138   7 N      2.640    -0.295    27.606     7.803
 139   1 H      0.860     0.194     1.138     1.671
 140   1 H      0.924     0.107     1.724     2.054
 141   1 H      0.924     0.056     2.243     2.342
 142   1 H      0.925     0.070     2.081     2.256
 143   1 H      0.925     0.084     1.938     2.177
 144   1 H      0.924     0.077     2.006     2.215
 145   1 H      0.860     0.232     0.956     1.531
 146   1 H      0.860     0.226     0.981     1.551
 147   7 N      2.689    -0.172    24.724     7.385
 148   6 C      3.801     0.008    20.444     6.438
 149   6 C      2.758     0.273    22.377     7.747
 150   8 O      0.859    -0.475    23.245     6.464
 151   6 C      3.727     0.122    18.686     6.172
 152   8 O      1.655    -0.474    22.348     6.382
 153   6 C      3.754    -0.129    23.039     6.844
 154   1 H      0.860     0.216     1.027     1.587
 155   1 H      0.924     0.063     2.162     2.299
 156   1 H      0.923     0.024     2.668     2.554
 157   1 H      0.804     0.324     0.653     1.270
 158   1 H      0.925     0.065     2.142     2.289
 159   1 H      0.925     0.047     2.357     2.401
 160   1 H      0.925     0.062     2.172     2.305
 161   7 N      2.689    -0.162    24.511     7.353
 162   6 C      3.800     0.007    20.463     6.441
 163   6 C      2.753     0.275    22.343     7.740
 164   8 O      0.858    -0.484    23.429     6.490
 165   6 C      3.805    -0.067    21.773     6.643
 166   6 C      3.806    -0.112    22.628     6.772
 167   6 C      2.743     0.291    22.073     7.693
 168   8 O      0.859    -0.508    23.972     6.564
 169   7 N      2.639    -0.279    27.213     7.748
 170   1 H      0.860     0.204     1.086     1.632
 171   1 H      0.924     0.093     1.853     2.129
 172   1 H      0.925     0.056     2.244     2.342
 173   1 H      0.925     0.079     1.990     2.206
 174   1 H      0.924     0.101     1.780     2.086
 175   1 H      0.925     0.079     1.987     2.205
 176   1 H      0.860     0.231     0.959     1.534
 177   1 H      0.860     0.231     0.963     1.537
 178   7 N      2.698    -0.178    24.864     7.406
 179   6 C      3.796     0.026    20.140     6.390
 180   6 C      2.766     0.272    22.397     7.750
 181   8 O      0.859    -0.467    23.069     6.440
 182   6 C      3.811    -0.076    21.943     6.668
 183   6 C      2.972     0.007    27.863     8.658
 184   6 C      2.924    -0.043    29.064     8.841
 185   6 C      2.925    -0.040    29.002     8.832
 186   6 C      2.920    -0.035    28.872     8.811
 187   6 C      2.919    -0.034    28.842     8.807
 188   6 C      2.919    -0.036    28.894     8.815
 189   1 H      0.860     0.221     1.004     1.569
 190   1 H      0.924     0.068     2.108     2.270
 191   1 H      0.924     0.065     2.142     2.289
 192   1 H      0.924     0.068     2.103     2.268
 193   1 H      0.926     0.038     2.476     2.461
 194   1 H      0.926     0.043     2.414     2.430
 195   1 H      0.926     0.037     2.489     2.467
 196   1 H      0.925     0.038     2.469     2.457
 197   1 H      0.925     0.035     2.513     2.479
 198   7 N      2.688    -0.171    24.701     7.381
 199   6 C      3.801     0.024    20.164     6.393
 200   6 C      2.756     0.283    22.216     7.718
 201   8 O      0.858    -0.484    23.435     6.490
 202   6 C      3.810    -0.097    22.337     6.728
 203   6 C      2.746     0.300    21.911     7.665
 204   8 O      0.859    -0.510    24.009     6.570
 205   7 N      2.638    -0.286    27.376     7.771
 206   1 H      0.860     0.215     1.033     1.592
 207   1 H      0.924     0.085     1.926     2.170
 208   1 H      0.924     0.078     2.001     2.212
 209   1 H      0.925     0.077     2.011     2.218
 210   1 H      0.860     0.233     0.954     1.530
 211   1 H      0.860     0.233     0.952     1.529
 212   7 N      2.685    -0.198    25.309     7.472
 213   6 C      3.746    -0.041    21.368     6.594
 214   6 C      2.751     0.260    22.618     7.788
 215   8 O      0.859    -0.474    23.213     6.460
 216   1 H      0.860     0.227     0.980     1.550
 217   1 H      0.924     0.101     1.779     2.086
 218   1 H      0.924     0.105     1.737     2.061
 219   7 N      2.692    -0.157    24.402     7.337
 220   6 C      3.800     0.012    20.374     6.427
 221   6 C      2.753     0.271    22.424     7.754
 222   8 O      0.859    -0.488    23.515     6.502
 223   6 C      3.853    -0.020    20.888     6.500
 224   6 C      3.756    -0.122    22.889     6.821
 225   6 C      3.756    -0.124    22.934     6.828
 226   1 H      0.860     0.223     0.997     1.564
 227   1 H      0.924     0.071     2.070     2.250
 228   1 H      0.924     0.064     2.151     2.294
 229   1 H      0.925     0.059     2.210     2.325
 230   1 H      0.925     0.033     2.549     2.497
 231   1 H      0.925     0.049     2.338     2.391
 232   1 H      0.925     0.053     2.277     2.360
 233   1 H      0.925     0.050     2.317     2.380
 234   1 H      0.925     0.050     2.324     2.384
 235   7 N      2.692    -0.159    24.435     7.342
 236   6 C      3.795     0.002    20.547     6.455
 237   6 C      2.751     0.265    22.532     7.773
 238   8 O      0.858    -0.489    23.549     6.506
 239   6 C      3.806    -0.078    21.981     6.674
 240   6 C      3.802    -0.094    22.286     6.721
 241   6 C      3.803    -0.089    22.198     6.708
 242   6 C      3.730    -0.047    21.508     6.620
 243   7 N      3.481    -0.161    24.460     7.346
 244   1 H      0.860     0.219     1.014     1.578
 245   1 H      0.924     0.096     1.823     2.111
 246   1 H      0.924     0.064     2.149     2.292
 247   1 H      0.925     0.061     2.186     2.312
 248   1 H      0.925     0.071     2.071     2.250
 249   1 H      0.925     0.080     1.984     2.203
 250   1 H      0.925     0.084     1.936     2.176
 251   1 H      0.925     0.054     2.265     2.354
 252   1 H      0.925     0.118     1.627     1.995
 253   1 H      0.924     0.108     1.711     2.046
 254   1 H      0.859     0.294     0.733     1.341
 255   1 H      0.857     0.296     0.726     1.335
 256   1 H      0.859     0.289     0.748     1.355
 257   7 N      2.690    -0.180    24.895     7.410
 258   6 C      3.792     0.018    20.276     6.413
 259   6 C      2.753     0.277    22.307     7.734
 260   8 O      0.859    -0.488    23.526     6.503
 261   6 C      3.852    -0.022    20.934     6.508
 262   6 C      3.755    -0.127    23.001     6.838
 263   6 C      3.755    -0.119    22.835     6.814
 264   1 H      0.860     0.225     0.988     1.557
 265   1 H      0.923     0.065     2.144     2.290
 266   1 H      0.924     0.066     2.130     2.282
 267   1 H      0.925     0.062     2.176     2.307
 268   1 H      0.925     0.051     2.305     2.374
 269   1 H      0.925     0.055     2.258     2.350
 270   1 H      0.925     0.062     2.175     2.306
 271   1 H      0.925     0.043     2.415     2.430
 272   1 H      0.925     0.034     2.529     2.487
 273   7 N      2.687    -0.176    24.820     7.399
 274   6 C      3.794     0.017    20.294     6.415
 275   6 C      2.758     0.269    22.449     7.759
 276   8 O      0.859    -0.498    23.740     6.533
 277   6 C      3.813    -0.071    21.840     6.652
 278   6 C      3.850    -0.009    20.699     6.471
 279   6 C      3.758    -0.115    22.744     6.799
 280   6 C      3.756    -0.119    22.839     6.814
 281   1 H      0.860     0.200     1.107     1.648
 282   1 H      0.924     0.096     1.823     2.112
 283   1 H      0.924     0.055     2.264     2.353
 284   1 H      0.924     0.059     2.207     2.323
 285   1 H      0.924     0.025     2.659     2.550
 286   1 H      0.925     0.050     2.326     2.385
 287   1 H      0.925     0.033     2.549     2.497
 288   1 H      0.925     0.044     2.395     2.420
 289   1 H      0.925     0.051     2.310     2.377
 290   1 H      0.925     0.044     2.393     2.419
 291   1 H      0.925     0.035     2.512     2.479
 292   7 N      2.688    -0.189    25.104     7.441
 293   6 C      3.796     0.022    20.204     6.401
 294   6 C      2.762     0.268    22.473     7.763
 295   8 O      0.859    -0.477    23.271     6.468
 296   6 C      3.759    -0.135    23.146     6.859
 297   1 H      0.860     0.219     1.013     1.576
 298   1 H      0.924     0.085     1.928     2.172
 299   1 H      0.925     0.080     1.983     2.202
 300   1 H      0.925     0.078     2.002     2.213
 301   1 H      0.925     0.073     2.048     2.238
 302   7 N      2.689    -0.161    24.480     7.348
 303   6 C      3.802     0.019    20.262     6.409
 304   6 C      2.761     0.271    22.417     7.754
 305   8 O      0.858    -0.486    23.474     6.496
 306   6 C      3.806    -0.069    21.825     6.650
 307   6 C      3.807    -0.099    22.381     6.735
 308   6 C      2.744     0.290    22.079     7.694
 309   8 O      0.859    -0.498    23.735     6.532
 310   7 N      2.639    -0.289    27.468     7.784
 311   1 H      0.860     0.205     1.082     1.629
 312   1 H      0.924     0.065     2.137     2.286
 313   1 H      0.924     0.058     2.222     2.331
 314   1 H      0.924     0.079     1.993     2.207
 315   1 H      0.925     0.075     2.029     2.227
 316   1 H      0.924     0.060     2.199     2.319
 317   1 H      0.860     0.225     0.987     1.557
 318   1 H      0.860     0.227     0.980     1.551
 319   7 N      2.696    -0.168    24.645     7.373
 320   6 C      3.800     0.030    20.063     6.377
 321   6 C      2.759     0.272    22.395     7.750
 322   8 O      0.858    -0.481    23.370     6.481
 323   6 C      3.803    -0.108    22.557     6.762
 324   6 C      2.683     0.371    20.711     7.448
 325   8 O      0.858    -0.598    26.076     6.846
 326   8 O      0.856    -0.594    25.975     6.833
 327   1 H      0.860     0.206     1.076     1.625
 328   1 H      0.924     0.068     2.102     2.268
 329   1 H      0.924     0.049     2.335     2.390
 330   1 H      0.925     0.044     2.394     2.420
 331   7 N      2.692    -0.174    24.763     7.391
 332   6 C      3.791     0.038    19.953     6.361
 333   6 C      2.767     0.204    23.664     7.967
 334   8 O      0.856    -0.359    20.887     6.127
 335   6 C      3.808    -0.099    22.374     6.733
 336   6 C      2.743     0.289    22.105     7.698
 337   8 O      0.859    -0.498    23.749     6.534
 338   7 N      2.639    -0.283    27.315     7.762
 339   1 H      0.860     0.214     1.035     1.594
 340   1 H      0.924     0.102     1.767     2.079
 341   1 H      0.924     0.100     1.781     2.087
 342   1 H      0.924     0.081     1.966     2.193
 343   1 H      0.860     0.249     0.888     1.476
 344   1 H      0.860     0.240     0.922     1.504
 345   7 N      2.637    -0.384    29.936     8.126
 346   6 C      3.794     0.046    19.803     6.337
 347   6 C      2.754     0.273    22.386     7.748
 348   8 O      0.858    -0.500    23.785     6.539
 349   6 C      3.801    -0.090    22.208     6.709
 350   6 C      2.688     0.375    20.640     7.435
 351   8 O      0.856    -0.647    27.305     7.006
 352   8 O      0.856    -0.651    27.415     7.020
 353   1 H      0.860     0.156     1.359     1.826
 354   1 H      0.924     0.031     2.575     2.510
 355   1 H      0.924     0.013     2.848     2.639
 356   1 H      0.925     0.010     2.895     2.661
 357   7 N      2.696    -0.176    24.818     7.399
 358   6 C      3.794     0.022    20.220     6.403
 359   6 C      2.758     0.271    22.421     7.754
 360   8 O      0.858    -0.497    23.710     6.528
 361   6 C      3.810    -0.075    21.931     6.666
 362   6 C      3.849    -0.008    20.691     6.470
 363   6 C      3.758    -0.118    22.807     6.809
 364   6 C      3.756    -0.117    22.798     6.808
 365   1 H      0.860     0.211     1.051     1.606
 366   1 H      0.924     0.074     2.043     2.235
 367   1 H      0.924     0.039     2.466     2.456
 368   1 H      0.924     0.076     2.026     2.226
 369   1 H      0.924     0.023     2.694     2.567
 370   1 H      0.925     0.054     2.268     2.355
 371   1 H      0.925     0.036     2.501     2.473
 372   1 H      0.925     0.051     2.313     2.378
 373   1 H      0.925     0.052     2.301     2.372
 374   1 H      0.925     0.052     2.290     2.366
 375   1 H      0.925     0.029     2.606     2.525
 376   7 N      2.689    -0.162    24.510     7.353
 377   6 C      3.796     0.020    20.244     6.407
 378   6 C      2.761     0.267    22.499     7.768
 379   8 O      0.858    -0.475    23.248     6.465
 380   6 C      3.809    -0.069    21.821     6.650
 381   6 C      3.802    -0.069    21.819     6.650
 382   6 C      3.805    -0.084    22.092     6.691
 383   6 C      3.731    -0.036    21.312     6.590
 384   7 N      3.481    -0.171    24.689     7.380
 385   1 H      0.860     0.211     1.049     1.605
 386   1 H      0.924     0.071     2.080     2.255
 387   1 H      0.924     0.061     2.193     2.316
 388   1 H      0.924     0.058     2.219     2.329
 389   1 H      0.924     0.039     2.456     2.451
 390   1 H      0.925     0.078     2.002     2.213
 391   1 H      0.924     0.068     2.111     2.272
 392   1 H      0.924     0.056     2.249     2.345
 393   1 H      0.924     0.096     1.821     2.111
 394   1 H      0.925     0.115     1.654     2.011
 395   1 H      0.859     0.293     0.735     1.343
 396   1 H      0.855     0.308     0.691     1.303
 397   1 H      0.859     0.265     0.827     1.425
 398   7 N      2.691    -0.185    25.019     7.429
 399   6 C      3.799     0.020    20.244     6.406
 400   6 C      2.756     0.272    22.396     7.750
 401   8 O      0.858    -0.492    23.604     6.514
 402   6 C      3.806    -0.060    21.658     6.625
 403   6 C      3.809    -0.101    22.413     6.739
 404   6 C      2.743     0.287    22.127     7.702
 405   8 O      0.859    -0.500    23.783     6.539
 406   7 N      2.638    -0.288    27.431     7.779
 407   1 H      0.860     0.217     1.024     1.585
 408   1 H      0.924     0.080     1.984     2.203
 409   1 H      0.925     0.051     2.307     2.375
 410   1 H      0.924     0.058     2.226     2.333
 411   1 H      0.924     0.058     2.218     2.329
 412   1 H      0.924     0.078     2.003     2.213
 413   1 H      0.860     0.244     0.906     1.491
 414   1 H      0.860     0.234     0.949     1.526
 415   7 N      2.692    -0.159    24.429     7.341
 416   6 C      3.800     0.009    20.424     6.435
 417   6 C      2.759     0.266    22.506     7.769
 418   8 O      0.859    -0.470    23.131     6.448
 419   6 C      3.853    -0.018    20.867     6.497
 420   6 C      3.802    -0.065    21.739     6.638
 421   6 C      3.755    -0.118    22.808     6.810
 422   6 C      3.751    -0.117    22.793     6.808
 423   1 H      0.860     0.220     1.009     1.573
 424   1 H      0.924     0.076     2.017     2.221
 425   1 H      0.924     0.052     2.294     2.368
 426   1 H      0.924     0.031     2.570     2.507
 427   1 H      0.924     0.054     2.276     2.359
 428   1 H      0.925     0.062     2.171     2.304
 429   1 H      0.925     0.038     2.476     2.461
 430   1 H      0.925     0.046     2.366     2.406
 431   1 H      0.925     0.045     2.386     2.416
 432   1 H      0.925     0.046     2.374     2.410
 433   1 H      0.925     0.031     2.567     2.506
 434   7 N      2.692    -0.165    24.580     7.363
 435   6 C      3.794     0.031    20.056     6.377
 436   6 C      2.768     0.197    23.801     7.990
 437   8 O      0.856    -0.352    20.742     6.106
 438   6 C      3.809    -0.117    22.724     6.786
 439   6 C      2.745     0.290    22.075     7.693
 440   8 O      0.859    -0.506    23.907     6.556
 441   7 N      2.639    -0.278    27.179     7.743
 442   1 H      0.860     0.221     1.004     1.570
 443   1 H      0.924     0.108     1.716     2.048
 444   1 H      0.924     0.103     1.756     2.072
 445   1 H      0.925     0.102     1.771     2.081
 446   1 H      0.860     0.233     0.952     1.528
 447   1 H      0.860     0.221     1.007     1.572
 448   7 N      2.633    -0.388    30.040     8.140
 449   6 C      3.783     0.038    19.946     6.362
 450   6 C      2.765     0.205    23.645     7.963
 451   8 O      0.856    -0.386    21.399     6.202
 452   6 C      3.726     0.127    18.604     6.158
 453   8 O      1.653    -0.489    22.660     6.426
 454   6 C      3.753    -0.121    22.887     6.822
 455   1 H      0.860     0.181     1.211     1.724
 456   1 H      0.923     0.047     2.357     2.401
 457   1 H      0.923     0.006     2.955     2.688
 458   1 H      0.803     0.327     0.646     1.263
 459   1 H      0.925     0.050     2.317     2.380
 460   1 H      0.925     0.045     2.385     2.415
 461   1 H      0.925     0.063     2.168     2.303
 462   7 N      2.638    -0.394    30.199     8.162
 463   6 C      3.783     0.039    19.929     6.359
 464   6 C      2.766     0.200    23.742     7.980
 465   8 O      0.856    -0.392    21.520     6.220
 466   6 C      3.811    -0.072    21.877     6.658
 467   6 C      3.850    -0.012    20.752     6.479
 468   6 C      3.757    -0.120    22.846     6.815
 469   6 C      3.755    -0.119    22.841     6.815
 470   1 H      0.860     0.170     1.273     1.768
 471   1 H      0.924     0.054     2.274     2.358
 472   1 H      0.924     0.051     2.301     2.372
 473   1 H      0.924     0.039     2.459     2.452
 474   1 H      0.924     0.040     2.445     2.445
 475   1 H      0.925     0.047     2.356     2.400
 476   1 H      0.925     0.046     2.369     2.407
 477   1 H      0.925     0.042     2.427     2.436
 478   1 H      0.925     0.049     2.335     2.390
 479   1 H      0.925     0.039     2.456     2.451
 480   1 H      0.925     0.032     2.556     2.500
 481   1 H      0.862     0.180     1.216     1.727
 482   1 H      0.930     0.083     1.949     2.183
 483   1 H      0.862     0.187     1.175     1.698
 484   1 H      0.930     0.076     2.019     2.222
 485   1 H      0.862     0.170     1.272     1.766
 486   1 H      0.930     0.067     2.122     2.278
 487   1 H      0.862     0.175     1.243     1.746
 488   1 H      0.930     0.065     2.136     2.285
 489   1 H      0.862     0.186     1.181     1.702
 490   1 H      0.930     0.090     1.880     2.144
 491   1 H      0.862     0.167     1.288     1.777
 492   1 H      0.930     0.090     1.880     2.144
 493   1 H      0.862     0.182     1.205     1.719
 494   1 H      0.930     0.080     1.980     2.200
 495   1 H      0.862     0.185     1.187     1.707
 496   1 H      0.930     0.078     1.995     2.209

 Mol. C6AA /au·bohr⁶  :    2181260.471173
 Mol. C8AA /au·bohr⁸  :   47921637.738311
 Mol. α(0) /au        :       2200.297847


Wiberg/Mayer (AO) data.
largest (>0.10) Wiberg bond orders for each atom
          total WBO             WBO to atom ...
     1  N   3.010        C    2 1.008    H  481 0.956    H    9 0.948
     2  C   3.982        N    1 1.008    C    3 0.984    H   10 0.956    C    5 0.947
     3  C   3.876        O    4 1.823    C    2 0.984    H  482 0.954
     4  O   2.049        C    3 1.823
     5  C   3.989        C    7 1.008    C    6 0.995    H   11 0.964    C    2 0.947
     6  C   3.995        C    8 1.017    C    5 0.995    H   13 0.972    H   12 0.972
     7  C   3.994        C    5 1.008    H   16 0.983    H   14 0.981    H   15 0.978
     8  C   3.994        C    6 1.017    H   18 0.987    H   17 0.985    H   19 0.984
     9  H   0.971        N    1 0.948
    10  H   0.997        C    2 0.956
    11  H   0.997        C    5 0.964
    12  H   0.998        C    6 0.972
    13  H   0.999        C    6 0.972
    14  H   0.997        C    7 0.981
    15  H   0.999        C    7 0.978
    16  H   0.997        C    7 0.983
    17  H   0.997        C    8 0.985
    18  H   0.999        C    8 0.987
    19  H   0.998        C    8 0.984
    20  N   2.996        C   21 1.018    H  483 0.954    H   27 0.949
    21  C   3.984        N   20 1.018    H   28 0.963    C   24 0.946    C   22 0.938
    22  C   3.946        O   23 1.609    N   34 1.316    C   21 0.938
    23  O   1.951        C   22 1.609    N   34 0.196
    24  C   3.957        O   25 1.001    C   26 0.996    H   29 0.963    C   21 0.946
    25  O   1.956        C   24 1.001    H   30 0.862
    26  C   3.993        C   24 0.996    H   32 0.985    H   31 0.983    H   33 0.981
    27  H   0.975        N   20 0.949
    28  H   0.998        C   21 0.963
    29  H   0.998        C   24 0.963
    30  H   0.901        O   25 0.862
    31  H   0.996        C   26 0.983
    32  H   0.997        C   26 0.985
    33  H   0.997        C   26 0.981
[...]
   163  C   3.948        O  164 1.641    N  178 1.290    C  162 0.944
   164  O   1.963        C  163 1.641    N  178 0.194
   165  C   3.988        C  166 1.007    H  172 0.966    C  162 0.960    H  173 0.958
   166  C   3.992        C  165 1.007    C  167 0.977    H  175 0.966    H  174 0.942
   167  C   3.938        O  168 1.593    N  169 1.331    C  166 0.977
   168  O   1.955        C  167 1.593    N  169 0.187
   169  N   3.412        C  167 1.331    H  176 0.927    H  177 0.925    O  168 0.187
   170  H   0.958        N  161 0.923
   171  H   0.991        C  162 0.934
   172  H   0.996        C  165 0.966
   173  H   0.993        C  165 0.958
   174  H   0.990        C  166 0.942
   175  H   0.994        C  166 0.966
   176  H   0.946        N  169 0.927
   177  H   0.946        N  169 0.925
   178  N   3.466        C  163 1.290    C  179 0.981    H  189 0.898    O  164 0.194
   179  C   3.966        N  178 0.981    H  190 0.958    C  182 0.957    C  180 0.934
   180  C   3.947        O  181 1.618    N  198 1.306    C  179 0.934
   181  O   1.980        C  180 1.618    N  198 0.194
   182  C   3.987        C  183 1.008    H  191 0.968    H  192 0.968    C  179 0.957
   183  C   3.988        C  184 1.414    C  185 1.409    C  182 1.008    C  188 0.110
   184  C   3.991        C  186 1.444    C  183 1.414    H  193 0.969    C  187 0.110
   185  C   3.991        C  187 1.447    C  183 1.409    H  194 0.968    C  186 0.111
   186  C   3.992        C  184 1.444    C  188 1.439    H  195 0.971    C  185 0.111
   187  C   3.992        C  185 1.447    C  188 1.437    H  196 0.970    C  184 0.110
   188  C   3.991        C  186 1.439    C  187 1.437    H  197 0.971    C  183 0.110
   189  H   0.951        N  178 0.898
   190  H   0.995        C  179 0.958
   191  H   0.995        C  182 0.968
   192  H   0.995        C  182 0.968
   193  H   0.999        C  184 0.969
   194  H   0.998        C  185 0.968
   195  H   0.998        C  186 0.971
   196  H   0.998        C  187 0.970
   197  H   0.998        C  188 0.971
   198  N   3.481        C  180 1.306    C  199 0.979    H  206 0.924    O  181 0.194
   199  C   3.963        C  202 0.982    N  198 0.979    H  207 0.943    C  200 0.933
   200  C   3.953        O  201 1.640    N  212 1.295    C  199 0.933
   201  O   1.966        C  200 1.640    N  212 0.197
   202  C   3.992        C  199 0.982    H  209 0.968    C  203 0.964    H  208 0.952
   203  C   3.946        O  204 1.637    N  205 1.314    C  202 0.964
   204  O   1.938        C  203 1.637    N  205 0.197
   205  N   3.397        C  203 1.314    H  211 0.927    H  210 0.924    O  204 0.197
   206  H   0.954        N  198 0.924
   207  H   0.992        C  199 0.943
   208  H   0.993        C  202 0.952
   209  H   0.994        C  202 0.968
   210  H   0.945        N  205 0.924
   211  H   0.946        N  205 0.927
   212  N   3.455        C  200 1.295    C  213 0.998    H  216 0.873    O  201 0.197
   213  C   3.959        N  212 0.998    H  217 0.960    C  214 0.951    H  218 0.937
   214  C   3.954        O  215 1.574    N  219 1.345    C  213 0.951
   215  O   1.962        C  214 1.574    N  219 0.193
   216  H   0.949        N  212 0.873
   217  H   0.989        C  213 0.960
   218  H   0.989        C  213 0.937
   219  N   3.505        C  214 1.345    C  220 0.976    H  226 0.888    O  215 0.193
   220  C   3.964        N  219 0.976    C  223 0.968    H  227 0.952    C  221 0.934
   221  C   3.949        O  222 1.598    N  235 1.322    C  220 0.934
   222  O   1.970        C  221 1.598    N  235 0.192
   223  C   3.988        C  225 1.008    C  224 1.008    C  220 0.968    H  228 0.961
   224  C   3.993        C  223 1.008    H  231 0.985    H  229 0.984    H  230 0.983
   225  C   3.992        C  223 1.008    H  233 0.985    H  232 0.983    H  234 0.983
   226  H   0.950        N  219 0.888
   227  H   0.995        C  220 0.952
   228  H   0.996        C  223 0.961
   229  H   0.996        C  224 0.984
   230  H   0.999        C  224 0.983
   231  H   0.998        C  224 0.985
   232  H   0.997        C  225 0.983
   233  H   0.997        C  225 0.985
   234  H   0.998        C  225 0.983
   235  N   3.493        C  221 1.322    C  236 0.968    H  244 0.916    O  222 0.192
   236  C   3.955        C  239 0.991    N  235 0.968    H  245 0.939    C  237 0.923
   237  C   3.942        O  238 1.612    N  257 1.315    C  236 0.923
   238  O   1.966        C  237 1.612    N  257 0.196
   239  C   3.985        C  240 1.005    C  236 0.991    H  247 0.969    H  246 0.969
   240  C   3.989        C  241 1.008    C  239 1.005    H  249 0.971    H  248 0.969
   241  C   3.987        C  242 1.012    C  240 1.008    H  251 0.960    H  250 0.958
   242  C   3.921        C  241 1.012    H  253 0.968    H  252 0.965    N  243 0.956
   243  N   3.653        C  242 0.956    H  256 0.902    H  254 0.901    H  255 0.841
   244  H   0.952        N  235 0.916
   245  H   0.991        C  236 0.939
   246  H   0.996        C  239 0.969
   247  H   0.996        C  239 0.969
   248  H   0.995        C  240 0.969
   249  H   0.993        C  240 0.971
   250  H   0.993        C  241 0.958
   251  H   0.997        C  241 0.960
   252  H   0.986        C  242 0.965
   253  H   0.988        C  242 0.968
   254  H   0.914        N  243 0.901
   255  H   0.912        N  243 0.841
   256  H   0.917        N  243 0.902
   257  N   3.481        C  237 1.315    C  258 0.983    H  264 0.897    O  238 0.196
   258  C   3.964        N  257 0.983    C  261 0.958    C  259 0.943    H  265 0.937
   259  C   3.947        O  260 1.640    N  273 1.283    C  258 0.943
   260  O   1.963        C  259 1.640    N  273 0.192
   261  C   3.984        C  263 1.010    C  262 1.007    H  266 0.961    C  258 0.958
   262  C   3.991        C  261 1.007    H  268 0.984    H  267 0.981    H  269 0.976
   263  C   3.993        C  261 1.010    H  270 0.982    H  271 0.979    H  272 0.976
   264  H   0.949        N  257 0.897
   265  H   0.996        C  258 0.937
   266  H   0.995        C  261 0.961
   267  H   0.996        C  262 0.981
   268  H   0.997        C  262 0.984
   269  H   0.997        C  262 0.976
   270  H   0.996        C  263 0.982
   271  H   0.998        C  263 0.979
   272  H   0.999        C  263 0.976
   273  N   3.468        C  259 1.283    C  274 0.985    H  281 0.925    O  260 0.192
   274  C   3.959        N  273 0.985    C  277 0.974    C  275 0.944    H  282 0.926
   275  C   3.948        O  276 1.603    N  292 1.312    C  274 0.944
   276  O   1.945        C  275 1.603    N  292 0.187
   277  C   3.986        C  278 0.995    C  274 0.974    H  284 0.967    H  283 0.967
   278  C   3.995        C  280 1.010    C  279 1.007    C  277 0.995    H  285 0.959
   279  C   3.994        C  278 1.007    H  287 0.984    H  288 0.983    H  286 0.982
   280  C   3.994        C  278 1.010    H  289 0.982    H  291 0.982    H  290 0.980
   281  H   0.960        N  273 0.925
   282  H   0.990        C  274 0.926
   283  H   0.997        C  277 0.967
   284  H   0.996        C  277 0.967
   285  H   0.999        C  278 0.959
   286  H   0.997        C  279 0.982
   287  H   0.999        C  279 0.984
   288  H   0.998        C  279 0.983
   289  H   0.997        C  280 0.982
   290  H   0.998        C  280 0.980
   291  H   0.999        C  280 0.982
   292  N   3.469        C  275 1.312    C  293 0.982    H  297 0.885    O  276 0.187
   293  C   3.962        C  296 0.984    N  292 0.982    H  298 0.949    C  294 0.942
   294  C   3.944        O  295 1.616    N  302 1.300    C  293 0.942
   295  O   1.966        C  294 1.616    N  302 0.192
   296  C   3.980        C  293 0.984    H  299 0.980    H  301 0.978    H  300 0.977
   297  H   0.952        N  292 0.885
   298  H   0.992        C  293 0.949
   299  H   0.993        C  296 0.980
   300  H   0.993        C  296 0.977
   301  H   0.995        C  296 0.978
   302  N   3.480        C  294 1.300    C  303 0.992    H  311 0.922    O  295 0.192
   303  C   3.971        N  302 0.992    C  306 0.957    H  312 0.946    C  304 0.945
   304  C   3.949        O  305 1.631    N  319 1.300    C  303 0.945
   305  O   1.959        C  304 1.631    N  319 0.198
   306  C   3.987        C  307 0.995    H  313 0.971    H  314 0.971    C  303 0.957
   307  C   3.993        C  306 0.995    H  315 0.974    C  308 0.965    H  316 0.962
   308  C   3.947        O  309 1.642    N  310 1.314    C  307 0.965
   309  O   1.942        C  308 1.642    N  310 0.203
   310  N   3.403        C  308 1.314    H  318 0.927    H  317 0.912    O  309 0.203
   311  H   0.958        N  302 0.922
   312  H   0.995        C  303 0.946
   313  H   0.996        C  306 0.971
   314  H   0.993        C  306 0.971
   315  H   0.994        C  307 0.974
   316  H   0.996        C  307 0.962
   317  H   0.949        N  310 0.912
   318  H   0.948        N  310 0.927
   319  N   3.475        C  304 1.300    C  320 0.982    H  327 0.923    O  305 0.198
   320  C   3.966        N  319 0.982    C  323 0.981    C  321 0.935    H  328 0.933
   321  C   3.949        O  322 1.619    N  331 1.304    C  320 0.935
   322  O   1.952        C  321 1.619    N  331 0.192
   323  C   3.978        C  320 0.981    H  330 0.973    H  329 0.962    C  324 0.906
   324  C   3.938        O  326 1.537    O  325 1.449    C  323 0.906
   325  O   1.853        C  324 1.449    O  326 0.206
   326  O   1.861        C  324 1.537    O  325 0.206
   327  H   0.957        N  319 0.923
   328  H   0.995        C  320 0.933
   329  H   0.997        C  323 0.962
   330  H   0.997        C  323 0.973
   331  N   3.472        C  321 1.304    C  332 0.990    H  339 0.903    O  322 0.192
   332  C   3.968        C  333 0.990    N  331 0.990    C  335 0.950    H  340 0.934
   333  C   3.891        O  334 1.879    C  332 0.990    H  490 0.953
   334  O   2.079        C  333 1.879
   335  C   3.985        C  336 0.965    H  342 0.957    C  332 0.950    H  341 0.950
   336  C   3.953        O  337 1.643    N  338 1.322    C  335 0.965
   337  O   1.951        C  336 1.643    N  338 0.204
   338  N   3.401        C  336 1.322    H  344 0.924    H  343 0.917    O  337 0.204
   339  H   0.954        N  331 0.903
   340  H   0.989        C  332 0.934
   341  H   0.990        C  335 0.950
   342  H   0.993        C  335 0.957
   343  H   0.937        N  338 0.917
   344  H   0.942        N  338 0.924
   345  N   2.997        C  346 1.013    H  491 0.958    H  353 0.957
   346  C   3.983        N  345 1.013    C  349 0.966    H  354 0.958    C  347 0.935
   347  C   3.948        O  348 1.629    N  357 1.307    C  346 0.935
   348  O   1.937        C  347 1.629    N  357 0.197
   349  C   3.990        H  356 0.979    H  355 0.977    C  346 0.966    C  350 0.909
   350  C   3.933        O  351 1.502    O  352 1.497    C  349 0.909
   351  O   1.796        C  350 1.502    O  352 0.216
   352  O   1.787        C  350 1.497    O  351 0.216
   353  H   0.975        N  345 0.957
   354  H   0.999        C  346 0.958
   355  H   1.000        C  349 0.977
   356  H   1.000        C  349 0.979
   357  N   3.471        C  347 1.307    C  358 0.980    H  365 0.897    O  348 0.197
   358  C   3.962        N  357 0.980    C  361 0.966    H  366 0.949    C  359 0.941
   359  C   3.946        O  360 1.596    N  376 1.318    C  358 0.941
   360  O   1.951        C  359 1.596    N  376 0.190
   361  C   3.983        C  362 0.991    H  367 0.974    C  358 0.966    H  368 0.965
   362  C   3.993        C  364 1.010    C  363 1.007    C  361 0.991    H  369 0.968
   363  C   3.993        C  362 1.007    H  371 0.986    H  370 0.985    H  372 0.978
   364  C   3.994        C  362 1.010    H  375 0.985    H  374 0.984    H  373 0.983
   365  H   0.955        N  357 0.897
   366  H   0.994        C  358 0.949
   367  H   0.998        C  361 0.974
   368  H   0.994        C  361 0.965
   369  H   0.999        C  362 0.968
   370  H   0.996        C  363 0.985
   371  H   0.999        C  363 0.986
   372  H   0.997        C  363 0.978
   373  H   0.997        C  364 0.983
   374  H   0.997        C  364 0.984
   375  H   0.999        C  364 0.985
   376  N   3.484        C  359 1.318    C  377 0.984    H  385 0.920    O  360 0.190
   377  C   3.963        N  376 0.984    C  380 0.959    H  386 0.945    C  378 0.942
   378  C   3.952        O  379 1.635    N  398 1.299    C  377 0.942
   379  O   1.961        C  378 1.635    N  398 0.198
   380  C   3.988        C  381 1.006    H  387 0.972    H  388 0.971    C  377 0.959
   381  C   3.993        C  380 1.006    C  382 1.004    H  389 0.978    H  390 0.964
   382  C   3.989        C  383 1.010    C  381 1.004    H  391 0.969    H  392 0.967
   383  C   3.923        C  382 1.010    H  393 0.970    H  394 0.966    N  384 0.960
   384  N   3.642        C  383 0.960    H  397 0.916    H  395 0.902    H  396 0.794
   385  H   0.955        N  376 0.920
   386  H   0.995        C  377 0.945
   387  H   0.996        C  380 0.972
   388  H   0.996        C  380 0.971
   389  H   0.998        C  381 0.978
   390  H   0.994        C  381 0.964
   391  H   0.995        C  382 0.969
   392  H   0.997        C  382 0.967
   393  H   0.991        C  383 0.970
   394  H   0.987        C  383 0.966
   395  H   0.914        N  384 0.902
   396  H   0.905        N  384 0.794
   397  H   0.930        N  384 0.916
   398  N   3.468        C  378 1.299    C  399 0.973    H  407 0.908    O  379 0.198
   399  C   3.960        C  402 0.988    N  398 0.973    H  408 0.942    C  400 0.926
   400  C   3.949        O  401 1.594    N  415 1.337    C  399 0.926
   401  O   1.963        C  400 1.594    N  415 0.200
   402  C   3.990        C  403 0.994    C  399 0.988    H  410 0.972    H  409 0.967
   403  C   3.992        C  402 0.994    H  411 0.971    C  404 0.969    H  412 0.955
   404  C   3.948        O  405 1.611    N  406 1.338    C  403 0.969
   405  O   1.950        C  404 1.611    N  406 0.197
   406  N   3.405        C  404 1.338    H  414 0.924    H  413 0.894    O  405 0.197
   407  H   0.953        N  398 0.908
   408  H   0.993        C  399 0.942
   409  H   0.997        C  402 0.967
   410  H   0.996        C  402 0.972
   411  H   0.996        C  403 0.971
   412  H   0.994        C  403 0.955
   413  H   0.940        N  406 0.894
   414  H   0.945        N  406 0.924
   415  N   3.506        C  400 1.337    C  416 0.971    H  423 0.907    O  401 0.200
   416  C   3.954        N  415 0.971    C  419 0.959    H  424 0.948    C  417 0.934
   417  C   3.953        O  418 1.615    N  434 1.321    C  416 0.934
   418  O   1.959        C  417 1.615    N  434 0.200
   419  C   3.987        C  421 1.007    C  420 0.995    C  416 0.959    H  425 0.959
   420  C   3.995        C  422 1.020    C  419 0.995    H  426 0.976    H  427 0.971
   421  C   3.993        C  419 1.007    H  430 0.983    H  429 0.983    H  428 0.982
   422  C   3.994        C  420 1.020    H  432 0.984    H  433 0.984    H  431 0.982
   423  H   0.951        N  415 0.907
   424  H   0.994        C  416 0.948
   425  H   0.997        C  419 0.959
   426  H   0.999        C  420 0.976
   427  H   0.997        C  420 0.971
   428  H   0.995        C  421 0.982
   429  H   0.999        C  421 0.983
   430  H   0.998        C  421 0.983
   431  H   0.998        C  422 0.982
   432  H   0.998        C  422 0.984
   433  H   0.999        C  422 0.984
   434  N   3.491        C  417 1.321    C  435 0.990    H  442 0.898    O  418 0.200
   435  C   3.971        N  434 0.990    C  436 0.987    C  438 0.954    H  443 0.925
   436  C   3.907        O  437 1.897    C  435 0.987    H  492 0.952
   437  O   2.065        C  436 1.897
   438  C   3.983        C  439 0.970    H  445 0.956    C  435 0.954    H  444 0.950
   439  C   3.946        O  440 1.608    N  441 1.337    C  438 0.970
   440  O   1.952        C  439 1.608    N  441 0.200
   441  N   3.423        C  439 1.337    H  447 0.930    H  446 0.892    O  440 0.200
   442  H   0.951        N  434 0.898
   443  H   0.988        C  435 0.925
   444  H   0.989        C  438 0.950
   445  H   0.990        C  438 0.956
   446  H   0.946        N  441 0.892
   447  H   0.951        N  441 0.930
   448  N   3.001        C  449 1.026    H  493 0.955    H  455 0.927
   449  C   3.989        N  448 1.026    C  450 0.975    H  456 0.953    C  452 0.943
   450  C   3.888        O  451 1.887    C  449 0.975    H  494 0.953
   451  O   2.025        C  450 1.887
   452  C   3.961        C  454 0.997    O  453 0.987    H  457 0.962    C  449 0.943
   453  O   1.933        C  452 0.987    H  458 0.833
   454  C   3.993        C  452 0.997    H  460 0.985    H  461 0.980    H  459 0.979
   455  H   0.967        N  448 0.927
   456  H   0.997        C  449 0.953
   457  H   1.000        C  452 0.962
   458  H   0.893        O  453 0.833
   459  H   0.997        C  454 0.979
   460  H   0.998        C  454 0.985
   461  H   0.996        C  454 0.980
   462  N   2.996        C  463 1.013    H  470 0.952    H  495 0.951
   463  C   3.984        N  462 1.013    C  464 0.980    C  466 0.958    H  471 0.956
   464  C   3.886        O  465 1.888    C  463 0.980    H  496 0.953
   465  O   2.021        C  464 1.888
   466  C   3.992        C  467 0.991    H  473 0.975    H  472 0.972    C  463 0.958
   467  C   3.994        C  469 1.011    C  468 1.005    C  466 0.991    H  474 0.963
   468  C   3.993        C  467 1.005    H  476 0.984    H  475 0.984    H  477 0.981
   469  C   3.995        C  467 1.011    H  478 0.985    H  479 0.983    H  480 0.982
   470  H   0.971        N  462 0.952
   471  H   0.997        C  463 0.956
   472  H   0.997        C  466 0.972
   473  H   0.998        C  466 0.975
   474  H   0.998        C  467 0.963
   475  H   0.997        C  468 0.984
   476  H   0.998        C  468 0.984
   477  H   0.998        C  468 0.981
   478  H   0.997        C  469 0.985
   479  H   0.998        C  469 0.983
   480  H   0.999        C  469 0.982
   481  H   0.968        N    1 0.956
   482  H   0.993        C    3 0.954
   483  H   0.965        N   20 0.954
   484  H   0.994        C   36 0.954
   485  H   0.971        N   48 0.961
   486  H   0.995        C   60 0.955
   487  H   0.969        N   77 0.958
   488  H   0.996        C   79 0.955
   489  H   0.965        N   96 0.955
   490  H   0.991        C  333 0.953
   491  H   0.972        N  345 0.958
   492  H   0.991        C  436 0.952
   493  H   0.967        N  448 0.955
   494  H   0.994        C  450 0.953
   495  H   0.966        N  462 0.951
   496  H   0.994        C  464 0.953
 
molecular dipole:
                 x           y           z       tot (Debye)
 q only:       22.090      18.865      21.589
   full:       20.640      19.504      22.920      92.759
molecular quadrupole (traceless):
                xx          xy          yy          xz          yz          zz
 q only:     5265.411   11697.395   -6763.957   16735.399   10442.713    1498.547
  q+dip:     4077.902   11715.936   -6440.149   16765.876   10916.471    2362.247
   full:     4079.323   11717.160   -6440.030   16769.715   10918.663    2360.708


           -------------------------------------------------
          | TOTAL ENERGY             -757.020565235865 Eh   |
          | GRADIENT NORM               0.626066090014 Eh/α |
          | HOMO-LUMO GAP               1.082932859871 eV   |
           -------------------------------------------------

------------------------------------------------------------------------
 * finished run on 2019/05/31 at 05:35:03.767     
------------------------------------------------------------------------
 total:
 * wall-time:     0 d,  0 h,  0 min, 12.221 sec
 *  cpu-time:     0 d,  0 h,  0 min, 24.037 sec
 * ratio c/w:     1.967 speedup
 SCF:
 * wall-time:     0 d,  0 h,  0 min, 11.474 sec
 *  cpu-time:     0 d,  0 h,  0 min, 22.948 sec
 * ratio c/w:     2.000 speedup

