      -----------------------------------------------------------      
     |                   =====================                   |     
     |                           x T B                           |     
     |                   =====================                   |     
     |                         S. Grimme                         |     
     |          Mulliken Center for Theoretical Chemistry        |     
     |                    University of Bonn                     |     
     |                 Version 6.0.1 (SAW181210)                 |     
      -----------------------------------------------------------      

   This program is distributed in the hope that it will be useful,
   but WITHOUT ANY WARRANTY; without even the implied warranty of
   MERCHANTABILITY or FITNESS FOR A PARTICULAR PURPOSE.
   
   FOR NON-COMMERCIAL, ACADEMIA USE ONLY.
   
   Cite this work as:
   S. Grimme, C. Bannwarth, P. Shushkov, J. Comput. Theory Chem., 2017,
   13, 1989-2009.
   C. Bannwarth, S. Ehlert and S. Grimme., ChemRxiv, 2018, preprint.
   http://doi.org/10.26434/chemrxiv.7246238.v1
   
   for sTDA-xTB:
   S. Grimme and C. Bannwarth, J. Chem. Phys., 2016, 145, 054103.
   
   in the mass-spec context:
   V. Asgeirsson, C. Bauer and S. Grimme, Chem. Sci., 2017, 8, 4879.
   
   if GBSA is used:
   P. Shushkov, F. März and S. Grimme, unpublished.
   
   for ANC optimizer:
   S. Grimme, unpublished.
   Rational Function algorithm used in ANCopt:
   F. Eckert, P. Pulay, H.-J. Werner, J. Comput. Chem., 1997, 18, 1473.
   
   with help from (in alphabetical order)
   C. Bannwarth, F. Bohle, G. Brandenburg, E. Caldeweyher, M. Checinski,
   S. Dohm, S. Ehlert, S. Ehrlich, F. März, H. Neugebauer, J. Pisarek,
   P. Pracht, P. Shushkov, and S. Spicher.
   
 * started run on 2019/02/13 at 00:18:16.590     
========================================================================
 # omp threads = 16
========================================================================
number of atoms            : 244
number of electrons        : 684
charge                     : 1
spin                       : .0
first test random number   : .2993

########################################################################
# WARNING! Please study the warnings concerning your input carefully
#  - Process number higher than OMP_NUM_THREADS, I hope you know what you are doing.
########################################################################

           ------------------------------------------------- 
          |                 G F N 2 - x T B                 |
          | Geometry, Frequencies, Noncovalent interactions |
          |            JCTC 2018 parametrisation            |
           ------------------------------------------------- 
 
      method parameters     
 k(s)        :  1.8500
 k(p)        :  2.2300
 k(d)        :  2.2300
 k(f)        :  2.0000
 kEN (H0ij)  : -2.0000
 D4 a1       :  0.5200
 D4 a2       :  5.0000
 D4 s6       :  1.0000
 D4 s8       :  2.7000
 D4 s9       :  5.0000
 alphaj      :  2.0000

 Solvent             : h2o
 Using internal parameter file: .param_gbsa2_h2o
 Gsolv ref. state (COSMO-RS): gsolv [1 M gas/solution]
 temperature (mdtemp)       :    298.150000000000     
 dielectric constant        :    80.2000000000000     
 rho                        :    1.00000000000000     
 mass                       :    18.0000000000000     
 surface tension            :    15.5689454083859     
 probe radius               :   0.975313790000000     
 vdW radii scaling          :    1.00000000000000     
 Gshift (Eh)                :   1.857443126794793E-003
 c1                         :    1.55243817000000     
 soset                      :   0.130326360000000     
 HB correction              :  T

            Z     q(EN)     CN     RAES       Cart. coordinates
     1  N   5.0   -0.16    3.23    1.96   310.86929   142.78189   166.17010
     2  C   4.0    0.03    4.25    4.10   313.38774   141.72498   165.99963
     3  C   4.0    0.16    3.42    3.08   314.02601   140.41264   168.50366
     4  O   6.0   -0.25    1.28    1.80   312.49124   140.32561   170.23485
     5  C   4.0    0.04    4.12    3.85   315.30551   143.75673   165.18708
     6  O   6.0   -0.23    2.04    1.83   315.73394   145.65292   166.99012
     7  H   1.0    0.11    1.01    1.43   310.65747   144.55986   166.92290
     8  H   1.0    0.05    1.05    1.44   313.31876   140.24370   164.54549
     9  H   1.0    0.06    1.01    1.43   317.07774   142.84638   164.60887
    10  H   1.0    0.06    1.02    1.43   314.50332   144.73946   163.55907
    11  H   1.0    0.13    1.02    1.43   316.55722   144.98419   168.47637
    12  N   5.0   -0.15    3.42    2.03   316.31001   139.30642   168.74530
    13  C   4.0    0.04    4.37    4.33   316.71481   137.70235   170.93319
    14  C   4.0    0.10    3.22    3.04   316.64434   139.20880   173.40752
    15  O   6.0   -0.25    1.12    1.80   315.60691   138.33033   175.27182
    16  C   4.0   -0.04    4.25    4.10   319.10597   136.12159   170.64533
    17  C   4.0   -0.03    4.25    4.09   318.58079   133.98961   168.76353
    18  C   4.0    0.16    3.22    3.04   320.95044   132.53648   168.08570
    19  O   6.0   -0.30    1.28    1.80   322.25479   133.13367   166.27051
    20  N   5.0   -0.18    3.20    1.96   321.50123   130.57251   169.55509
    21  H   1.0    0.08    1.06    1.44   317.61188   139.30755   167.35508
    22  H   1.0    0.07    1.07    1.44   315.08423   136.42087   171.09308
    23  H   1.0    0.05    1.02    1.43   320.67219   137.30241   170.00030
    24  H   1.0    0.06    1.03    1.43   319.63057   135.34477   172.48315
    25  H   1.0    0.05    1.03    1.43   317.18265   132.70898   169.56412
    26  H   1.0    0.06    1.03    1.43   317.82258   134.77151   167.01388
    27  H   1.0    0.11    1.06    1.44   320.56926   130.18993   171.17837
    28  H   1.0    0.10    1.03    1.43   322.92531   129.40313   169.05009
    29  N   5.0   -0.18    3.26    1.97   314.41470   127.44303   174.19676
    30  C   4.0    0.03    4.22    4.04   315.89754   125.92918   172.46721
    31  C   4.0    0.08    3.23    3.04   318.67331   126.24911   173.22469
    32  O   6.0   -0.30    1.19    1.80   319.44317   128.28787   174.03260
    33  C   4.0   -0.03    4.29    4.18   315.58841   126.85193   169.73218
    34  C   4.0   -0.03    4.23    4.06   312.85198   126.74887   168.82885
    35  C   4.0    0.16    3.22    3.04   312.45442   128.41079   166.52099
    36  O   6.0   -0.30    1.26    1.80   313.98915   129.99214   165.82142
    37  N   5.0   -0.17    3.18    1.95   310.27135   128.00718   165.29997
    38  H   1.0    0.11    1.04    1.43   315.26003   129.06409   174.75490
    39  H   1.0    0.05    1.05    1.44   315.25301   123.97728   172.67107
    40  H   1.0    0.06    1.04    1.43   316.24064   128.80591   169.62433
    41  H   1.0    0.06    1.02    1.43   316.80041   125.74180   168.48973
    42  H   1.0    0.05    1.03    1.43   312.29355   124.81357   168.40794
    43  H   1.0    0.05    1.04    1.43   311.61187   127.46623   170.31798
    44  H   1.0    0.09    1.03    1.43   308.96225   126.82111   166.00077
    45  H   1.0    0.11    1.03    1.43   309.81349   129.12303   163.82520
    46  N   5.0   -0.18    3.23    1.96   325.98124   127.42264   172.99828
    47  C   4.0    0.03    4.32    4.23   327.98759   128.72346   171.67837
    48  C   4.0    0.16    3.44    3.09   329.91407   126.76861   170.72832
    49  O   6.0   -0.27    1.24    1.80   330.23600   124.75004   171.80284
    50  C   4.0   -0.03    4.34    4.26   329.40886   130.51883   173.47401
    51  C   4.0   -0.02    3.53    3.13   328.27564   133.12156   173.59634
    52  C   4.0   -0.04    3.46    3.10   326.20656   133.66554   175.12344
    53  C   4.0   -0.04    3.48    3.10   329.32109   135.06558   172.17944
    54  C   4.0   -0.03    3.43    3.09   325.20212   136.07601   175.22697
    55  C   4.0   -0.04    3.44    3.09   328.35863   137.48944   172.28432
    56  C   4.0    0.07    3.45    3.09   326.27065   138.00981   173.79274
    57  O   6.0   -0.24    2.11    1.84   325.25548   140.36555   173.91187
    58  H   1.0    0.10    1.03    1.43   326.08744   127.42693   174.91249
    59  H   1.0    0.05    1.05    1.44   327.21739   129.77143   170.06546
    60  H   1.0    0.05    1.03    1.43   329.41692   129.66240   175.34991
    61  H   1.0    0.06    1.04    1.43   331.35859   130.67374   172.81103
    62  H   1.0    0.06    1.03    1.43   325.36524   132.17740   176.23955
    63  H   1.0    0.06    1.04    1.43   330.91772   134.69303   170.96714
    64  H   1.0    0.07    1.03    1.43   323.57853   136.50378   176.39054
    65  H   1.0    0.06    1.03    1.43   329.22161   138.97768   171.17884
    66  H   1.0    0.13    1.04    1.43   326.07455   141.44047   172.67708
    67  N   5.0   -0.13    3.49    2.07   331.22184   127.49513   168.69220
    68  C   4.0    0.04    4.32    4.24   333.52358   126.19167   167.96236
    69  C   4.0    0.09    3.23    3.04   335.60751   127.11403   169.76398
    70  O   6.0   -0.30    1.17    1.80   335.71229   129.33470   170.42647
    71  C   4.0   -0.04    4.26    4.12   334.11868   126.77208   165.19778
    72  C   4.0   -0.05    4.18    3.96   336.39536   125.30316   164.20082
    73  C   4.0   -0.05    4.17    3.94   336.80803   125.86919   161.39460
    74  C   4.0   -0.03    4.12    3.83   339.03504   124.35865   160.35078
    75  N   5.0   -0.11    4.00    2.87   339.37883   124.89034   157.59637
    76  H   1.0    0.11    1.10    1.44   330.98310   129.25639   167.97407
    77  H   1.0    0.06    1.05    1.44   333.19975   124.16963   168.25262
    78  H   1.0    0.05    1.03    1.43   332.43704   126.31534   164.09480
    79  H   1.0    0.06    1.03    1.43   334.42841   128.80555   165.03054
    80  H   1.0    0.05    1.02    1.43   338.07700   125.81709   165.27829
    81  H   1.0    0.05    1.03    1.43   336.05623   123.28659   164.45654
    82  H   1.0    0.05    1.03    1.43   335.07667   125.39389   160.38059
    83  H   1.0    0.04    1.03    1.43   337.14183   127.89212   161.18040
    84  H   1.0    0.05    1.02    1.43   340.75010   124.86059   161.38316
    85  H   1.0    0.05    1.02    1.43   338.67750   122.34612   160.60379
    86  H   1.0    0.07    1.02    1.43   340.89586   123.87772   156.89961
    87  H   1.0    0.07    1.02    1.43   337.73858   124.42425   156.64554
    88  H   1.0    0.06    1.02    1.43   339.72439   126.79511   157.34385
    89  N   5.0   -0.18    3.21    1.96   345.45170   134.75745   176.56501
    90  C   4.0    0.04    4.29    4.18   343.98495   136.25802   174.80937
    91  C   4.0    0.15    3.43    3.09   341.69246   134.70731   173.95903
    92  O   6.0   -0.28    1.24    1.80   341.88820   132.44157   173.49816
    93  C   4.0    0.04    4.15    3.90   345.48737   136.98875   172.42839
    94  O   6.0   -0.23    2.04    1.83   347.38938   138.74846   173.05466
    95  H   1.0    0.11    1.03    1.43   345.51070   132.86541   176.22386
    96  H   1.0    0.07    1.05    1.44   343.38464   137.98472   175.77845
    97  H   1.0    0.06    1.01    1.43   346.31641   135.28081   171.59752
    98  H   1.0    0.05    1.01    1.43   344.15388   137.82116   171.07520
    99  H   1.0    0.13    1.03    1.43   348.14170   139.31944   171.49401
   100  N   5.0   -0.13    3.51    2.08   339.57021   136.01652   173.65803
   101  C   4.0    0.04    4.44    4.44   337.20038   134.84501   172.95512
   102  C   4.0    0.15    3.40    3.08   336.15714   136.19064   170.61788
   103  O   6.0   -0.31    1.29    1.80   336.13207   138.50601   170.49136
   104  C   4.0   -0.03    4.33    4.25   335.31137   135.08532   175.16038
   105  C   4.0   -0.01    3.58    3.16   336.41546   133.95955   177.51837
   106  C   4.0   -0.03    3.47    3.10   337.73511   135.45337   179.22453
   107  C   4.0   -0.03    3.46    3.10   336.20611   131.38485   177.99449
   108  C   4.0   -0.03    3.43    3.09   338.78723   134.40885   181.37563
   109  C   4.0   -0.02    3.43    3.09   337.26653   130.31652   180.12657
   110  C   4.0    0.08    3.45    3.09   338.56146   131.83568   181.84038
   111  O   6.0   -0.22    2.11    1.84   339.57709   130.73702   183.93553
   112  H   1.0    0.11    1.10    1.44   339.49834   137.86606   174.16803
   113  H   1.0    0.08    1.07    1.44   337.58333   132.85842   172.53926
   114  H   1.0    0.05    1.03    1.43   334.91058   137.08694   175.44330
   115  H   1.0    0.04    1.03    1.43   333.55988   134.13184   174.65139
   116  H   1.0    0.06    1.03    1.43   337.95332   137.45349   178.88080
   117  H   1.0    0.06    1.03    1.43   335.17982   130.21764   176.67252
   118  H   1.0    0.06    1.03    1.43   339.77667   135.60962   182.69845
   119  H   1.0    0.07    1.03    1.43   337.09019   128.32500   180.52545
   120  H   1.0    0.13    1.04    1.43   340.22162   132.02820   185.05097
   121  N   5.0   -0.13    3.47    2.06   335.28977   134.67837   168.79815
   122  C   4.0    0.04    4.48    4.51   334.31493   135.61012   166.41793
   123  C   4.0    0.14    3.44    3.09   331.58797   134.72410   166.07182
   124  O   6.0   -0.31    1.27    1.80   331.01768   132.49003   166.32548
   125  C   4.0    0.06    4.24    4.08   335.91917   134.62756   164.19962
   126  O   6.0   -0.25    2.13    1.84   338.46139   135.24318   164.72112
   127  C   4.0   -0.06    4.08    3.76   335.01228   135.76519   161.70879
   128  H   1.0    0.11    1.09    1.44   335.34254   132.77784   169.05414
   129  H   1.0    0.07    1.08    1.44   334.39791   137.67088   166.47015
   130  H   1.0    0.05    1.04    1.43   335.71206   132.55448   164.14564
   131  H   1.0    0.12    1.03    1.43   339.46576   134.79843   163.26384
   132  H   1.0    0.05    1.00    1.43   336.15537   135.08141   160.14526
   133  H   1.0    0.07    1.00    1.43   333.04531   135.27966   161.36289
   134  H   1.0    0.06    1.00    1.43   335.16539   137.81514   161.77951
   135  N   5.0   -0.13    3.48    2.07   329.93384   136.53873   165.53324
   136  C   4.0    0.05    4.44    4.45   327.29085   136.02073   165.09590
   137  C   4.0    0.17    3.46    3.10   326.71450   135.77301   162.27059
   138  O   6.0   -0.29    1.28    1.80   328.31417   136.09493   160.62043
   139  C   4.0   -0.03    4.28    4.17   325.65199   138.06787   166.29764
   140  C   4.0    0.25    3.13    3.03   326.30616   140.73922   165.25558
   141  O   6.0   -0.31    1.28    1.80   326.48227   140.95346   162.90360
   142  O   6.0   -0.30    1.18    1.80   326.56052   142.45036   166.83350
   143  H   1.0    0.11    1.09    1.44   330.55173   138.32821   165.24150
   144  H   1.0    0.07    1.06    1.44   326.86892   134.18804   165.96855
   145  H   1.0    0.06    1.03    1.43   323.66982   137.68888   165.88797
   146  H   1.0    0.05    1.03    1.43   325.91830   138.05829   168.34004
   147  N   5.0   -0.14    3.54    2.10   324.29915   135.16939   161.83718
   148  C   4.0    0.05    4.41    4.39   323.17999   134.71272   159.38696
   149  C   4.0    0.16    3.45    3.09   323.71669   136.82255   157.48936
   150  O   6.0   -0.27    1.22    1.80   323.60165   136.44881   155.21143
   151  C   4.0   -0.02    4.35    4.29   320.29748   134.64464   159.66469
   152  C   4.0    0.17    3.22    3.04   319.36581   132.41616   161.25591
   153  O   6.0   -0.26    1.21    1.80   320.57907   130.47912   161.53737
   154  N   5.0   -0.17    3.19    1.95   317.06333   132.78895   162.23862
   155  H   1.0    0.12    1.13    1.45   323.28403   134.51955   163.33143
   156  H   1.0    0.08    1.05    1.44   323.84545   132.91495   158.59225
   157  H   1.0    0.06    1.03    1.43   319.66793   136.43321   160.47900
   158  H   1.0    0.06    1.03    1.43   319.47514   134.45678   157.78044
   159  H   1.0    0.13    1.05    1.44   316.22559   131.47145   163.35035
   160  H   1.0    0.09    1.03    1.43   316.11512   134.39817   161.89719
   161  N   5.0   -0.13    3.61    2.17   324.04069   139.10153   158.52166
   162  C   4.0    0.05    4.44    4.45   324.31805   141.37229   157.06022
   163  C   4.0    0.16    3.40    3.08   327.08764   142.06492   156.53771
   164  O   6.0   -0.27    1.22    1.80   327.62420   143.95016   155.31178
   165  C   4.0   -0.02    4.32    4.24   323.02206   143.54543   158.48445
   166  C   4.0    0.16    3.25    3.04   320.24110   142.90436   158.81796
   167  O   6.0   -0.29    1.20    1.80   319.47211   141.54809   160.52406
   168  N   5.0   -0.18    3.18    1.95   318.70894   143.89912   157.06853
   169  H   1.0    0.11    1.12    1.45   324.41045   139.30942   160.39866
   170  H   1.0    0.07    1.06    1.44   323.42318   141.05086   155.21565
   171  H   1.0    0.07    1.03    1.43   323.91092   143.68485   160.34164
   172  H   1.0    0.06    1.03    1.43   323.29858   145.29687   157.44350
   173  H   1.0    0.11    1.03    1.43   316.85348   143.46778   157.09649
   174  H   1.0    0.10    1.03    1.43   319.38544   144.94133   155.63227
   175  N   5.0   -0.13    3.44    2.04   328.78708   140.44410   157.45631
   176  C   4.0    0.03    4.25    4.10   331.45840   140.83382   157.19338
   177  C   4.0    0.16    3.36    3.07   332.65188   142.41509   159.28347
   178  O   6.0   -0.29    1.25    1.80   334.94798   142.72593   159.34935
   179  H   1.0    0.12    1.12    1.45   328.24211   138.99168   158.58525
   180  H   1.0    0.06    1.03    1.43   332.41491   139.00892   157.11619
   181  H   1.0    0.07    1.03    1.43   331.80485   141.85485   155.42537
   182  N   5.0   -0.12    3.49    2.07   331.07630   143.56275   160.89887
   183  C   4.0    0.04    4.46    4.48   332.19681   145.13577   162.84353
   184  C   4.0    0.16    3.44    3.09   333.69677   143.43928   164.64579
   185  O   6.0   -0.30    1.26    1.80   332.91924   141.36295   165.31426
   186  C   4.0   -0.04    4.26    4.12   330.18263   146.66159   164.23780
   187  C   4.0   -0.05    4.19    3.99   331.34547   148.56871   166.06700
   188  C   4.0   -0.04    4.17    3.94   329.29061   150.06695   167.43677
   189  C   4.0   -0.03    4.12    3.85   330.45794   151.88674   169.34333
   190  N   5.0   -0.12    4.01    2.89   328.44457   153.33618   170.67399
   191  H   1.0    0.11    1.09    1.44   329.32736   142.83587   161.23629
   192  H   1.0    0.06    1.06    1.44   333.52268   146.40291   161.87530
   193  H   1.0    0.05    1.03    1.43   329.04805   147.63790   162.81786
   194  H   1.0    0.08    1.04    1.43   328.94619   145.35431   165.25118
   195  H   1.0    0.05    1.03    1.43   332.50552   147.56324   167.44394
   196  H   1.0    0.05    1.03    1.43   332.57213   149.85272   165.01850
   197  H   1.0    0.05    1.03    1.43   328.19024   151.10011   166.03360
   198  H   1.0    0.05    1.03    1.43   328.04166   148.72368   168.37884
   199  H   1.0    0.04    1.02    1.43   331.55737   150.82995   170.73042
   200  H   1.0    0.05    1.02    1.43   331.71119   153.20546   168.37409
   201  H   1.0    0.07    1.02    1.43   329.23397   154.54428   171.98031
   202  H   1.0    0.07    1.02    1.43   327.41173   154.37825   169.39123
   203  H   1.0    0.06    1.02    1.43   327.23696   152.11025   171.59232
   204  N   5.0   -0.14    3.49    2.07   335.86709   144.45628   165.44831
   205  C   4.0    0.04    4.46    4.48   337.70429   143.19426   167.02804
   206  C   4.0    0.15    3.45    3.09   338.08965   144.75938   169.42472
   207  O   6.0   -0.30    1.28    1.80   338.82923   146.95735   169.29050
   208  C   4.0    0.06    4.25    4.11   340.27372   143.08769   165.61961
   209  O   6.0   -0.23    2.14    1.85   340.96864   145.51733   164.79691
   210  C   4.0   -0.05    4.08    3.76   340.13271   141.31207   163.35994
   211  H   1.0    0.09    1.08    1.44   336.53133   146.03966   164.60718
   212  H   1.0    0.07    1.06    1.44   337.02503   141.30040   167.47710
   213  H   1.0    0.05    1.03    1.43   341.69230   142.36434   166.97339
   214  H   1.0    0.15    1.07    1.44   340.71913   146.67601   166.21190
   215  H   1.0    0.06    1.00    1.43   341.93685   141.31502   162.38417
   216  H   1.0    0.06    1.01    1.43   339.69369   139.41810   164.01802
   217  H   1.0    0.07    1.00    1.43   338.67962   141.93919   162.04646
   218  N   5.0   -0.14    3.48    2.06   337.59311   143.58061   171.59057
   219  C   4.0    0.04    4.40    4.38   338.03196   144.77224   174.01065
   220  C   4.0    0.08    3.21    3.04   339.98382   143.27413   175.51789
   221  O   6.0   -0.31    1.18    1.80   339.88691   140.96306   175.76069
   222  C   4.0   -0.02    4.32    4.23   335.55802   145.09924   175.53823
   223  C   4.0   -0.04    4.20    3.99   334.20023   142.56592   175.89422
   224  C   4.0   -0.07    4.11    3.82   333.88186   147.04270   174.21740
   225  C   4.0   -0.07    4.01    3.64   332.04163   142.68631   177.79985
   226  H   1.0    0.11    1.10    1.44   337.06526   141.73479   171.57612
   227  H   1.0    0.06    1.07    1.44   338.83195   146.63941   173.60671
   228  H   1.0    0.05    1.05    1.44   336.11768   145.81675   177.39893
   229  H   1.0    0.05    1.03    1.43   333.48157   141.90736   174.07412
   230  H   1.0    0.06    1.04    1.43   335.58472   141.19177   176.56015
   231  H   1.0    0.04    1.00    1.43   332.25186   147.46496   175.38793
   232  H   1.0    0.05    1.00    1.43   334.94912   148.76743   173.88804
   233  H   1.0    0.05    1.00    1.43   333.25131   146.28910   172.41020
   234  H   1.0    0.05    1.00    1.43   331.23559   140.81213   178.04576
   235  H   1.0    0.05    1.00    1.43   332.73845   143.35238   179.61422
   236  H   1.0    0.05    1.00    1.43   330.54890   143.93767   177.15794
   237  H   1.0    0.10    1.07    1.44   310.19131   142.88734   164.61389
   238  H   1.0    0.07    1.04    1.44   317.44955   140.91601   173.49758
   239  H   1.0    0.10    1.09    1.44   312.94821   127.88027   173.45460
   240  H   1.0    0.06    1.04    1.43   319.87027   124.79571   173.06348
   241  H   1.0    0.10    1.08    1.44   324.48837   128.13869   172.60948
   242  H   1.0    0.06    1.04    1.43   336.90160   125.89924   170.41260
   243  H   1.0    0.11    1.08    1.44   347.06815   135.28610   176.55112
   244  H   1.0    0.06    1.05    1.44   341.41857   144.17063   176.35981

  Z AO/shell   Hii/eV     exponent
  1     Wed Apr 25 08:07:45 CEST 2018   EN: 2.200 GM2: 0.406  GM3: 0.0800  RAES: 1.40
     1s    -10.707211    1.230000
  6     Wed Apr 25 08:07:45 CEST 2018   EN: 2.550 GM2: 0.538  GM3: 0.1500  RAES: 3.00
     2s    -13.970922    2.096432
     2p    -10.063292    1.800000
  7     Wed Apr 25 08:07:45 CEST 2018   EN: 3.040 GM2: 0.461  GM3:-0.0640  RAES: 1.90
     2s    -16.686243    2.339881
     2p    -12.523956    2.014332
  8     Wed Apr 25 08:07:45 CEST 2018   EN: 3.440 GM2: 0.452  GM3:-0.0517  RAES: 1.80
     2s    -20.229985    2.439742
     2p    -15.503117    2.137023
 no old-style atom pair restraining (fixing) potential

molecular fragmentation (1/2 indicates fragments):
111111111111111111111111111122222222222222222222222222222222222222222222
222222222222222222222222222222222222222222222222222222222222222222222222
222222222222222222222222222222222222222222222222222222222222222222222222
2222222222222222222211222222
# atoms in fragment 1/2:    30   214
 fragment masses (1/2) :      217.22     1520.68
CMA distance (Bohr)    :  14.282
constraining FC (au)   :  0.0500
           ------------------------------------------------- 
          |        Self-Consistent Charge Iterations        |
           ------------------------------------------------- 

 Ncao       : 610
 Nao        : 610
 Nshell     : 366
 Nel        : 684
 T(el)      :   500.0
 intcut     :    35.0
 scfconv/Eh :  0.100E-06
   qconv/e  :  0.100E-04
 intneglect :  0.100E-08
 broydamp   :      0.400
 iter      E             dE          RMSdq      gap      omega  full diag
   1   -395.3091822 -0.395309E+03  0.487E+00    3.27       0.0  T
   2   -396.2754023 -0.966220E+00  0.228E+00    1.92       1.0  T
   3   -396.3328265 -0.574242E-01  0.126E+00    1.91       1.0  T
   4   -396.3951563 -0.623298E-01  0.279E-01    1.38       1.0  T
   5   -396.3987882 -0.363187E-02  0.133E-01    1.60       1.0  T
   6   -396.3996949 -0.906715E-03  0.555E-02    1.60       1.0  T
   7   -396.3998865 -0.191574E-03  0.237E-02    1.60       1.0  T
   8   -396.3999079 -0.214009E-04  0.117E-02    1.60       1.0  T
   9   -396.3999158 -0.798404E-05  0.483E-03    1.60       1.3  T
  10   -396.3999171 -0.130633E-05  0.207E-03    1.61       3.1  T
  11   -396.3999174 -0.204661E-06  0.927E-04    1.61       6.9  T
  12   -396.3999174 -0.365139E-07  0.413E-04    1.61      15.5  T
  13   -396.3999174 -0.114966E-07  0.206E-04    1.61      31.1  T
  14   -396.3999174 -0.250259E-08  0.886E-05    1.61      72.2  T
  15   -396.3999174 -0.469129E-09  0.378E-05    1.61     169.3  T
speedup 15.97
cpu  time for SCC   16.63 s
wall time for SCC    1.04 s

   *** convergence criteria satisfied after 15 iterations ***

          eigenvalues
 #    :         330        331        332        333        334        335        336        337
 occ. :        2.000      2.000      2.000      2.000      2.000      2.000      2.000      2.000
 eps  :       -10.975    -10.967    -10.905    -10.885    -10.851    -10.838    -10.648    -10.306
 #    :         338        339        340        341        342        343        344        345
 occ. :        2.000      2.000      2.000      2.000      2.000      0.000      0.000      0.000
 eps  :       -10.288    -10.187    -10.032    -10.022     -9.967     -8.358     -8.256     -8.168
 #    :         346        347        348        349        350        351        352        353
 occ. :        0.000      0.000      0.000      0.000      0.000      0.000      0.000      0.000
 eps  :        -7.967     -6.573     -6.444     -6.394     -6.378     -6.371     -6.354     -6.310


   #   Z            q   n(s)   n(p)   n(d)      C6AA      α(0)
   1   7 N     -0.379  1.314  4.065  0.000    29.791     8.106
   2   6 C      0.018  1.063  2.920  0.000    20.300     6.418
   3   6 C      0.269  1.048  2.683  0.000    22.456     7.760
   4   8 O     -0.467  1.755  4.712  0.000    23.074     6.440
   5   6 C      0.068  1.040  2.892  0.000    19.665     6.354
   6   8 O     -0.469  1.712  4.756  0.000    22.234     6.365
   7   1 H      0.165  0.835  0.000  0.000     1.306     1.790
   8   1 H      0.058  0.942  0.000  0.000     2.228     2.334
   9   1 H      0.029  0.971  0.000  0.000     2.604     2.524
  10   1 H      0.063  0.937  0.000  0.000     2.170     2.304
  11   1 H      0.322  0.678  0.000  0.000     0.658     1.274
  12   7 N     -0.185  1.243  3.942  0.000    25.013     7.428
  13   6 C      0.027  1.059  2.913  0.000    20.111     6.384
  14   6 C      0.209  1.081  2.710  0.000    23.572     7.951
  15   8 O     -0.355  1.754  4.600  0.000    20.800     6.115
  16   6 C     -0.061  1.051  3.011  0.000    21.677     6.628
  17   6 C     -0.100  1.058  3.041  0.000    22.390     6.735
  18   6 C      0.294  1.034  2.672  0.000    22.008     7.681
  19   8 O     -0.501  1.742  4.758  0.000    23.798     6.541
  20   7 N     -0.271  1.258  4.013  0.000    27.014     7.719
  21   1 H      0.199  0.801  0.000  0.000     1.109     1.649
  22   1 H      0.095  0.905  0.000  0.000     1.831     2.116
  23   1 H      0.061  0.939  0.000  0.000     2.191     2.315
  24   1 H      0.072  0.928  0.000  0.000     2.063     2.246
  25   1 H      0.074  0.926  0.000  0.000     2.038     2.233
  26   1 H      0.076  0.924  0.000  0.000     2.024     2.225
  27   1 H      0.226  0.774  0.000  0.000     0.983     1.553
  28   1 H      0.213  0.787  0.000  0.000     1.044     1.601
  29   7 N     -0.388  1.324  4.064  0.000    30.048     8.141
  30   6 C      0.031  1.059  2.910  0.000    20.069     6.381
  31   6 C      0.196  1.093  2.710  0.000    23.817     7.993
  32   8 O     -0.375  1.752  4.623  0.000    21.188     6.171
  33   6 C     -0.062  1.050  3.012  0.000    21.683     6.629
  34   6 C     -0.101  1.057  3.044  0.000    22.422     6.741
  35   6 C      0.288  1.038  2.674  0.000    22.124     7.702
  36   8 O     -0.498  1.744  4.754  0.000    23.742     6.533
  37   7 N     -0.291  1.269  4.022  0.000    27.497     7.788
  38   1 H      0.166  0.834  0.000  0.000     1.295     1.783
  39   1 H      0.074  0.926  0.000  0.000     2.042     2.234
  40   1 H      0.055  0.945  0.000  0.000     2.261     2.351
  41   1 H      0.052  0.948  0.000  0.000     2.294     2.368
  42   1 H      0.080  0.920  0.000  0.000     1.983     2.202
  43   1 H      0.077  0.923  0.000  0.000     2.011     2.218
  44   1 H      0.232  0.768  0.000  0.000     0.955     1.531
  45   1 H      0.234  0.766  0.000  0.000     0.949     1.526
  46   7 N     -0.377  1.313  4.064  0.000    29.738     8.099
  47   6 C      0.036  1.059  2.905  0.000    19.984     6.367
  48   6 C      0.269  1.047  2.683  0.000    22.454     7.760
  49   8 O     -0.485  1.747  4.737  0.000    23.450     6.492
  50   6 C     -0.065  1.055  3.009  0.000    21.729     6.635
  51   6 C     -0.003  1.079  2.925  0.000    28.107     8.696
  52   6 C     -0.042  1.083  2.959  0.000    29.051     8.839
  53   6 C     -0.041  1.079  2.961  0.000    29.018     8.834
  54   6 C     -0.063  1.076  2.986  0.000    29.558     8.915
  55   6 C     -0.071  1.076  2.995  0.000    29.771     8.947
  56   6 C      0.142  1.044  2.813  0.000    24.893     8.177
  57   8 O     -0.418  1.710  4.709  0.000    21.208     6.217
  58   1 H      0.165  0.835  0.000  0.000     1.301     1.787
  59   1 H      0.026  0.974  0.000  0.000     2.648     2.545
  60   1 H      0.052  0.948  0.000  0.000     2.292     2.367
  61   1 H      0.031  0.969  0.000  0.000     2.573     2.508
  62   1 H      0.050  0.950  0.000  0.000     2.321     2.383
  63   1 H      0.017  0.983  0.000  0.000     2.773     2.604
  64   1 H      0.055  0.945  0.000  0.000     2.253     2.347
  65   1 H      0.032  0.968  0.000  0.000     2.554     2.499
  66   1 H      0.340  0.660  0.000  0.000     0.612     1.229
  67   7 N     -0.189  1.254  3.935  0.000    25.089     7.439
  68   6 C      0.025  1.061  2.914  0.000    20.156     6.393
  69   6 C      0.204  1.092  2.705  0.000    23.670     7.968
  70   8 O     -0.375  1.753  4.622  0.000    21.181     6.170
  71   6 C     -0.074  1.056  3.018  0.000    21.910     6.663
  72   6 C     -0.079  1.052  3.027  0.000    22.003     6.678
  73   6 C     -0.094  1.054  3.039  0.000    22.285     6.721
  74   6 C     -0.053  1.061  2.992  0.000    21.620     6.637
  75   7 N     -0.149  1.233  3.916  0.000    24.209     7.308
  76   1 H      0.220  0.780  0.000  0.000     1.011     1.575
  77   1 H      0.094  0.906  0.000  0.000     1.837     2.120
  78   1 H      0.078  0.922  0.000  0.000     1.998     2.210
  79   1 H      0.056  0.944  0.000  0.000     2.247     2.344
  80   1 H      0.056  0.944  0.000  0.000     2.251     2.346
  81   1 H      0.071  0.929  0.000  0.000     2.075     2.253
  82   1 H      0.081  0.919  0.000  0.000     1.967     2.193
  83   1 H      0.071  0.929  0.000  0.000     2.070     2.250
  84   1 H      0.121  0.879  0.000  0.000     1.607     1.982
  85   1 H      0.124  0.876  0.000  0.000     1.582     1.967
  86   1 H      0.307  0.693  0.000  0.000     0.692     1.303
  87   1 H      0.300  0.700  0.000  0.000     0.713     1.323
  88   1 H      0.297  0.703  0.000  0.000     0.723     1.332
  89   7 N     -0.388  1.319  4.069  0.000    30.037     8.140
  90   6 C      0.024  1.061  2.915  0.000    20.191     6.400
  91   6 C      0.269  1.046  2.685  0.000    22.458     7.761
  92   8 O     -0.500  1.748  4.752  0.000    23.782     6.538
  93   6 C      0.081  1.038  2.880  0.000    19.436     6.316
  94   8 O     -0.487  1.727  4.760  0.000    22.621     6.421
  95   1 H      0.160  0.840  0.000  0.000     1.332     1.808
  96   1 H      0.061  0.939  0.000  0.000     2.189     2.314
  97   1 H      0.028  0.972  0.000  0.000     2.614     2.528
  98   1 H      0.011  0.989  0.000  0.000     2.867     2.648
  99   1 H      0.348  0.652  0.000  0.000     0.594     1.210
 100   7 N     -0.181  1.249  3.932  0.000    24.917     7.414
 101   6 C      0.023  1.062  2.915  0.000    20.195     6.399
 102   6 C      0.273  1.044  2.682  0.000    22.378     7.747
 103   8 O     -0.484  1.729  4.755  0.000    23.425     6.489
 104   6 C     -0.070  1.053  3.017  0.000    21.838     6.652
 105   6 C      0.002  1.076  2.923  0.000    27.989     8.678
 106   6 C     -0.041  1.084  2.958  0.000    29.028     8.835
 107   6 C     -0.038  1.081  2.957  0.000    28.946     8.823
 108   6 C     -0.074  1.079  2.995  0.000    29.857     8.960
 109   6 C     -0.059  1.074  2.985  0.000    29.473     8.903
 110   6 C      0.144  1.046  2.810  0.000    24.858     8.171
 111   8 O     -0.440  1.722  4.718  0.000    21.635     6.279
 112   1 H      0.226  0.774  0.000  0.000     0.981     1.552
 113   1 H      0.081  0.919  0.000  0.000     1.973     2.197
 114   1 H      0.061  0.939  0.000  0.000     2.187     2.313
 115   1 H      0.051  0.949  0.000  0.000     2.313     2.379
 116   1 H      0.048  0.952  0.000  0.000     2.350     2.397
 117   1 H      0.032  0.968  0.000  0.000     2.553     2.499
 118   1 H      0.048  0.952  0.000  0.000     2.343     2.393
 119   1 H      0.046  0.954  0.000  0.000     2.364     2.404
 120   1 H      0.351  0.649  0.000  0.000     0.586     1.202
 121   7 N     -0.168  1.245  3.923  0.000    24.639     7.372
 122   6 C      0.017  1.061  2.922  0.000    20.295     6.415
 123   6 C      0.271  1.043  2.686  0.000    22.424     7.755
 124   8 O     -0.486  1.728  4.758  0.000    23.483     6.497
 125   6 C      0.120  1.046  2.834  0.000    18.714     6.176
 126   8 O     -0.488  1.733  4.755  0.000    22.634     6.422
 127   6 C     -0.134  1.042  3.092  0.000    23.140     6.860
 128   1 H      0.222  0.778  0.000  0.000     1.002     1.568
 129   1 H      0.087  0.913  0.000  0.000     1.905     2.158
 130   1 H      0.033  0.967  0.000  0.000     2.550     2.497
 131   1 H      0.352  0.648  0.000  0.000     0.583     1.199
 132   1 H      0.076  0.924  0.000  0.000     2.020     2.223
 133   1 H      0.046  0.954  0.000  0.000     2.367     2.406
 134   1 H      0.045  0.955  0.000  0.000     2.390     2.417
 135   7 N     -0.165  1.244  3.920  0.000    24.563     7.361
 136   6 C      0.039  1.054  2.907  0.000    19.920     6.354
 137   6 C      0.282  1.043  2.675  0.000    22.227     7.720
 138   8 O     -0.505  1.740  4.765  0.000    23.891     6.553
 139   6 C     -0.104  1.068  3.036  0.000    22.484     6.751
 140   6 C      0.371  1.021  2.609  0.000    20.718     7.449
 141   8 O     -0.622  1.764  4.859  0.000    26.677     6.925
 142   8 O     -0.590  1.755  4.836  0.000    25.880     6.821
 143   1 H      0.212  0.788  0.000  0.000     1.047     1.603
 144   1 H      0.070  0.930  0.000  0.000     2.080     2.256
 145   1 H      0.043  0.957  0.000  0.000     2.411     2.428
 146   1 H      0.042  0.958  0.000  0.000     2.427     2.436
 147   7 N     -0.200  1.256  3.944  0.000    25.340     7.476
 148   6 C      0.034  1.055  2.911  0.000    20.007     6.370
 149   6 C      0.278  1.039  2.683  0.000    22.297     7.733
 150   8 O     -0.498  1.746  4.752  0.000    23.733     6.532
 151   6 C     -0.108  1.066  3.042  0.000    22.537     6.756
 152   6 C      0.293  1.032  2.675  0.000    22.034     7.686
 153   8 O     -0.488  1.749  4.739  0.000    23.521     6.502
 154   7 N     -0.285  1.264  4.021  0.000    27.352     7.767
 155   1 H      0.238  0.762  0.000  0.000     0.932     1.513
 156   1 H      0.074  0.926  0.000  0.000     2.047     2.238
 157   1 H      0.074  0.926  0.000  0.000     2.046     2.237
 158   1 H      0.088  0.912  0.000  0.000     1.902     2.157
 159   1 H      0.245  0.755  0.000  0.000     0.903     1.489
 160   1 H      0.217  0.783  0.000  0.000     1.022     1.583
 161   7 N     -0.184  1.246  3.939  0.000    24.994     7.425
 162   6 C      0.029  1.058  2.912  0.000    20.083     6.381
 163   6 C      0.271  1.041  2.688  0.000    22.414     7.753
 164   8 O     -0.488  1.742  4.746  0.000    23.518     6.502
 165   6 C     -0.104  1.062  3.042  0.000    22.477     6.748
 166   6 C      0.289  1.037  2.674  0.000    22.095     7.697
 167   8 O     -0.499  1.745  4.753  0.000    23.753     6.534
 168   7 N     -0.285  1.266  4.018  0.000    27.349     7.767
 169   1 H      0.222  0.778  0.000  0.000     1.001     1.567
 170   1 H      0.079  0.921  0.000  0.000     1.987     2.204
 171   1 H      0.079  0.921  0.000  0.000     1.985     2.203
 172   1 H      0.084  0.916  0.000  0.000     1.935     2.175
 173   1 H      0.239  0.761  0.000  0.000     0.927     1.509
 174   1 H      0.235  0.765  0.000  0.000     0.945     1.523
 175   7 N     -0.178  1.243  3.936  0.000    24.860     7.405
 176   6 C     -0.029  1.049  2.981  0.000    21.165     6.562
 177   6 C      0.277  1.041  2.682  0.000    22.314     7.736
 178   8 O     -0.499  1.742  4.756  0.000    23.753     6.534
 179   1 H      0.218  0.782  0.000  0.000     1.019     1.581
 180   1 H      0.090  0.910  0.000  0.000     1.881     2.145
 181   1 H      0.102  0.898  0.000  0.000     1.770     2.081
 182   7 N     -0.184  1.259  3.925  0.000    24.980     7.423
 183   6 C      0.029  1.061  2.910  0.000    20.088     6.380
 184   6 C      0.284  1.042  2.674  0.000    22.192     7.714
 185   8 O     -0.501  1.744  4.757  0.000    23.804     6.541
 186   6 C     -0.078  1.054  3.024  0.000    21.981     6.674
 187   6 C     -0.072  1.051  3.021  0.000    21.876     6.659
 188   6 C     -0.092  1.053  3.038  0.000    22.244     6.714
 189   6 C     -0.051  1.059  2.991  0.000    21.575     6.630
 190   7 N     -0.149  1.231  3.918  0.000    24.207     7.307
 191   1 H      0.210  0.790  0.000  0.000     1.057     1.610
 192   1 H      0.060  0.940  0.000  0.000     2.194     2.317
 193   1 H      0.058  0.942  0.000  0.000     2.225     2.333
 194   1 H      0.071  0.929  0.000  0.000     2.071     2.250
 195   1 H      0.042  0.958  0.000  0.000     2.422     2.434
 196   1 H      0.059  0.941  0.000  0.000     2.212     2.326
 197   1 H      0.080  0.920  0.000  0.000     1.979     2.200
 198   1 H      0.075  0.925  0.000  0.000     2.029     2.227
 199   1 H      0.115  0.885  0.000  0.000     1.651     2.009
 200   1 H      0.125  0.875  0.000  0.000     1.576     1.963
 201   1 H      0.309  0.691  0.000  0.000     0.687     1.298
 202   1 H      0.300  0.700  0.000  0.000     0.712     1.322
 203   1 H      0.298  0.702  0.000  0.000     0.718     1.328
 204   7 N     -0.167  1.243  3.924  0.000    24.612     7.368
 205   6 C      0.001  1.067  2.932  0.000    20.566     6.458
 206   6 C      0.263  1.044  2.693  0.000    22.571     7.780
 207   8 O     -0.481  1.738  4.743  0.000    23.365     6.481
 208   6 C      0.125  1.045  2.830  0.000    18.635     6.163
 209   8 O     -0.484  1.724  4.760  0.000    22.541     6.409
 210   6 C     -0.133  1.042  3.091  0.000    23.107     6.855
 211   1 H      0.219  0.781  0.000  0.000     1.016     1.579
 212   1 H      0.078  0.922  0.000  0.000     1.997     2.210
 213   1 H      0.008  0.992  0.000  0.000     2.921     2.673
 214   1 H      0.339  0.661  0.000  0.000     0.614     1.231
 215   1 H      0.067  0.933  0.000  0.000     2.122     2.278
 216   1 H      0.061  0.939  0.000  0.000     2.187     2.313
 217   1 H      0.059  0.941  0.000  0.000     2.210     2.325
 218   7 N     -0.163  1.243  3.920  0.000    24.519     7.354
 219   6 C      0.017  1.063  2.921  0.000    20.300     6.416
 220   6 C      0.194  1.092  2.714  0.000    23.855     7.999
 221   8 O     -0.364  1.751  4.613  0.000    20.979     6.141
 222   6 C     -0.020  1.068  2.952  0.000    20.897     6.502
 223   6 C     -0.059  1.046  3.013  0.000    21.643     6.623
 224   6 C     -0.127  1.042  3.085  0.000    23.001     6.838
 225   6 C     -0.112  1.037  3.075  0.000    22.711     6.796
 226   1 H      0.227  0.773  0.000  0.000     0.978     1.550
 227   1 H      0.100  0.900  0.000  0.000     1.788     2.091
 228   1 H      0.059  0.941  0.000  0.000     2.213     2.327
 229   1 H      0.037  0.963  0.000  0.000     2.492     2.469
 230   1 H      0.035  0.965  0.000  0.000     2.522     2.483
 231   1 H      0.076  0.924  0.000  0.000     2.020     2.222
 232   1 H      0.063  0.937  0.000  0.000     2.161     2.299
 233   1 H      0.046  0.954  0.000  0.000     2.370     2.407
 234   1 H      0.034  0.966  0.000  0.000     2.532     2.488
 235   1 H      0.045  0.955  0.000  0.000     2.380     2.413
 236   1 H      0.053  0.947  0.000  0.000     2.279     2.361
 237   1 H      0.185  0.815  0.000  0.000     1.183     1.704
 238   1 H      0.079  0.921  0.000  0.000     1.992     2.207
 239   1 H      0.185  0.815  0.000  0.000     1.184     1.704
 240   1 H      0.078  0.922  0.000  0.000     1.996     2.209
 241   1 H      0.174  0.826  0.000  0.000     1.249     1.750
 242   1 H      0.085  0.915  0.000  0.000     1.924     2.169
 243   1 H      0.191  0.809  0.000  0.000     1.150     1.680
 244   1 H      0.090  0.910  0.000  0.000     1.880     2.144

 Mol. C6AA /au·bohr⁶  :     557979.919726
 Mol. C8AA /au·bohr⁸  :   12441273.387012
 Mol. α(0) /au        :       1119.095003

 
molecular dipole:
                 x           y           z       tot (Debye)
 q only:      334.285     138.192     163.620
   full:      334.255     138.248     162.829    1008.271
molecular quadrupole (traceless):
                xx          xy          yy          xz          yz          zz
 q only:    88716.090   69179.619  -49826.237   81972.499   34230.049  -38889.853
  q+dip:    88834.561   69199.737  -49674.113   81590.020   34085.806  -39160.449
   full:    88837.938   69197.786  -49680.943   81588.580   34089.605  -39156.995
speedup 15.96
cpu  time for grad   18.12 s
wall time for grad    1.14 s

SCC energy    :    -396.4099525
rep           :       4.6243135
ES            :       1.3407961
AES           :      -0.0593414
AXC           :       0.1080879
disp          :      -0.3064399
XB            :       0.0000000
fix           :       0.0000000
Gborn         :       0.0000000
Gsasa         :       0.0000000
Ghb           :       0.0000000
Gshift        :       0.0000000
Gsolv         :      -0.3550076     -222.77
Etot ala COSMO:    -396.4099525
grad norm     :       0.4435849
total E       :    -391.7601215
atomizationE  :      68.8415334    43198.71
(atE without considering molecular charge,
 total energy contains solvation terms)
H-L gap (eV)  :          1.6088

------------------------------------------------------------------------
 * finished run on 2019/02/13 at 00:18:17.963     
------------------------------------------------------------------------
 total:
 * wall-time:     0 d,  0 h,  0 min,  1.372 sec
 *  cpu-time:     0 d,  0 h,  0 min, 21.373 sec
 * ratio c/w:    15.579 speedup
 SCF:
 * wall-time:     0 d,  0 h,  0 min,  1.224 sec
 *  cpu-time:     0 d,  0 h,  0 min, 19.529 sec
 * ratio c/w:    15.957 speedup

