      -----------------------------------------------------------      
     |                   =====================                   |     
     |                           x T B                           |     
     |                   =====================                   |     
     |                         S. Grimme                         |     
     |          Mulliken Center for Theoretical Chemistry        |     
     |                    University of Bonn                     |     
     |                Version 6.1 RC1 (SAW190329)                |     
      -----------------------------------------------------------      

   This program is distributed in the hope that it will be useful,
   but WITHOUT ANY WARRANTY; without even the implied warranty of
   MERCHANTABILITY or FITNESS FOR A PARTICULAR PURPOSE.
   
   FOR NON-COMMERCIAL, ACADEMIA USE ONLY.
   
   Cite this work as:
   S. Grimme, C. Bannwarth, P. Shushkov, J. Comput. Theory Chem., 2017,
   13, 1989-2009. DOI: 10.1021/acs.jctc.7b00118
   C. Bannwarth, S. Ehlert and S. Grimme., J. Comput. Theory Chem., 2019,
   just accepted. DOI: 10.1021/acs.jctc.8b01176
   
   for sTDA-xTB:
   S. Grimme and C. Bannwarth, J. Chem. Phys., 2016, 145, 054103.
   DOI: 10.1063/1.4959605
   
   in the mass-spec context:
   V. Asgeirsson, C. Bauer and S. Grimme, Chem. Sci., 2017, 8, 4879.
   DOI: 10.1039/c7sc00601b
   
   for metadynamics refer to:
   S. Grimme, ChemRxiv, Preprint. DOI: 10.26434/chemrxiv.7660532.v1
   
   with help from (in alphabetical order)
   C. Bannwarth, F. Bohle, G. Brandenburg, E. Caldeweyher, M. Checinski,
   S. Dohm, S. Ehlert, S. Ehrlich, F. März, H. Neugebauer, J. Pisarek,
   P. Pracht, P. Shushkov, and S. Spicher.
   
 * started run on 2019/05/31 at 05:35:23.665     

           -------------------------------------------------
          |                Calculation Setup                |
           -------------------------------------------------

          program call               : /home/lum/install/xtb/xtb-190329/bin/xtb xtb_tmp.xyz --chrg 0 --grad --gfn 2 --etemp 500 --acc 0.1 --gbsa h2o --parallel 2
          hostname                   : cpu02
          coordinate file            : xtb_tmp.xyz
          omp threads                :                     2
          number of atoms            :                   176
          number of electrons        :                   476
          charge                     :                     0
          spin                       :                   0.0
          first test random number   :      0.23056434774677


molecular fragmentation (1/2 indicates fragments):
111111111111222222222222222222222222222222222222222222222222222222222222
222222222222222222222222222222222222222222222222222222222222222222222222
22222222222222222222222211222222
# atoms in fragment 1/2:    14   162
 fragment masses (1/2) :      116.10     1081.30
CMA distance (Bohr)    :  17.549
constraining FC (au)   :  0.0500

########################################################################
# WARNING! Please study the warnings concerning your input carefully
#  - XTBPATH is not set, using XTBHOME instead
#  - Process number higher than OMP_NUM_THREADS, I hope you know what you are doing.
########################################################################

           ------------------------------------------------- 
          |                 G F N 2 - x T B                 |
          | Geometry, Frequencies, Noncovalent interactions |
          |            JCTC 2018 parametrisation            |
           ------------------------------------------------- 
 
             k(s)              :                1.8500
             k(p)              :                2.2300
             k(d)              :                2.2300
             k(f)              :                2.0000
             kEN (H0ij)        :               -2.0000
             D4 a1             :                0.5200
             D4 a2             :                5.0000
             D4 s6             :                1.0000
             D4 s8             :                2.7000
             D4 s9             :                5.0000
             alphaj            :                2.0000

  Z AO/shell   Hii/eV     exponent
  1     Wed Apr 25 08:07:45 CEST 2018   EN: 2.200 GM2: 0.406  GM3: 0.0800  RAES: 1.40
     1s    -10.707211    1.230000
  6     Wed Apr 25 08:07:45 CEST 2018   EN: 2.550 GM2: 0.538  GM3: 0.1500  RAES: 3.00
     2s    -13.970922    2.096432
     2p    -10.063292    1.800000
  7     Wed Apr 25 08:07:45 CEST 2018   EN: 3.040 GM2: 0.461  GM3:-0.0640  RAES: 1.90
     2s    -16.686243    2.339881
     2p    -12.523956    2.014332
  8     Wed Apr 25 08:07:45 CEST 2018   EN: 3.440 GM2: 0.452  GM3:-0.0517  RAES: 1.80
     2s    -20.229985    2.439742
     2p    -15.503117    2.137023

 Solvent             : h2o
 Using internal parameter file: .param_gbsa2_h2o
 Gsolv ref. state (COSMO-RS): gsolv [1 M gas/solution]
 temperature (mdtemp)       :    298.150000000000     
 dielectric constant        :    80.2000000000000     
 rho                        :    1.00000000000000     
 mass                       :    18.0000000000000     
 surface tension            :    15.5689454083859     
 probe radius               :   0.975313790000000     
 vdW radii scaling          :    1.00000000000000     
 Gshift (Eh)                :   1.857443126794793E-003
 c1                         :    1.55243817000000     
 soset                      :   0.130326360000000     
 HB correction              :  T
 Number of grid points      :          230

            Z     q(EN)     CN     RAES       Cart. coordinates
     1  N   5.0   -0.71    3.00    1.93   257.62037   127.20949   245.76668
     2  C   4.0    0.07    3.98    3.59   260.27419   126.75884   245.30863
     3  C   4.0    0.07    3.01    3.02   260.51519   125.44965   242.76219
     4  O   6.0   -0.49    1.00    1.80   262.10240   126.10419   241.20531
     5  C   4.0   -0.10    3.98    3.59   261.43785   125.12754   247.36362
     6  C   4.0    0.31    2.99    3.02   261.49784   126.53271   249.97955
     7  O   6.0   -0.39    1.00    1.80   262.06027   128.81207   249.94276
     8  O   6.0   -0.38    1.00    1.80   261.02533   125.21073   251.86426
     9  H   1.0    0.28    1.00    1.43   256.89013   126.64063   247.44992
    10  H   1.0    0.13    0.99    1.43   261.30644   128.56122   245.22346
    11  H   1.0    0.12    0.99    1.43   260.40421   123.35914   247.56407
    12  H   1.0    0.11    0.99    1.43   263.39531   124.70824   246.85766
    13  N   5.0   -0.70    3.00    1.93   259.28181   129.67935   237.45152
    14  C   4.0    0.10    3.98    3.59   261.50968   131.23696   237.21481
    15  C   4.0    0.31    3.01    3.02   263.63035   129.81265   235.88125
    16  O   6.0   -0.46    1.00    1.80   264.78549   130.76648   234.10214
    17  C   4.0   -0.01    3.98    3.59   262.37772   132.11005   239.84000
    18  O   6.0   -0.49    1.99    1.82   264.48956   133.70751   239.59842
    19  H   1.0    0.27    1.00    1.43   258.57826   129.40484   239.21444
    20  H   1.0    0.12    0.99    1.43   261.06942   132.91331   236.06524
    21  H   1.0    0.10    0.99    1.43   260.77649   133.05126   240.74435
    22  H   1.0    0.14    0.99    1.43   262.89040   130.44666   240.97093
    23  H   1.0    0.25    0.99    1.43   264.24728   135.22277   240.57981
    24  N   5.0   -0.49    3.01    1.93   264.15451   127.51818   236.73988
    25  C   4.0    0.07    4.00    3.62   266.07631   125.98605   235.53447
    26  C   4.0    0.09    3.00    3.02   265.56350   126.04722   232.70191
    27  O   6.0   -0.41    1.00    1.80   267.20555   126.67416   231.17374
    28  C   4.0   -0.09    3.98    3.59   266.07128   123.25853   236.53579
    29  C   4.0   -0.15    3.98    3.59   267.13334   123.21279   239.22928
    30  C   4.0   -0.22    3.98    3.59   267.61668   121.56246   234.78139
    31  C   4.0   -0.23    3.98    3.58   266.75381   120.69791   240.57979
    32  H   1.0    0.31    1.00    1.43   263.22589   126.80278   238.25592
    33  H   1.0    0.13    0.99    1.43   267.94408   126.84006   235.85525
    34  H   1.0    0.12    0.99    1.43   264.10586   122.61543   236.56236
    35  H   1.0    0.11    0.99    1.43   269.14465   123.64893   239.15694
    36  H   1.0    0.15    0.99    1.43   266.21837   124.68891   240.33983
    37  H   1.0    0.10    0.99    1.43   267.66536   119.64987   235.51989
    38  H   1.0    0.12    0.99    1.43   266.79670   121.50607   232.89857
    39  H   1.0    0.11    0.99    1.43   269.54216   122.26065   234.62119
    40  H   1.0    0.10    0.99    1.43   267.42171   120.86026   242.51551
    41  H   1.0    0.11    0.99    1.43   264.75920   120.20318   240.63175
    42  H   1.0    0.10    0.99    1.43   267.78805   119.18263   239.66142
    43  N   5.0   -0.69    3.00    1.93   266.75433   132.54436   229.57106
    44  C   4.0    0.09    3.98    3.58   269.39511   133.23064   229.37490
    45  C   4.0    0.10    3.00    3.02   270.70122   131.67566   227.31743
    46  O   6.0   -0.40    1.00    1.80   272.20809   132.63925   225.84364
    47  C   4.0    0.05    3.98    3.58   270.81769   132.89230   231.90858
    48  O   6.0   -0.47    1.99    1.82   271.01478   130.34342   232.62432
    49  C   4.0   -0.20    3.98    3.59   269.64552   134.51889   233.98890
    50  H   1.0    0.33    1.00    1.43   266.09440   131.76773   231.19271
    51  H   1.0    0.12    0.99    1.43   269.53344   135.22044   228.80471
    52  H   1.0    0.13    0.99    1.43   272.77434   133.49461   231.57689
    53  H   1.0    0.31    0.99    1.43   269.34107   129.60669   232.73104
    54  H   1.0    0.12    0.99    1.43   270.82720   134.42941   235.66476
    55  H   1.0    0.10    0.99    1.43   269.49816   136.46941   233.37573
    56  H   1.0    0.15    0.99    1.43   267.77735   133.82569   234.48707
    57  N   5.0   -0.71    3.00    1.93   282.90962   129.31579   234.45233
    58  C   4.0    0.08    3.99    3.60   282.04063   127.85959   236.59223
    59  C   4.0    0.29    3.01    3.02   279.60691   128.93406   237.71175
    60  O   6.0   -0.38    1.00    1.80   279.04224   131.16656   237.55215
    61  C   4.0   -0.13    3.98    3.59   284.08492   127.68917   238.66530
    62  C   4.0   -0.11    3.98    3.59   285.03461   130.24860   239.60128
    63  C   4.0    0.30    3.00    3.02   283.09822   131.67636   241.15661
    64  O   6.0   -0.42    1.00    1.80   281.60886   130.61015   242.58423
    65  N   5.0   -0.64    3.00    1.93   283.23236   134.19078   241.00490
    66  H   1.0    0.29    1.00    1.43   282.61082   131.19758   234.51038
    67  H   1.0    0.14    0.99    1.43   281.67277   125.94116   235.91774
    68  H   1.0    0.15    0.99    1.43   283.30677   126.59500   240.22728
    69  H   1.0    0.10    0.99    1.43   285.67824   126.66584   237.85940
    70  H   1.0    0.10    0.99    1.43   286.65402   129.93657   240.84494
    71  H   1.0    0.10    0.99    1.43   285.68481   131.37251   238.00438
    72  H   1.0    0.26    1.00    1.43   284.38735   135.06017   239.77141
    73  H   1.0    0.29    1.00    1.43   281.99975   135.25059   241.99569
    74  N   5.0   -0.49    3.02    1.93   278.22906   127.17306   238.90977
    75  C   4.0    0.08    3.99    3.61   276.18892   127.74550   240.63118
    76  C   4.0    0.29    3.02    3.02   276.98402   126.62107   243.16948
    77  O   6.0   -0.45    1.00    1.80   277.43224   124.36102   243.37744
    78  C   4.0   -0.13    3.99    3.60   273.66910   126.56517   239.79070
    79  C   4.0   -0.04    3.03    3.02   271.66081   127.13780   241.71813
    80  C   4.0   -0.09    3.03    3.02   270.23009   129.33080   241.54988
    81  C   4.0   -0.09    3.03    3.02   271.25594   125.51589   243.74496
    82  C   4.0   -0.09    3.03    3.02   268.42813   129.88547   243.36228
    83  C   4.0   -0.10    3.03    3.02   269.45200   126.06740   245.55534
    84  C   4.0   -0.09    3.03    3.02   268.02838   128.25671   245.37124
    85  H   1.0    0.28    1.00    1.43   278.81272   125.34403   238.85989
    86  H   1.0    0.14    0.99    1.43   276.02137   129.80219   240.73568
    87  H   1.0    0.12    0.99    1.43   273.16148   127.34041   237.94911
    88  H   1.0    0.11    0.99    1.43   273.94351   124.52817   239.62251
    89  H   1.0    0.12    0.99    1.43   270.50323   130.60696   239.98012
    90  H   1.0    0.12    1.00    1.43   272.34691   123.79769   243.89274
    91  H   1.0    0.13    1.00    1.43   267.32600   131.59225   243.19665
    92  H   1.0    0.12    0.99    1.43   269.13653   124.78881   247.11753
    93  H   1.0    0.13    0.99    1.43   266.61019   128.68112   246.78254
    94  N   5.0   -0.49    3.01    1.93   277.31301   128.24355   245.07568
    95  C   4.0    0.09    4.00    3.62   278.19666   127.39059   247.52302
    96  C   4.0    0.30    3.01    3.02   280.40237   125.51876   247.24359
    97  O   6.0   -0.40    1.00    1.80   280.55952   123.59659   248.51139
    98  C   4.0   -0.08    3.99    3.60   276.09647   126.15787   249.08555
    99  C   4.0    0.29    3.00    3.02   277.01435   125.79742   251.78654
   100  O   6.0   -0.38    1.00    1.80   278.39042   127.33320   252.82960
   101  N   5.0   -0.64    3.00    1.93   276.13248   123.73884   252.95810
   102  H   1.0    0.25    1.00    1.43   276.95239   130.09543   244.83120
   103  H   1.0    0.14    0.99    1.43   278.91901   129.02071   248.57317
   104  H   1.0    0.12    0.99    1.43   274.44544   127.39536   249.11751
   105  H   1.0    0.13    0.99    1.43   275.56732   124.35569   248.24615
   106  H   1.0    0.29    1.00    1.43   276.67984   123.39275   254.75380
   107  H   1.0    0.26    1.00    1.43   275.07714   122.44402   252.05615
   108  N   5.0   -0.48    3.00    1.93   282.17703   126.25073   245.58886
   109  C   4.0    0.02    3.99    3.61   284.44800   124.80352   245.16600
   110  C   4.0    0.27    3.00    3.02   284.28956   122.85177   243.04134
   111  O   6.0   -0.48    1.00    1.80   286.17016   122.29787   241.78954
   112  H   1.0    0.30    1.00    1.43   281.89484   127.83631   244.52444
   113  H   1.0    0.11    0.99    1.43   286.01281   126.09809   244.81173
   114  H   1.0    0.14    0.99    1.43   284.83219   123.73029   246.89898
   115  N   5.0   -0.47    3.01    1.93   282.06765   121.72708   242.76758
   116  C   4.0    0.08    4.00    3.62   281.65434   119.63224   241.04549
   117  C   4.0    0.29    3.01    3.02   282.02704   120.57511   238.33318
   118  O   6.0   -0.48    1.00    1.80   280.82191   122.36505   237.48731
   119  C   4.0   -0.09    3.98    3.59   278.97836   118.56969   241.41507
   120  C   4.0   -0.22    3.98    3.59   278.39447   116.60115   239.38607
   121  C   4.0   -0.22    3.98    3.59   278.70752   117.41539   244.04593
   122  H   1.0    0.30    1.00    1.43   280.51859   122.42194   243.65527
   123  H   1.0    0.12    0.99    1.43   283.05937   118.17101   241.47506
   124  H   1.0    0.14    0.99    1.43   277.65449   120.14792   241.23520
   125  H   1.0    0.10    0.99    1.43   276.49779   115.86419   239.65857
   126  H   1.0    0.12    0.99    1.43   278.49499   117.42215   237.50390
   127  H   1.0    0.11    0.99    1.43   279.71490   115.02987   239.49579
   128  H   1.0    0.10    0.99    1.43   276.78448   116.74540   244.31222
   129  H   1.0    0.11    0.99    1.43   279.98287   115.81919   244.27163
   130  H   1.0    0.13    0.99    1.43   279.10845   118.79264   245.51781
   131  N   5.0   -0.48    3.01    1.93   283.81755   119.37935   237.02022
   132  C   4.0    0.07    3.99    3.61   284.65841   120.09846   234.50116
   133  C   4.0    0.27    3.00    3.02   282.82052   118.95327   232.56022
   134  O   6.0   -0.40    1.00    1.80   283.16269   116.91091   231.52295
   135  C   4.0   -0.14    3.98    3.59   287.37475   119.21130   234.09593
   136  C   4.0   -0.15    3.98    3.58   289.21857   120.23765   236.07314
   137  C   4.0   -0.15    3.98    3.59   289.52447   123.10061   235.86625
   138  C   4.0   -0.06    3.98    3.58   291.50540   124.18004   237.65287
   139  N   5.0   -0.73    3.98    2.81   291.10591   123.31327   240.30670
   140  H   1.0    0.23    1.00    1.43   284.60873   117.79286   237.72830
   141  H   1.0    0.11    0.99    1.43   284.53495   122.15479   234.32619
   142  H   1.0    0.12    0.99    1.43   287.39793   117.14982   234.12735
   143  H   1.0    0.11    0.99    1.43   287.95892   119.82633   232.21886
   144  H   1.0    0.14    0.99    1.43   288.51684   119.73560   237.94328
   145  H   1.0    0.10    0.99    1.43   291.03843   119.32989   235.75060
   146  H   1.0    0.09    0.99    1.43   290.09486   123.57914   233.94617
   147  H   1.0    0.11    0.99    1.43   287.71202   124.00712   236.21556
   148  H   1.0    0.10    0.99    1.43   293.38328   123.59799   237.03934
   149  H   1.0    0.10    0.99    1.43   291.39126   126.23605   237.58449
   150  H   1.0    0.24    1.00    1.43   292.09713   124.42967   241.54637
   151  H   1.0    0.30    0.99    1.43   289.18428   123.30294   240.80990
   152  H   1.0    0.24    1.00    1.43   291.72257   121.48120   240.49284
   153  N   5.0   -0.49    3.01    1.93   280.79766   120.41408   232.17477
   154  C   4.0    0.08    3.99    3.60   278.51958   119.64683   230.87002
   155  C   4.0    0.08    3.00    3.02   278.92568   118.67770   228.17487
   156  O   6.0   -0.39    1.00    1.80   277.35490   117.28628   227.21161
   157  C   4.0   -0.09    3.98    3.58   276.57313   121.82185   230.86790
   158  C   4.0   -0.22    3.98    3.59   275.58408   122.30567   233.53623
   159  C   4.0   -0.20    3.98    3.59   277.67418   124.23682   229.73884
   160  H   1.0    0.25    1.00    1.43   280.65309   122.00374   233.23007
   161  H   1.0    0.14    0.99    1.43   277.68360   118.02841   231.87421
   162  H   1.0    0.13    0.99    1.43   274.98489   121.21701   229.69044
   163  H   1.0    0.11    0.99    1.43   274.27012   123.88104   233.48422
   164  H   1.0    0.10    0.99    1.43   274.59930   120.64876   234.24516
   165  H   1.0    0.13    0.99    1.43   277.10948   122.77318   234.83214
   166  H   1.0    0.12    0.99    1.43   276.22944   125.69528   229.72940
   167  H   1.0    0.12    0.99    1.43   279.28345   124.91803   230.82118
   168  H   1.0    0.12    0.99    1.43   278.28672   123.92619   227.80366
   169  H   1.0    0.30    1.00    1.43   257.30638   128.87920   245.68904
   170  H   1.0    0.14    1.00    1.43   259.36295   124.01763   242.32320
   171  H   1.0    0.30    1.00    1.43   258.00817   130.37130   236.56179
   172  H   1.0    0.14    1.00    1.43   263.85884   125.57096   232.03980
   173  H   1.0    0.30    1.00    1.43   265.79028   133.92806   229.35076
   174  H   1.0    0.16    1.00    1.43   270.33332   129.82953   227.15155
   175  H   1.0    0.29    1.00    1.43   284.59080   129.12438   234.28041
   176  H   1.0    0.15    1.00    1.43   280.47064   119.18381   227.21154

           ------------------------------------------------- 
          |        Self-Consistent Charge Iterations        |
           ------------------------------------------------- 

          ...................................................
          :                      SETUP                      :
          :.................................................:
          :  # basis functions                 428          :
          :  # atomic orbitals                 428          :
          :  # shells                          260          :
          :  # electrons                       476          :
          :  max. iterations                   250          :
          :  Hamiltonian                  GFN2-xTB          :
          :  restarted?                      false          :
          :  GBSA solvation                   true          :
          :  PC potential                    false          :
          :  electronic temp.          500.0000000     K    :
          :  accuracy                    0.1000000          :
          :  -> integral cutoff          0.3500000E+02      :
          :  -> integral neglect         0.1000000E-08      :
          :  -> SCF convergence          0.1000000E-06 Eh   :
          :  -> wf. convergence          0.1000000E-04 e    :
          :  Broyden damping             0.4000000          :
          ...................................................

 iter      E             dE          RMSdq      gap      omega  full diag
   1   -273.0821551 -0.273082E+03  0.430E+00    2.18       0.0  T
   2   -273.8118877 -0.729733E+00  0.219E+00    1.87       1.0  T
   3   -273.8382487 -0.263610E-01  0.118E+00    2.05       1.0  T
   4   -273.8492068 -0.109581E-01  0.297E-01    1.57       1.0  T
   5   -273.8572590 -0.805226E-02  0.118E-01    1.69       1.0  T
   6   -273.8576179 -0.358858E-03  0.580E-02    1.67       1.0  T
   7   -273.8576856 -0.676637E-04  0.275E-02    1.64       1.0  T
   8   -273.8577261 -0.405136E-04  0.100E-02    1.63       1.0  T
   9   -273.8577299 -0.386914E-05  0.487E-03    1.62       1.5  T
  10   -273.8577306 -0.645160E-06  0.203E-03    1.61       3.7  T
  11   -273.8577307 -0.130610E-06  0.742E-04    1.61      10.2  T
  12   -273.8577307 -0.259711E-07  0.359E-04    1.61      21.0  T
  13   -273.8577307 -0.526438E-08  0.174E-04    1.61      43.2  T
  14   -273.8577307 -0.992941E-09  0.680E-05    1.61     110.8  T
  15   -273.8577307 -0.228454E-09  0.286E-05    1.61     263.5  T

   *** convergence criteria satisfied after 15 iterations ***

         #    Occupation            Energy/Eh            Energy/eV
      -------------------------------------------------------------
         1        2.0000           -0.7347493             -19.9935
       ...           ...                  ...                  ...
       232        2.0000           -0.3941223             -10.7246
       233        2.0000           -0.3890473             -10.5865
       234        2.0000           -0.3822080             -10.4004
       235        2.0000           -0.3771570             -10.2630
       236        2.0000           -0.3672044              -9.9921
       237        2.0000           -0.3651711              -9.9368
       238        2.0000           -0.3526340              -9.5957 (HOMO)
       239                         -0.2934031              -7.9839 (LUMO)
       240                         -0.2824883              -7.6869
       241                         -0.2820279              -7.6744
       242                         -0.2749459              -7.4817
       243                         -0.2426427              -6.6026
       ...                                ...                  ...
       428                          0.6598310              17.9549
      -------------------------------------------------------------
                  HL-Gap            0.0592309 Eh            1.6118 eV
             Fermi-level           -0.3230196 Eh           -8.7898 eV

 SCC (total)                   0 d,  0 h,  0 min,  0.763 sec
 SCC setup                      ...        0 min,  0.024 sec (  3.124%)
 Dispersion                     ...        0 min,  0.010 sec (  1.340%)
 integral evaluation            ...        0 min,  0.053 sec (  6.931%)
 zeroth order Hamiltonian       ...        0 min,  0.001 sec (  0.134%)
 iterations                     ...        0 min,  0.519 sec ( 68.006%)
 molecular gradient             ...        0 min,  0.152 sec ( 19.959%)
 printout                       ...        0 min,  0.004 sec (  0.498%)

         :::::::::::::::::::::::::::::::::::::::::::::::::::::
         ::                     SUMMARY                     ::
         :::::::::::::::::::::::::::::::::::::::::::::::::::::
         :: total energy             -270.527185307800 Eh   ::
         :: total w/o Gsasa/hb       -270.488168343567 Eh   ::
         :: gradient norm               0.443829231245 Eh/α ::
         :: HOMO-LUMO gap               1.611755416703 eV   ::
         ::.................................................::
         :: SCC energy               -273.865268959516 Eh   ::
         :: -> isotropic ES             0.890205186202 Eh   ::
         :: -> anisotropic ES          -0.038765673719 Eh   ::
         :: -> anisotropic XC           0.088795215818 Eh   ::
         :: -> dispersion              -0.213362362341 Eh   ::
         :: -> Gsolv                   -0.231003740598 Eh   ::
         ::    -> Gborn                -0.191986776366 Eh   ::
         ::    -> Gsasa                -0.009395657020 Eh   ::
         ::    -> Ghb                  -0.031478750340 Eh   ::
         ::    -> Gshift                0.001857443127 Eh   ::
         :: repulsion energy            3.322304354298 Eh   ::
         :: add. restraining            0.000000000000 Eh   ::
         :::::::::::::::::::::::::::::::::::::::::::::::::::::

           -------------------------------------------------
          |                Property Printout                |
           -------------------------------------------------

    * Orbital Energies and Occupations

         #    Occupation            Energy/Eh            Energy/eV
      -------------------------------------------------------------
         1        2.0000           -0.7347493             -19.9935
       ...           ...                  ...                  ...
       226        2.0000           -0.4058702             -11.0443
       227        2.0000           -0.4042156             -10.9993
       228        2.0000           -0.4022627             -10.9461
       229        2.0000           -0.3992189             -10.8633
       230        2.0000           -0.3991376             -10.8611
       231        2.0000           -0.3980102             -10.8304
       232        2.0000           -0.3941223             -10.7246
       233        2.0000           -0.3890473             -10.5865
       234        2.0000           -0.3822080             -10.4004
       235        2.0000           -0.3771570             -10.2630
       236        2.0000           -0.3672044              -9.9921
       237        2.0000           -0.3651711              -9.9368
       238        2.0000           -0.3526340              -9.5957 (HOMO)
       239                         -0.2934031              -7.9839 (LUMO)
       240                         -0.2824883              -7.6869
       241                         -0.2820279              -7.6744
       242                         -0.2749459              -7.4817
       243                         -0.2426427              -6.6026
       244                         -0.2388267              -6.4988
       245                         -0.2336187              -6.3571
       246                         -0.2280177              -6.2047
       247                         -0.2261783              -6.1546
       248                         -0.2246681              -6.1135
       249                         -0.2232037              -6.0737
       ...                                ...                  ...
       428                          0.6598310              17.9549
      -------------------------------------------------------------
                  HL-Gap            0.0592309 Eh            1.6118 eV
             Fermi-level           -0.3230196 Eh           -8.7898 eV

   #   Z        covCN         q      C6AA      α(0)
   1   7 N      2.639    -0.383    29.898     8.121
   2   6 C      3.784     0.057    19.636     6.312
   3   6 C      2.772     0.191    23.924     8.011
   4   8 O      0.856    -0.369    21.071     6.154
   5   6 C      3.802    -0.090    22.209     6.709
   6   6 C      2.682     0.380    20.571     7.422
   7   8 O      0.856    -0.630    26.858     6.948
   8   8 O      0.856    -0.636    27.029     6.970
   9   1 H      0.860     0.152     1.389     1.846
  10   1 H      0.923     0.036     2.500     2.473
  11   1 H      0.925     0.033     2.542     2.493
  12   1 H      0.924     0.028     2.608     2.526
  13   7 N      2.636    -0.393    30.183     8.159
  14   6 C      3.785     0.029    20.097     6.385
  15   6 C      2.761     0.275    22.356     7.743
  16   8 O      0.859    -0.503    23.847     6.547
  17   6 C      3.679     0.080    19.455     6.318
  18   8 O      1.656    -0.483    22.533     6.408
  19   1 H      0.860     0.150     1.401     1.854
  20   1 H      0.923     0.044     2.391     2.418
  21   1 H      0.924     0.024     2.669     2.555
  22   1 H      0.923     0.038     2.473     2.459
  23   1 H      0.805     0.344     0.602     1.218
  24   7 N      2.694    -0.177    24.829     7.401
  25   6 C      3.802     0.027    20.116     6.386
  26   6 C      2.770     0.209    23.564     7.950
  27   8 O      0.856    -0.362    20.938     6.135
  28   6 C      3.853    -0.024    20.966     6.512
  29   6 C      3.805    -0.065    21.739     6.638
  30   6 C      3.756    -0.121    22.867     6.818
  31   6 C      3.751    -0.109    22.636     6.785
  32   1 H      0.860     0.245     0.904     1.489
  33   1 H      0.923     0.075     2.035     2.231
  34   1 H      0.924     0.056     2.250     2.346
  35   1 H      0.925     0.049     2.328     2.386
  36   1 H      0.924     0.036     2.500     2.473
  37   1 H      0.925     0.068     2.109     2.271
  38   1 H      0.925     0.041     2.442     2.444
  39   1 H      0.925     0.056     2.247     2.344
  40   1 H      0.925     0.034     2.526     2.486
  41   1 H      0.925     0.035     2.522     2.483
  42   1 H      0.925     0.055     2.264     2.353
  43   7 N      2.634    -0.407    30.582     8.213
  44   6 C      3.781     0.029    20.098     6.386
  45   6 C      2.766     0.205    23.640     7.963
  46   8 O      0.856    -0.387    21.421     6.205
  47   6 C      3.726     0.121    18.704     6.175
  48   8 O      1.655    -0.470    22.249     6.368
  49   6 C      3.752    -0.126    22.975     6.835
  50   1 H      0.860     0.191     1.151     1.681
  51   1 H      0.924     0.044     2.402     2.424
  52   1 H      0.924     0.033     2.543     2.494
  53   1 H      0.804     0.318     0.670     1.286
  54   1 H      0.925     0.050     2.316     2.380
  55   1 H      0.925     0.045     2.380     2.412
  56   1 H      0.925     0.063     2.168     2.302
  57   7 N      2.634    -0.391    30.133     8.153
  58   6 C      3.789     0.019    20.265     6.411
  59   6 C      2.753     0.280    22.260     7.726
  60   8 O      0.858    -0.498    23.750     6.534
  61   6 C      3.805    -0.071    21.861     6.656
  62   6 C      3.806    -0.105    22.492     6.751
  63   6 C      2.743     0.293    22.038     7.686
  64   8 O      0.859    -0.517    24.159     6.590
  65   7 N      2.639    -0.280    27.244     7.752
  66   1 H      0.860     0.153     1.383     1.842
  67   1 H      0.924     0.065     2.144     2.290
  68   1 H      0.925     0.040     2.453     2.449
  69   1 H      0.925     0.073     2.052     2.240
  70   1 H      0.924     0.093     1.846     2.125
  71   1 H      0.925     0.073     2.053     2.241
  72   1 H      0.860     0.233     0.951     1.528
  73   1 H      0.860     0.223     0.996     1.563
  74   7 N      2.698    -0.187    25.062     7.435
  75   6 C      3.796     0.032    20.046     6.375
  76   6 C      2.766     0.274    22.373     7.746
  77   8 O      0.859    -0.467    23.066     6.439
  78   6 C      3.811    -0.074    21.912     6.663
  79   6 C      2.972     0.009    27.807     8.650
  80   6 C      2.924    -0.038    28.950     8.824
  81   6 C      2.925    -0.041    29.021     8.834
  82   6 C      2.920    -0.029    28.731     8.790
  83   6 C      2.919    -0.032    28.799     8.800
  84   6 C      2.919    -0.030    28.756     8.794
  85   1 H      0.860     0.221     1.006     1.571
  86   1 H      0.924     0.059     2.211     2.325
  87   1 H      0.924     0.064     2.148     2.292
  88   1 H      0.924     0.071     2.079     2.255
  89   1 H      0.926     0.041     2.429     2.437
  90   1 H      0.926     0.047     2.355     2.400
  91   1 H      0.926     0.033     2.539     2.492
  92   1 H      0.925     0.020     2.727     2.582
  93   1 H      0.925     0.011     2.869     2.649
  94   7 N      2.688    -0.174    24.760     7.390
  95   6 C      3.801     0.027    20.118     6.386
  96   6 C      2.756     0.284    22.197     7.715
  97   8 O      0.858    -0.485    23.450     6.493
  98   6 C      3.810    -0.093    22.275     6.718
  99   6 C      2.746     0.300    21.913     7.665
 100   8 O      0.859    -0.507    23.945     6.561
 101   7 N      2.638    -0.286    27.390     7.773
 102   1 H      0.860     0.210     1.058     1.611
 103   1 H      0.924     0.082     1.959     2.189
 104   1 H      0.924     0.067     2.116     2.275
 105   1 H      0.925     0.073     2.050     2.239
 106   1 H      0.860     0.235     0.942     1.520
 107   1 H      0.860     0.230     0.966     1.539
 108   7 N      2.685    -0.198    25.293     7.469
 109   6 C      3.746    -0.039    21.333     6.588
 110   6 C      2.751     0.261    22.600     7.784
 111   8 O      0.859    -0.469    23.098     6.444
 112   1 H      0.860     0.226     0.984     1.554
 113   1 H      0.924     0.102     1.765     2.078
 114   1 H      0.924     0.104     1.753     2.071
 115   7 N      2.692    -0.156    24.382     7.334
 116   6 C      3.800     0.013    20.356     6.424
 117   6 C      2.753     0.271    22.415     7.753
 118   8 O      0.859    -0.486    23.471     6.495
 119   6 C      3.853    -0.018    20.856     6.495
 120   6 C      3.756    -0.118    22.816     6.811
 121   6 C      3.756    -0.121    22.867     6.818
 122   1 H      0.860     0.217     1.023     1.584
 123   1 H      0.924     0.073     2.052     2.240
 124   1 H      0.924     0.059     2.217     2.328
 125   1 H      0.925     0.054     2.268     2.355
 126   1 H      0.925     0.035     2.522     2.483
 127   1 H      0.925     0.050     2.314     2.379
 128   1 H      0.925     0.048     2.350     2.397
 129   1 H      0.925     0.052     2.300     2.372
 130   1 H      0.925     0.045     2.383     2.414
 131   7 N      2.692    -0.155    24.361     7.330
 132   6 C      3.795     0.007    20.469     6.443
 133   6 C      2.751     0.269    22.465     7.761
 134   8 O      0.858    -0.487    23.499     6.499
 135   6 C      3.806    -0.077    21.970     6.673
 136   6 C      3.802    -0.093    22.275     6.720
 137   6 C      3.803    -0.093    22.263     6.717
 138   6 C      3.730    -0.048    21.533     6.624
 139   7 N      3.481    -0.158    24.416     7.339
 140   1 H      0.860     0.220     1.011     1.575
 141   1 H      0.924     0.081     1.972     2.196
 142   1 H      0.924     0.066     2.132     2.283
 143   1 H      0.925     0.067     2.115     2.274
 144   1 H      0.925     0.072     2.068     2.249
 145   1 H      0.925     0.077     2.010     2.217
 146   1 H      0.925     0.085     1.933     2.174
 147   1 H      0.925     0.060     2.195     2.317
 148   1 H      0.925     0.117     1.634     1.999
 149   1 H      0.924     0.113     1.675     2.024
 150   1 H      0.859     0.291     0.740     1.348
 151   1 H      0.857     0.296     0.726     1.335
 152   1 H      0.859     0.287     0.752     1.358
 153   7 N      2.690    -0.174    24.764     7.391
 154   6 C      3.790     0.026    20.155     6.394
 155   6 C      2.763     0.211    23.524     7.943
 156   8 O      0.856    -0.377    21.224     6.177
 157   6 C      3.852    -0.015    20.799     6.487
 158   6 C      3.755    -0.123    22.923     6.827
 159   6 C      3.755    -0.126    22.965     6.833
 160   1 H      0.860     0.221     1.003     1.569
 161   1 H      0.923     0.079     1.990     2.206
 162   1 H      0.924     0.054     2.276     2.359
 163   1 H      0.925     0.054     2.271     2.357
 164   1 H      0.925     0.049     2.338     2.391
 165   1 H      0.925     0.060     2.196     2.318
 166   1 H      0.925     0.056     2.246     2.344
 167   1 H      0.925     0.062     2.180     2.309
 168   1 H      0.925     0.043     2.407     2.426
 169   1 H      0.862     0.181     1.210     1.723
 170   1 H      0.930     0.082     1.961     2.190
 171   1 H      0.862     0.196     1.128     1.663
 172   1 H      0.930     0.071     2.072     2.251
 173   1 H      0.862     0.177     1.232     1.738
 174   1 H      0.930     0.078     2.002     2.212
 175   1 H      0.862     0.197     1.120     1.658
 176   1 H      0.930     0.077     2.011     2.217

 Mol. C6AA /au·bohr⁶  :     280198.534548
 Mol. C8AA /au·bohr⁸  :    6188730.892117
 Mol. α(0) /au        :        792.180280


Wiberg/Mayer (AO) data.
largest (>0.10) Wiberg bond orders for each atom
          total WBO             WBO to atom ...
     1  N   2.999        C    2 1.009    H    9 0.958    H  169 0.956
     2  C   3.986        N    1 1.009    C    3 0.985    C    5 0.964    H   10 0.955
     3  C   3.899        O    4 1.831    C    2 0.985    H  170 0.952
     4  O   2.057        C    3 1.831
     5  C   3.983        H   11 0.978    H   12 0.964    C    2 0.964    C    6 0.885
     6  C   3.935        O    7 1.513    O    8 1.507    C    5 0.885
     7  O   1.819        C    6 1.513    O    8 0.219
     8  O   1.810        C    6 1.507    O    7 0.219
     9  H   0.977        N    1 0.958
    10  H   0.999        C    2 0.955
    11  H   0.999        C    5 0.978
    12  H   0.999        C    5 0.964
    13  N   2.992        C   14 1.014    H   19 0.958    H  171 0.952
    14  C   3.985        N   13 1.014    C   17 0.970    H   20 0.964    C   15 0.940
    15  C   3.948        O   16 1.573    N   24 1.346    C   14 0.940
    16  O   1.957        C   15 1.573    N   24 0.198
    17  C   3.959        O   18 1.001    H   21 0.974    C   14 0.970    H   22 0.961
    18  O   1.930        C   17 1.001    H   23 0.870
    19  H   0.977        N   13 0.958
    20  H   0.997        C   14 0.964
    21  H   0.999        C   17 0.974
    22  H   0.999        C   17 0.961
    23  H   0.881        O   18 0.870
    24  N   3.489        C   15 1.346    C   25 0.973    H   32 0.861    O   16 0.198
    25  C   3.963        C   26 0.976    N   24 0.973    C   28 0.954    H   33 0.947
    26  C   3.904        O   27 1.879    C   25 0.976    H  172 0.955
    27  O   2.045        C   26 1.879
    28  C   3.985        C   30 1.007    C   29 0.994    H   34 0.963    C   25 0.954
    29  C   3.994        C   31 1.018    C   28 0.994    H   35 0.971    H   36 0.969
    30  C   3.991        C   28 1.007    H   39 0.983    H   38 0.980    H   37 0.979
    31  C   3.994        C   29 1.018    H   41 0.988    H   40 0.986    H   42 0.983
    32  H   0.940        N   24 0.861
    33  H   0.994        C   25 0.947
    34  H   0.997        C   28 0.963
    35  H   0.998        C   29 0.971
    36  H   0.999        C   29 0.969
    37  H   0.995        C   30 0.979
    38  H   0.998        C   30 0.980
    39  H   0.997        C   30 0.983
    40  H   0.998        C   31 0.986
    41  H   0.999        C   31 0.988
    42  H   0.997        C   31 0.983
    43  N   2.992        C   44 1.021    H  173 0.956    H   50 0.909
    44  C   3.988        N   43 1.021    C   45 0.981    H   51 0.959    C   47 0.928
    45  C   3.890        O   46 1.883    C   44 0.981    H  174 0.954
    46  O   2.021        C   45 1.883
    47  C   3.959        O   48 1.004    C   49 0.994    H   52 0.963    C   44 0.928
    48  O   1.955        C   47 1.004    H   53 0.861
    49  C   3.993        C   47 0.994    H   55 0.985    H   54 0.983    H   56 0.975
    50  H   0.963        N   43 0.909
    51  H   0.998        C   44 0.959
    52  H   0.998        C   47 0.963
    53  H   0.899        O   48 0.861
    54  H   0.996        C   49 0.983
    55  H   0.998        C   49 0.985
    56  H   0.996        C   49 0.975
    57  N   2.994        C   58 1.026    H   66 0.957    H  175 0.946
    58  C   3.985        N   57 1.026    C   61 0.962    C   59 0.947    H   67 0.939
    59  C   3.935        O   60 1.642    N   74 1.276    C   58 0.947
    60  O   1.957        C   59 1.642    N   74 0.187
    61  C   3.993        C   62 1.006    H   68 0.969    C   58 0.962    H   69 0.958
    62  C   3.993        C   61 1.006    C   63 0.975    H   71 0.966    H   70 0.945
    63  C   3.932        O   64 1.593    N   65 1.327    C   62 0.975
    64  O   1.953        C   63 1.593    N   65 0.186
    65  N   3.409        C   63 1.327    H   73 0.928    H   72 0.926    O   64 0.186
    66  H   0.976        N   57 0.957
    67  H   0.996        C   58 0.939
    68  H   0.998        C   61 0.969
    69  H   0.994        C   61 0.958
    70  H   0.991        C   62 0.945
    71  H   0.995        C   62 0.966
    72  H   0.945        N   65 0.926
    73  H   0.950        N   65 0.928
    74  N   3.453        C   59 1.276    C   75 0.986    H   85 0.898    O   60 0.187
    75  C   3.973        N   74 0.986    H   86 0.959    C   78 0.957    C   76 0.936
    76  C   3.946        O   77 1.617    N   94 1.304    C   75 0.936
    77  O   1.976        C   76 1.617    N   94 0.192
    78  C   3.989        C   79 1.009    H   87 0.968    H   88 0.968    C   75 0.957
    79  C   3.988        C   80 1.414    C   81 1.408    C   78 1.009    C   84 0.110
    80  C   3.991        C   82 1.443    C   79 1.414    H   89 0.968    C   83 0.111
    81  C   3.990        C   83 1.447    C   79 1.408    H   90 0.967    C   82 0.111
    82  C   3.992        C   80 1.443    C   84 1.440    H   91 0.969    C   81 0.111
    83  C   3.992        C   81 1.447    C   84 1.436    H   92 0.971    C   80 0.111
    84  C   3.992        C   82 1.440    C   83 1.436    H   93 0.971    C   79 0.110
    85  H   0.951        N   74 0.898
    86  H   0.996        C   75 0.959
    87  H   0.995        C   78 0.968
    88  H   0.995        C   78 0.968
    89  H   0.998        C   80 0.968
    90  H   0.998        C   81 0.967
    91  H   0.999        C   82 0.969
    92  H   0.999        C   83 0.971
    93  H   0.999        C   84 0.971
    94  N   3.479        C   76 1.304    C   95 0.979    H  102 0.926    O   77 0.192
    95  C   3.963        C   98 0.982    N   94 0.979    H  103 0.944    C   96 0.932
    96  C   3.955        O   97 1.639    N  108 1.298    C   95 0.932
    97  O   1.964        C   96 1.639    N  108 0.197
    98  C   3.993        C   95 0.982    H  105 0.969    C   99 0.964    H  104 0.953
    99  C   3.946        O  100 1.637    N  101 1.314    C   98 0.964
   100  O   1.938        C   99 1.637    N  101 0.197
   101  N   3.397        C   99 1.314    H  107 0.928    H  106 0.923    O  100 0.197
   102  H   0.956        N   94 0.926
   103  H   0.993        C   95 0.944
   104  H   0.995        C   98 0.953
   105  H   0.995        C   98 0.969
   106  H   0.944        N  101 0.923
   107  H   0.947        N  101 0.928
   108  N   3.456        C   96 1.298    C  109 0.995    H  112 0.873    O   97 0.197
   109  C   3.956        N  108 0.995    H  113 0.960    C  110 0.951    H  114 0.938
   110  C   3.955        O  111 1.572    N  115 1.347    C  109 0.951
   111  O   1.958        C  110 1.572    N  115 0.193
   112  H   0.949        N  108 0.873
   113  H   0.989        C  109 0.960
   114  H   0.989        C  109 0.938
   115  N   3.509        C  110 1.347    C  116 0.975    H  122 0.891    O  111 0.193
   116  C   3.963        N  115 0.975    C  119 0.969    H  123 0.952    C  117 0.934
   117  C   3.951        O  118 1.602    N  131 1.320    C  116 0.934
   118  O   1.974        C  117 1.602    N  131 0.193
   119  C   3.989        C  121 1.008    C  120 1.008    C  116 0.969    H  124 0.961
   120  C   3.993        C  119 1.008    H  127 0.985    H  125 0.984    H  126 0.983
   121  C   3.993        C  119 1.008    H  129 0.985    H  128 0.984    H  130 0.983
   122  H   0.952        N  115 0.891
   123  H   0.994        C  116 0.952
   124  H   0.997        C  119 0.961
   125  H   0.997        C  120 0.984
   126  H   0.999        C  120 0.983
   127  H   0.997        C  120 0.985
   128  H   0.997        C  121 0.984
   129  H   0.997        C  121 0.985
   130  H   0.998        C  121 0.983
   131  N   3.492        C  117 1.320    C  132 0.969    H  140 0.916    O  118 0.193
   132  C   3.957        C  135 0.990    N  131 0.969    H  141 0.947    C  133 0.920
   133  C   3.944        O  134 1.647    N  153 1.300    C  132 0.920
   134  O   1.970        C  133 1.647    N  153 0.202
   135  C   3.983        C  136 1.005    C  132 0.990    H  142 0.970    H  143 0.970
   136  C   3.989        C  137 1.008    C  135 1.005    H  145 0.972    H  144 0.969
   137  C   3.988        C  138 1.012    C  136 1.008    H  146 0.965    H  147 0.959
   138  C   3.919        C  137 1.012    H  149 0.967    H  148 0.965    N  139 0.955
   139  N   3.653        C  138 0.955    H  150 0.902    H  152 0.902    H  151 0.841
   140  H   0.952        N  131 0.916
   141  H   0.993        C  132 0.947
   142  H   0.995        C  135 0.970
   143  H   0.995        C  135 0.970
   144  H   0.995        C  136 0.969
   145  H   0.993        C  136 0.972
   146  H   0.993        C  137 0.965
   147  H   0.996        C  137 0.959
   148  H   0.986        C  138 0.965
   149  H   0.987        C  138 0.967
   150  H   0.915        N  139 0.902
   151  H   0.912        N  139 0.841
   152  H   0.917        N  139 0.902
   153  N   3.471        C  133 1.300    C  154 0.988    H  160 0.899    O  134 0.202
   154  C   3.970        N  153 0.988    C  155 0.983    C  157 0.943    H  161 0.935
   155  C   3.899        O  156 1.889    C  154 0.983    H  176 0.952
   156  O   2.038        C  155 1.889
   157  C   3.985        C  159 1.009    C  158 1.006    H  162 0.965    C  154 0.943
   158  C   3.992        C  157 1.006    H  164 0.985    H  163 0.981    H  165 0.975
   159  C   3.992        C  157 1.009    H  168 0.985    H  166 0.983    H  167 0.979
   160  H   0.951        N  153 0.899
   161  H   0.994        C  154 0.935
   162  H   0.996        C  157 0.965
   163  H   0.997        C  158 0.981
   164  H   0.998        C  158 0.985
   165  H   0.996        C  158 0.975
   166  H   0.997        C  159 0.983
   167  H   0.996        C  159 0.979
   168  H   0.998        C  159 0.985
   169  H   0.967        N    1 0.956
   170  H   0.993        C    3 0.952
   171  H   0.962        N   13 0.952
   172  H   0.995        C   26 0.955
   173  H   0.969        N   43 0.956
   174  H   0.994        C   45 0.954
   175  H   0.961        N   57 0.946
   176  H   0.994        C  155 0.952
 
molecular dipole:
                 x           y           z       tot (Debye)
 q only:       25.730      -3.703      -5.192
   full:       24.070      -2.436      -3.415      62.103
molecular quadrupole (traceless):
                xx          xy          yy          xz          yz          zz
 q only:    16128.623    3323.309   -6739.395    7258.256   -2338.540   -9389.228
  q+dip:    14642.577    3520.339   -6377.206    7383.689   -1547.262   -8265.371
   full:    14644.675    3521.183   -6379.229    7386.875   -1547.286   -8265.446


           -------------------------------------------------
          | TOTAL ENERGY             -270.527185307800 Eh   |
          | GRADIENT NORM               0.443829231245 Eh/α |
          | HOMO-LUMO GAP               1.611755416703 eV   |
           -------------------------------------------------

------------------------------------------------------------------------
 * finished run on 2019/05/31 at 05:35:24.795     
------------------------------------------------------------------------
 total:
 * wall-time:     0 d,  0 h,  0 min,  1.130 sec
 *  cpu-time:     0 d,  0 h,  0 min,  1.904 sec
 * ratio c/w:     1.685 speedup
 SCF:
 * wall-time:     0 d,  0 h,  0 min,  0.764 sec
 *  cpu-time:     0 d,  0 h,  0 min,  1.527 sec
 * ratio c/w:     1.998 speedup

