      -----------------------------------------------------------      
     |                   =====================                   |     
     |                           x T B                           |     
     |                   =====================                   |     
     |                         S. Grimme                         |     
     |          Mulliken Center for Theoretical Chemistry        |     
     |                    University of Bonn                     |     
     |                Version 6.1 RC1 (SAW190329)                |     
      -----------------------------------------------------------      

   This program is distributed in the hope that it will be useful,
   but WITHOUT ANY WARRANTY; without even the implied warranty of
   MERCHANTABILITY or FITNESS FOR A PARTICULAR PURPOSE.
   
   FOR NON-COMMERCIAL, ACADEMIA USE ONLY.
   
   Cite this work as:
   S. Grimme, C. Bannwarth, P. Shushkov, J. Comput. Theory Chem., 2017,
   13, 1989-2009. DOI: 10.1021/acs.jctc.7b00118
   C. Bannwarth, S. Ehlert and S. Grimme., J. Comput. Theory Chem., 2019,
   just accepted. DOI: 10.1021/acs.jctc.8b01176
   
   for sTDA-xTB:
   S. Grimme and C. Bannwarth, J. Chem. Phys., 2016, 145, 054103.
   DOI: 10.1063/1.4959605
   
   in the mass-spec context:
   V. Asgeirsson, C. Bauer and S. Grimme, Chem. Sci., 2017, 8, 4879.
   DOI: 10.1039/c7sc00601b
   
   for metadynamics refer to:
   S. Grimme, ChemRxiv, Preprint. DOI: 10.26434/chemrxiv.7660532.v1
   
   with help from (in alphabetical order)
   C. Bannwarth, F. Bohle, G. Brandenburg, E. Caldeweyher, M. Checinski,
   S. Dohm, S. Ehlert, S. Ehrlich, F. März, H. Neugebauer, J. Pisarek,
   P. Pracht, P. Shushkov, and S. Spicher.
   
 * started run on 2019/05/31 at 05:35:14.336     

           -------------------------------------------------
          |                Calculation Setup                |
           -------------------------------------------------

          program call               : /home/lum/install/xtb/xtb-190329/bin/xtb xtb_tmp.xyz --chrg 1 --grad --gfn 2 --etemp 500 --acc 0.1 --gbsa h2o --parallel 2
          hostname                   : cpu02
          coordinate file            : xtb_tmp.xyz
          omp threads                :                     2
          number of atoms            :                   264
          number of electrons        :                   722
          charge                     :                     1
          spin                       :                   0.0
          first test random number   :      0.05016756396007


molecular fragmentation (1/2 indicates fragments):
111111111111111111111111111111111111111111111111111111111111111111111111
111111111111111111111111111111111111111111111111111111111111111111111111
111111111111111111111111111111111111111111111111111111111111111111111111
111111222222222222222222222222222222222222112222
# atoms in fragment 1/2:   224    40
 fragment masses (1/2) :     1573.74      245.32
CMA distance (Bohr)    :  14.582
constraining FC (au)   :  0.0500

########################################################################
# WARNING! Please study the warnings concerning your input carefully
#  - XTBPATH is not set, using XTBHOME instead
#  - Process number higher than OMP_NUM_THREADS, I hope you know what you are doing.
########################################################################

           ------------------------------------------------- 
          |                 G F N 2 - x T B                 |
          | Geometry, Frequencies, Noncovalent interactions |
          |            JCTC 2018 parametrisation            |
           ------------------------------------------------- 
 
             k(s)              :                1.8500
             k(p)              :                2.2300
             k(d)              :                2.2300
             k(f)              :                2.0000
             kEN (H0ij)        :               -2.0000
             D4 a1             :                0.5200
             D4 a2             :                5.0000
             D4 s6             :                1.0000
             D4 s8             :                2.7000
             D4 s9             :                5.0000
             alphaj            :                2.0000

  Z AO/shell   Hii/eV     exponent
  1     Wed Apr 25 08:07:45 CEST 2018   EN: 2.200 GM2: 0.406  GM3: 0.0800  RAES: 1.40
     1s    -10.707211    1.230000
  6     Wed Apr 25 08:07:45 CEST 2018   EN: 2.550 GM2: 0.538  GM3: 0.1500  RAES: 3.00
     2s    -13.970922    2.096432
     2p    -10.063292    1.800000
  7     Wed Apr 25 08:07:45 CEST 2018   EN: 3.040 GM2: 0.461  GM3:-0.0640  RAES: 1.90
     2s    -16.686243    2.339881
     2p    -12.523956    2.014332
  8     Wed Apr 25 08:07:45 CEST 2018   EN: 3.440 GM2: 0.452  GM3:-0.0517  RAES: 1.80
     2s    -20.229985    2.439742
     2p    -15.503117    2.137023

 Solvent             : h2o
 Using internal parameter file: .param_gbsa2_h2o
 Gsolv ref. state (COSMO-RS): gsolv [1 M gas/solution]
 temperature (mdtemp)       :    298.150000000000     
 dielectric constant        :    80.2000000000000     
 rho                        :    1.00000000000000     
 mass                       :    18.0000000000000     
 surface tension            :    15.5689454083859     
 probe radius               :   0.975313790000000     
 vdW radii scaling          :    1.00000000000000     
 Gshift (Eh)                :   1.857443126794793E-003
 c1                         :    1.55243817000000     
 soset                      :   0.130326360000000     
 HB correction              :  T
 Number of grid points      :          230

            Z     q(EN)     CN     RAES       Cart. coordinates
     1  N   5.0   -0.72    3.00    1.93   186.06418   111.56594   349.82668
     2  C   4.0    0.07    3.98    3.59   187.30045   109.97106   347.99428
     3  C   4.0    0.28    3.02    3.02   186.08358   110.31685   345.40466
     4  O   6.0   -0.47    1.00    1.80   187.36074   110.21446   343.46743
     5  C   4.0   -0.14    3.99    3.60   187.27402   107.20491   348.81808
     6  C   4.0   -0.10    3.98    3.58   188.90041   106.68549   351.16447
     7  C   4.0   -0.22    3.98    3.59   188.64609   103.90024   351.87740
     8  C   4.0   -0.22    3.98    3.59   191.67399   107.34239   350.71118
     9  H   1.0    0.26    1.00    1.43   185.02544   110.73140   351.19896
    10  H   1.0    0.11    0.99    1.43   189.25641   110.62069   347.76442
    11  H   1.0    0.11    0.99    1.43   185.31660   106.68154   349.20187
    12  H   1.0    0.11    0.99    1.43   187.96067   106.05909   347.24647
    13  H   1.0    0.11    0.99    1.43   188.20007   107.84554   352.72446
    14  H   1.0    0.11    0.99    1.43   189.66465   103.51138   353.61655
    15  H   1.0    0.11    0.99    1.43   186.67211   103.39737   352.14778
    16  H   1.0    0.11    0.99    1.43   189.41318   102.71320   350.38599
    17  H   1.0    0.11    0.99    1.43   192.81964   106.67567   352.27816
    18  H   1.0    0.11    0.99    1.43   192.34774   106.45891   348.98150
    19  H   1.0    0.10    0.99    1.43   191.92344   109.37611   350.57103
    20  N   5.0   -0.49    3.01    1.93   183.60085   110.77377   345.36408
    21  C   4.0    0.10    4.00    3.62   182.44891   111.51558   342.99959
    22  C   4.0    0.29    3.02    3.02   183.48104   114.10757   342.21900
    23  O   6.0   -0.46    1.00    1.80   184.12997   114.52399   340.03037
    24  C   4.0    0.03    3.97    3.58   179.54330   111.30356   343.01307
    25  O   6.0   -0.47    1.99    1.83   178.90452   110.32203   340.61329
    26  C   4.0   -0.21    3.98    3.58   178.18379   113.78180   343.56090
    27  H   1.0    0.24    1.00    1.43   182.60560   110.96377   346.98906
    28  H   1.0    0.16    0.99    1.43   183.09254   110.18887   341.53633
    29  H   1.0    0.12    0.99    1.43   179.05351   109.90681   344.48201
    30  H   1.0    0.26    0.99    1.43   177.10383   110.47192   340.35733
    31  H   1.0    0.11    0.99    1.43   176.15132   113.48427   343.50116
    32  H   1.0    0.10    0.99    1.43   178.68758   114.45463   345.43050
    33  H   1.0    0.13    0.99    1.43   178.68769   115.19789   342.15903
    34  N   5.0   -0.49    3.00    1.93   183.78749   115.80354   344.06610
    35  C   4.0    0.08    4.00    3.62   185.03775   118.16617   343.47958
    36  C   4.0    0.29    3.01    3.02   187.64588   117.68556   342.30776
    37  O   6.0   -0.45    1.00    1.80   188.51663   119.18145   340.76727
    38  C   4.0   -0.14    3.99    3.60   185.33256   119.85807   345.80019
    39  C   4.0   -0.12    3.98    3.59   182.80348   120.99042   346.66805
    40  C   4.0    0.27    3.00    3.02   182.07527   123.09833   344.85892
    41  O   6.0   -0.42    1.00    1.80   181.15633   122.70995   342.78026
    42  N   5.0   -0.64    3.00    1.93   182.58274   125.44014   345.70760
    43  H   1.0    0.24    1.00    1.43   183.14335   115.44471   345.83236
    44  H   1.0    0.15    0.99    1.43   183.93372   119.17882   342.03853
    45  H   1.0    0.12    0.99    1.43   186.20596   118.74886   347.29938
    46  H   1.0    0.13    0.99    1.43   186.62704   121.38178   345.29221
    47  H   1.0    0.12    0.99    1.43   181.33918   119.54043   346.64241
    48  H   1.0    0.11    0.99    1.43   182.98633   121.73294   348.57907
    49  H   1.0    0.28    1.00    1.43   183.43995   125.73578   347.37591
    50  H   1.0    0.29    1.00    1.43   182.32624   126.93925   344.56035
    51  N   5.0   -0.46    3.00    1.93   188.89243   115.64422   343.13058
    52  C   4.0    0.09    4.00    3.62   191.47411   115.21184   342.32683
    53  C   4.0    0.28    3.01    3.02   191.60363   113.96918   339.71422
    54  O   6.0   -0.44    1.00    1.80   193.52910   114.02206   338.45277
    55  C   4.0   -0.10    3.99    3.60   193.00630   113.71538   344.25605
    56  C   4.0    0.27    3.00    3.02   194.07039   115.42604   346.31756
    57  O   6.0   -0.42    1.00    1.80   194.28733   117.70899   346.06564
    58  N   5.0   -0.65    3.00    1.93   194.83156   114.19996   348.39459
    59  H   1.0    0.26    1.00    1.43   188.28708   114.88221   344.78906
    60  H   1.0    0.15    0.99    1.43   192.37850   117.06883   342.09789
    61  H   1.0    0.11    0.99    1.43   191.85015   112.21875   345.06452
    62  H   1.0    0.12    0.99    1.43   194.61767   112.86061   343.28626
    63  H   1.0    0.29    1.00    1.43   195.62859   115.18150   349.81871
    64  H   1.0    0.25    1.00    1.43   194.75327   112.30536   348.52616
    65  N   5.0   -0.46    3.01    1.93   189.48075   112.80435   338.97439
    66  C   4.0    0.08    3.99    3.61   189.09028   111.97964   336.39370
    67  C   4.0    0.28    3.02    3.02   188.75189   114.33207   334.73342
    68  O   6.0   -0.46    1.00    1.80   189.97551   114.61160   332.78126
    69  C   4.0   -0.10    3.98    3.59   186.83794   110.17837   336.16686
    70  C   4.0    0.28    3.00    3.02   187.62236   107.46076   336.74389
    71  O   6.0   -0.38    1.00    1.80   187.80912   105.87734   335.07401
    72  N   5.0   -0.64    3.00    1.93   188.15487   106.96174   339.16346
    73  H   1.0    0.30    1.00    1.43   187.96345   112.77877   340.13761
    74  H   1.0    0.14    0.99    1.43   190.81165   111.03727   335.72465
    75  H   1.0    0.13    0.99    1.43   185.32046   110.79608   337.41637
    76  H   1.0    0.13    0.99    1.43   186.14546   110.20360   334.22568
    77  H   1.0    0.29    1.00    1.43   188.69396   105.19073   339.60896
    78  H   1.0    0.32    1.00    1.43   187.93798   108.23996   340.56982
    79  N   5.0   -0.48    3.01    1.93   187.22451   116.12417   335.62077
    80  C   4.0    0.08    4.00    3.62   187.14235   118.54050   334.32493
    81  C   4.0    0.29    3.02    3.02   189.81139   119.64046   334.19940
    82  O   6.0   -0.47    1.00    1.80   190.61748   120.61578   332.25530
    83  C   4.0   -0.14    3.98    3.59   185.31592   120.38953   335.58471
    84  C   4.0   -0.11    3.98    3.58   182.63798   120.35471   334.46837
    85  C   4.0   -0.22    3.98    3.59   182.60136   121.45891   331.80035
    86  C   4.0   -0.21    3.98    3.59   181.48187   117.71077   334.49250
    87  H   1.0    0.29    1.00    1.43   186.09785   115.83952   337.14399
    88  H   1.0    0.12    0.99    1.43   186.58735   118.22801   332.35175
    89  H   1.0    0.14    0.99    1.43   185.24134   119.96620   337.59945
    90  H   1.0    0.11    0.99    1.43   186.07401   122.29649   335.39188
    91  H   1.0    0.11    0.99    1.43   181.49035   121.57608   335.68190
    92  H   1.0    0.11    0.99    1.43   180.66867   121.64481   331.13166
    93  H   1.0    0.11    0.99    1.43   183.47719   123.31833   331.76587
    94  H   1.0    0.11    0.99    1.43   183.61301   120.25139   330.48117
    95  H   1.0    0.11    0.99    1.43   179.51767   117.80276   333.89859
    96  H   1.0    0.12    0.99    1.43   182.47362   116.45438   333.20459
    97  H   1.0    0.13    0.99    1.43   181.55111   116.90132   336.37887
    98  N   5.0   -0.46    3.00    1.93   191.25620   119.37357   336.25901
    99  C   4.0    0.09    4.00    3.63   193.78602   120.43207   336.20738
   100  C   4.0    0.29    3.01    3.02   195.47867   119.01834   334.34488
   101  O   6.0   -0.47    1.00    1.80   197.38948   120.03336   333.49823
   102  C   4.0   -0.09    3.99    3.60   194.96529   120.54435   338.83466
   103  C   4.0    0.29    3.00    3.02   193.70191   122.62829   340.38603
   104  O   6.0   -0.41    1.00    1.80   192.81704   124.50663   339.37308
   105  N   5.0   -0.63    3.00    1.93   193.71711   122.29150   342.88599
   106  H   1.0    0.31    1.00    1.43   190.41847   119.07631   337.96702
   107  H   1.0    0.14    0.99    1.43   193.67267   122.38452   335.50108
   108  H   1.0    0.13    0.99    1.43   194.86610   118.70901   339.75449
   109  H   1.0    0.13    0.99    1.43   196.95210   121.06865   338.62812
   110  H   1.0    0.30    1.00    1.43   192.98838   123.66916   343.97981
   111  H   1.0    0.31    1.00    1.43   194.36532   120.72018   343.76126
   112  N   5.0   -0.46    3.01    1.93   194.80462   116.68379   333.71562
   113  C   4.0    0.07    3.99    3.61   196.11266   115.27844   331.76553
   114  C   4.0    0.29    3.01    3.02   195.42817   116.31390   329.13933
   115  O   6.0   -0.47    1.00    1.80   197.04784   116.52633   327.49717
   116  C   4.0   -0.14    3.98    3.59   195.58664   112.44379   332.06211
   117  C   4.0   -0.16    3.98    3.58   197.65108   110.77314   330.88083
   118  C   4.0   -0.15    3.98    3.58   199.21952   109.36681   332.86894
   119  C   4.0   -0.05    3.98    3.58   200.84323   111.05121   334.55540
   120  N   5.0   -0.72    3.98    2.82   203.16892   111.91205   333.21367
   121  H   1.0    0.31    1.00    1.43   193.25003   115.87862   334.47436
   122  H   1.0    0.13    0.99    1.43   198.13348   115.67040   331.99867
   123  H   1.0    0.13    0.99    1.43   195.44517   112.06940   334.08567
   124  H   1.0    0.14    0.99    1.43   193.74581   112.03322   331.23629
   125  H   1.0    0.12    0.99    1.43   196.75858   109.35690   329.68365
   126  H   1.0    0.12    0.99    1.43   198.83777   111.91668   329.64590
   127  H   1.0    0.11    0.99    1.43   197.91787   108.31950   334.07257
   128  H   1.0    0.12    0.99    1.43   200.41194   107.97910   331.92211
   129  H   1.0    0.12    0.99    1.43   199.77281   112.69906   335.17220
   130  H   1.0    0.12    0.99    1.43   201.42268   109.98346   336.21989
   131  H   1.0    0.26    1.00    1.43   204.26567   113.03680   334.36391
   132  H   1.0    0.25    1.00    1.43   204.23302   110.37770   332.65487
   133  H   1.0    0.26    1.00    1.43   202.72632   112.94152   331.62100
   134  N   5.0   -0.48    3.00    1.93   193.04061   117.05633   328.78897
   135  C   4.0    0.10    3.99    3.61   192.34328   118.50280   326.56914
   136  C   4.0    0.31    3.01    3.02   193.87423   120.97157   326.41838
   137  O   6.0   -0.45    1.00    1.80   194.61681   121.84301   324.41308
   138  C   4.0   -0.02    3.98    3.58   189.51405   119.13430   326.60428
   139  O   6.0   -0.48    1.99    1.82   188.98575   120.69368   324.50602
   140  H   1.0    0.30    1.00    1.43   191.71802   116.72176   330.13356
   141  H   1.0    0.13    0.99    1.43   192.76872   117.43093   324.84509
   142  H   1.0    0.11    0.99    1.43   188.44557   117.36178   326.51388
   143  H   1.0    0.14    0.99    1.43   189.06760   120.12382   328.37200
   144  H   1.0    0.26    0.99    1.43   187.19308   120.67791   324.17692
   145  N   5.0   -0.47    3.01    1.93   194.36845   122.03379   328.65361
   146  C   4.0    0.07    3.99    3.61   195.86909   124.32441   328.85171
   147  C   4.0    0.29    3.01    3.02   198.61520   123.73392   328.10165
   148  O   6.0   -0.46    1.00    1.80   199.87739   125.14676   326.77473
   149  C   4.0   -0.14    3.98    3.59   195.68083   125.43120   331.52247
   150  C   4.0   -0.11    3.98    3.59   196.72405   128.11510   331.61011
   151  C   4.0    0.28    3.00    3.02   196.76561   129.39498   334.17483
   152  O   6.0   -0.36    1.00    1.80   197.95262   131.37454   334.45699
   153  N   5.0   -0.63    3.00    1.93   195.47131   128.35311   336.06983
   154  H   1.0    0.30    1.00    1.43   193.39752   121.38500   330.18035
   155  H   1.0    0.13    0.99    1.43   195.16819   125.71556   327.47737
   156  H   1.0    0.12    0.99    1.43   193.68149   125.43388   332.03541
   157  H   1.0    0.15    0.99    1.43   196.73696   124.23125   332.82347
   158  H   1.0    0.14    0.99    1.43   198.65126   128.16737   330.87526
   159  H   1.0    0.12    0.99    1.43   195.59744   129.35037   330.39244
   160  H   1.0    0.28    1.00    1.43   194.37480   126.80824   335.90921
   161  H   1.0    0.30    1.00    1.43   195.30213   129.32866   337.70115
   162  N   5.0   -0.47    3.01    1.93   199.47194   121.50290   328.91923
   163  C   4.0    0.09    3.99    3.60   201.90277   120.52193   328.12893
   164  C   4.0    0.29    3.01    3.02   202.00027   120.21703   325.23805
   165  O   6.0   -0.45    1.00    1.80   204.00772   120.48434   324.09830
   166  C   4.0   -0.01    3.98    3.59   202.34779   117.95346   329.41651
   167  O   6.0   -0.49    1.99    1.82   204.82099   117.01382   329.17805
   168  H   1.0    0.30    1.00    1.43   198.57000   120.63906   330.38696
   169  H   1.0    0.14    0.99    1.43   203.42310   121.84281   328.63878
   170  H   1.0    0.13    0.99    1.43   202.01897   118.20339   331.44376
   171  H   1.0    0.14    0.99    1.43   200.97611   116.62014   328.60818
   172  H   1.0    0.29    0.99    1.43   205.46815   117.36579   327.51143
   173  N   5.0   -0.46    3.01    1.93   199.82925   119.57488   324.13909
   174  C   4.0    0.07    3.99    3.60   199.56060   119.35801   321.41916
   175  C   4.0    0.29    3.01    3.02   199.71156   121.96971   320.17570
   176  O   6.0   -0.40    1.00    1.80   200.87515   122.25616   318.19313
   177  C   4.0   -0.20    3.98    3.59   197.10487   118.01796   320.74015
   178  H   1.0    0.31    1.00    1.43   198.35067   118.98169   325.21361
   179  H   1.0    0.12    0.99    1.43   201.18276   118.29530   320.68146
   180  H   1.0    0.11    0.99    1.43   196.98424   117.78876   318.70510
   181  H   1.0    0.12    0.99    1.43   197.05820   116.16821   321.62991
   182  H   1.0    0.15    0.99    1.43   195.51011   119.14036   321.37899
   183  N   5.0   -0.47    3.01    1.93   198.57786   123.89252   321.34902
   184  C   4.0    0.08    4.00    3.62   199.13444   126.46139   320.52641
   185  C   4.0    0.30    3.01    3.02   202.01546   126.66543   320.32101
   186  O   6.0   -0.37    1.00    1.80   203.05268   127.43105   318.40036
   187  C   4.0   -0.14    3.98    3.59   197.96487   128.37477   322.35013
   188  C   4.0   -0.11    3.97    3.58   198.68114   131.15919   321.92836
   189  C   4.0   -0.20    3.98    3.59   201.29717   131.77457   322.98419
   190  C   4.0   -0.21    3.98    3.59   198.49259   131.97435   319.16743
   191  H   1.0    0.30    1.00    1.43   197.39734   123.59402   322.83017
   192  H   1.0    0.13    0.99    1.43   198.39840   126.74734   318.60864
   193  H   1.0    0.11    0.99    1.43   195.91650   128.18925   322.21071
   194  H   1.0    0.15    0.99    1.43   198.52401   127.86916   324.26481
   195  H   1.0    0.11    0.99    1.43   197.32242   132.27441   323.02006
   196  H   1.0    0.12    0.99    1.43   201.59932   133.80719   322.98195
   197  H   1.0    0.12    0.99    1.43   201.47821   131.10468   324.91870
   198  H   1.0    0.14    0.99    1.43   202.78289   130.92623   321.85256
   199  H   1.0    0.11    0.99    1.43   198.79975   134.00203   319.03608
   200  H   1.0    0.14    0.99    1.43   199.93099   131.04583   318.03435
   201  H   1.0    0.10    0.99    1.43   196.63697   131.55540   318.39257
   202  N   5.0   -0.46    3.00    1.93   203.29048   125.80399   322.32829
   203  C   4.0    0.03    3.99    3.61   206.02591   125.72239   322.33945
   204  C   4.0    0.30    3.01    3.02   207.01596   124.62747   319.85190
   205  O   6.0   -0.35    1.00    1.80   208.34104   125.84465   318.39899
   206  H   1.0    0.29    1.00    1.43   202.35165   125.44811   323.95999
   207  H   1.0    0.13    0.99    1.43   206.84805   127.61031   322.56933
   208  H   1.0    0.13    0.99    1.43   206.65348   124.50847   323.87937
   209  N   5.0   -0.47    3.01    1.93   206.20181   122.28413   319.33729
   210  C   4.0    0.11    3.99    3.61   207.28258   120.93530   317.21071
   211  C   4.0    0.12    3.00    3.02   206.73198   122.30496   314.72466
   212  O   6.0   -0.34    1.00    1.80   208.12695   122.07491   312.87607
   213  C   4.0    0.04    3.97    3.58   206.44956   118.14219   317.18715
   214  O   6.0   -0.44    1.99    1.82   208.38422   116.77152   315.96013
   215  C   4.0   -0.19    3.98    3.58   203.90303   117.72528   315.89699
   216  H   1.0    0.29    1.00    1.43   205.39401   121.29287   320.76867
   217  H   1.0    0.17    0.99    1.43   209.35446   120.93539   317.42397
   218  H   1.0    0.12    0.99    1.43   206.35041   117.56197   319.18645
   219  H   1.0    0.26    0.99    1.43   208.01402   114.98781   316.11075
   220  H   1.0    0.11    0.99    1.43   203.26777   115.79532   316.19701
   221  H   1.0    0.14    0.99    1.43   202.52000   119.03965   316.64557
   222  H   1.0    0.14    0.99    1.43   204.11051   118.08585   313.89102
   223  N   5.0   -0.70    3.00    1.93   188.78995   135.85810   321.57082
   224  C   4.0    0.08    3.98    3.59   189.92640   134.45595   323.62498
   225  C   4.0    0.08    3.00    3.02   190.95429   136.18248   325.70827
   226  O   6.0   -0.38    1.00    1.80   190.99908   135.48101   327.91840
   227  C   4.0   -0.14    3.98    3.59   192.02710   132.74888   322.61522
   228  C   4.0   -0.12    3.98    3.59   190.99427   130.46130   321.16690
   229  C   4.0    0.27    3.00    3.02   189.94370   128.44266   322.93479
   230  O   6.0   -0.39    1.00    1.80   188.52348   128.93924   324.68915
   231  N   5.0   -0.64    3.00    1.93   190.67483   126.07539   322.40266
   232  H   1.0    0.26    1.00    1.43   189.72258   135.87652   319.89224
   233  H   1.0    0.16    0.99    1.43   188.48114   133.26663   324.52246
   234  H   1.0    0.10    0.99    1.43   193.22813   133.86503   321.36527
   235  H   1.0    0.12    0.99    1.43   193.15040   132.09686   324.21556
   236  H   1.0    0.12    0.99    1.43   189.47180   131.08453   319.92471
   237  H   1.0    0.10    0.99    1.43   192.48822   129.66121   320.00064
   238  H   1.0    0.27    1.00    1.43   191.88655   125.67556   320.99603
   239  H   1.0    0.32    1.00    1.43   190.11384   124.60329   323.48556
   240  N   5.0   -0.70    3.00    1.93   183.50021   134.69107   339.67096
   241  C   4.0    0.07    3.98    3.58   183.76025   132.44109   341.19651
   242  C   4.0    0.08    3.00    3.02   184.87012   133.02331   343.80267
   243  O   6.0   -0.40    1.00    1.80   184.36364   131.64305   345.60631
   244  C   4.0   -0.13    3.99    3.60   185.39612   130.45655   339.88891
   245  C   4.0   -0.10    3.98    3.58   184.15049   129.24928   337.56749
   246  C   4.0   -0.22    3.98    3.59   186.13048   127.69814   336.15378
   247  C   4.0   -0.21    3.98    3.59   181.90010   127.59472   338.28977
   248  H   1.0    0.27    1.00    1.43   184.44627   134.79420   338.00789
   249  H   1.0    0.12    0.99    1.43   181.86295   131.67758   341.56134
   250  H   1.0    0.12    0.99    1.43   187.15794   131.37575   339.33499
   251  H   1.0    0.13    0.99    1.43   185.84187   128.97999   341.25921
   252  H   1.0    0.12    0.99    1.43   183.49469   130.75903   336.31855
   253  H   1.0    0.10    0.99    1.43   185.27958   126.76599   334.53327
   254  H   1.0    0.12    0.99    1.43   187.63793   128.91716   335.47203
   255  H   1.0    0.12    0.99    1.43   186.94792   126.27941   337.39647
   256  H   1.0    0.11    0.99    1.43   181.05950   126.76950   336.60713
   257  H   1.0    0.13    0.99    1.43   182.47052   126.06329   339.53688
   258  H   1.0    0.11    0.99    1.43   180.44309   128.69263   339.23467
   259  H   1.0    0.30    1.00    1.43   187.22945   112.48463   350.65776
   260  H   1.0    0.18    1.00    1.43   205.21122   123.41670   314.57509
   261  H   1.0    0.31    1.00    1.43   187.25369   135.21499   321.22603
   262  H   1.0    0.15    1.00    1.43   191.59976   137.90491   325.27507
   263  H   1.0    0.30    1.00    1.43   181.86667   134.90498   339.24865
   264  H   1.0    0.16    1.00    1.43   186.00122   134.51917   344.03524

           ------------------------------------------------- 
          |        Self-Consistent Charge Iterations        |
           ------------------------------------------------- 

          ...................................................
          :                      SETUP                      :
          :.................................................:
          :  # basis functions                 645          :
          :  # atomic orbitals                 645          :
          :  # shells                          391          :
          :  # electrons                       722          :
          :  max. iterations                   250          :
          :  Hamiltonian                  GFN2-xTB          :
          :  restarted?                      false          :
          :  GBSA solvation                   true          :
          :  PC potential                    false          :
          :  electronic temp.          500.0000000     K    :
          :  accuracy                    0.1000000          :
          :  -> integral cutoff          0.3500000E+02      :
          :  -> integral neglect         0.1000000E-08      :
          :  -> SCF convergence          0.1000000E-06 Eh   :
          :  -> wf. convergence          0.1000000E-04 e    :
          :  Broyden damping             0.4000000          :
          ...................................................

 iter      E             dE          RMSdq      gap      omega  full diag
   1   -416.1325598 -0.416133E+03  0.428E+00    1.30       0.0  T
   2   -417.3557477 -0.122319E+01  0.220E+00    1.76       1.0  T
   3   -417.3909787 -0.352309E-01  0.117E+00    2.37       1.0  T
   4   -417.3972872 -0.630852E-02  0.236E-01    2.12       1.0  T
   5   -417.4051114 -0.782420E-02  0.102E-01    2.24       1.0  T
   6   -417.4054581 -0.346776E-03  0.475E-02    2.19       1.0  T
   7   -417.4054910 -0.328140E-04  0.146E-02    2.19       1.0  T
   8   -417.4055027 -0.117057E-04  0.636E-03    2.19       1.0  T
   9   -417.4055042 -0.154110E-05  0.290E-03    2.19       2.1  T
  10   -417.4055044 -0.238109E-06  0.103E-03    2.19       6.0  T
  11   -417.4055045 -0.601950E-07  0.396E-04    2.19      15.5  T
  12   -417.4055045 -0.751743E-08  0.178E-04    2.19      34.6  T
  13   -417.4055045 -0.947409E-09  0.826E-05    2.19      74.5  T
  14   -417.4055045 -0.309569E-09  0.299E-05    2.19     205.5  T

   *** convergence criteria satisfied after 14 iterations ***

         #    Occupation            Energy/Eh            Energy/eV
      -------------------------------------------------------------
         1        2.0000           -0.7446475             -20.2629
       ...           ...                  ...                  ...
       355        2.0000           -0.3984052             -10.8412
       356        2.0000           -0.3949998             -10.7485
       357        2.0000           -0.3930159             -10.6945
       358        2.0000           -0.3899147             -10.6101
       359        2.0000           -0.3883051             -10.5663
       360        2.0000           -0.3693705             -10.0511
       361        2.0000           -0.3675568             -10.0017 (HOMO)
       362                         -0.2870006              -7.8097 (LUMO)
       363                         -0.2819380              -7.6719
       364                         -0.2788255              -7.5872
       365                         -0.2645043              -7.1975
       366                         -0.2554946              -6.9524
       ...                                ...                  ...
       645                          0.6257651              17.0279
      -------------------------------------------------------------
                  HL-Gap            0.0805562 Eh            2.1920 eV
             Fermi-level           -0.3271004 Eh           -8.9009 eV

 SCC (total)                   0 d,  0 h,  0 min,  1.939 sec
 SCC setup                      ...        0 min,  0.033 sec (  1.687%)
 Dispersion                     ...        0 min,  0.026 sec (  1.360%)
 integral evaluation            ...        0 min,  0.098 sec (  5.036%)
 zeroth order Hamiltonian       ...        0 min,  0.002 sec (  0.114%)
 iterations                     ...        0 min,  1.381 sec ( 71.183%)
 molecular gradient             ...        0 min,  0.389 sec ( 20.058%)
 printout                       ...        0 min,  0.011 sec (  0.559%)

         :::::::::::::::::::::::::::::::::::::::::::::::::::::
         ::                     SUMMARY                     ::
         :::::::::::::::::::::::::::::::::::::::::::::::::::::
         :: total energy             -412.631040668986 Eh   ::
         :: total w/o Gsasa/hb       -412.572447067722 Eh   ::
         :: gradient norm               0.387454928998 Eh/α ::
         :: HOMO-LUMO gap               2.192046637221 eV   ::
         ::.................................................::
         :: SCC energy               -417.416386113770 Eh   ::
         :: -> isotropic ES             1.275459117351 Eh   ::
         :: -> anisotropic ES          -0.036211184041 Eh   ::
         :: -> anisotropic XC           0.113526328448 Eh   ::
         :: -> dispersion              -0.342468218836 Eh   ::
         :: -> Gsolv                   -0.284280331733 Eh   ::
         ::    -> Gborn                -0.225686730470 Eh   ::
         ::    -> Gsasa                -0.012739042388 Eh   ::
         ::    -> Ghb                  -0.047712002002 Eh   ::
         ::    -> Gshift                0.001857443127 Eh   ::
         :: repulsion energy            4.758520555251 Eh   ::
         :: add. restraining            0.000000000000 Eh   ::
         :::::::::::::::::::::::::::::::::::::::::::::::::::::

           -------------------------------------------------
          |                Property Printout                |
           -------------------------------------------------

    * Orbital Energies and Occupations

         #    Occupation            Energy/Eh            Energy/eV
      -------------------------------------------------------------
         1        2.0000           -0.7446475             -20.2629
       ...           ...                  ...                  ...
       349        2.0000           -0.4079560             -11.1010
       350        2.0000           -0.4077431             -11.0953
       351        2.0000           -0.4056974             -11.0396
       352        2.0000           -0.4037632             -10.9870
       353        2.0000           -0.3998349             -10.8801
       354        2.0000           -0.3997942             -10.8790
       355        2.0000           -0.3984052             -10.8412
       356        2.0000           -0.3949998             -10.7485
       357        2.0000           -0.3930159             -10.6945
       358        2.0000           -0.3899147             -10.6101
       359        2.0000           -0.3883051             -10.5663
       360        2.0000           -0.3693705             -10.0511
       361        2.0000           -0.3675568             -10.0017 (HOMO)
       362                         -0.2870006              -7.8097 (LUMO)
       363                         -0.2819380              -7.6719
       364                         -0.2788255              -7.5872
       365                         -0.2645043              -7.1975
       366                         -0.2554946              -6.9524
       367                         -0.2540199              -6.9122
       368                         -0.2495244              -6.7899
       369                         -0.2485421              -6.7632
       370                         -0.2440155              -6.6400
       371                         -0.2417428              -6.5782
       372                         -0.2401683              -6.5353
       ...                                ...                  ...
       645                          0.6257651              17.0279
      -------------------------------------------------------------
                  HL-Gap            0.0805562 Eh            2.1920 eV
             Fermi-level           -0.3271004 Eh           -8.9009 eV

   #   Z        covCN         q      C6AA      α(0)
   1   7 N      2.636    -0.395    30.240     8.167
   2   6 C      3.787     0.023    20.193     6.400
   3   6 C      2.766     0.256    22.695     7.802
   4   8 O      0.859    -0.490    23.571     6.509
   5   6 C      3.810    -0.075    21.920     6.664
   6   6 C      3.849    -0.011    20.741     6.478
   7   6 C      3.758    -0.116    22.767     6.803
   8   6 C      3.755    -0.120    22.861     6.817
   9   1 H      0.860     0.165     1.303     1.788
  10   1 H      0.924     0.055     2.265     2.353
  11   1 H      0.924     0.045     2.384     2.415
  12   1 H      0.924     0.050     2.320     2.382
  13   1 H      0.924     0.036     2.505     2.475
  14   1 H      0.925     0.039     2.463     2.454
  15   1 H      0.925     0.034     2.526     2.485
  16   1 H      0.925     0.042     2.419     2.432
  17   1 H      0.925     0.046     2.376     2.411
  18   1 H      0.925     0.048     2.343     2.394
  19   1 H      0.925     0.038     2.469     2.457
  20   7 N      2.689    -0.176    24.802     7.396
  21   6 C      3.803     0.006    20.480     6.443
  22   6 C      2.763     0.270    22.447     7.759
  23   8 O      0.859    -0.480    23.339     6.477
  24   6 C      3.723     0.112    18.846     6.199
  25   8 O      1.656    -0.487    22.611     6.419
  26   6 C      3.751    -0.141    23.272     6.880
  27   1 H      0.860     0.222     1.002     1.568
  28   1 H      0.923     0.105     1.739     2.062
  29   1 H      0.923     0.046     2.370     2.407
  30   1 H      0.805     0.342     0.608     1.225
  31   1 H      0.925     0.066     2.130     2.282
  32   1 H      0.925     0.061     2.181     2.310
  33   1 H      0.925     0.056     2.242     2.341
  34   7 N      2.688    -0.175    24.778     7.393
  35   6 C      3.803     0.017    20.290     6.413
  36   6 C      2.761     0.271    22.427     7.755
  37   8 O      0.858    -0.472    23.168     6.453
  38   6 C      3.809    -0.072    21.876     6.658
  39   6 C      3.806    -0.109    22.581     6.765
  40   6 C      2.746     0.288    22.113     7.700
  41   8 O      0.859    -0.494    23.646     6.520
  42   7 N      2.639    -0.276    27.131     7.736
  43   1 H      0.860     0.222     1.000     1.567
  44   1 H      0.923     0.095     1.832     2.117
  45   1 H      0.925     0.080     1.980     2.200
  46   1 H      0.924     0.069     2.101     2.267
  47   1 H      0.924     0.081     1.965     2.192
  48   1 H      0.925     0.081     1.965     2.192
  49   1 H      0.860     0.226     0.983     1.553
  50   1 H      0.860     0.208     1.067     1.618
  51   7 N      2.686    -0.178    24.856     7.405
  52   6 C      3.802     0.017    20.293     6.414
  53   6 C      2.754     0.262    22.584     7.782
  54   8 O      0.859    -0.462    22.959     6.424
  55   6 C      3.809    -0.117    22.723     6.785
  56   6 C      2.743     0.286    22.147     7.705
  57   8 O      0.859    -0.487    23.490     6.498
  58   7 N      2.639    -0.277    27.169     7.741
  59   1 H      0.860     0.208     1.064     1.616
  60   1 H      0.923     0.094     1.837     2.119
  61   1 H      0.925     0.092     1.864     2.135
  62   1 H      0.924     0.115     1.653     2.011
  63   1 H      0.860     0.241     0.921     1.503
  64   1 H      0.860     0.227     0.980     1.551
  65   7 N      2.691    -0.177    24.829     7.401
  66   6 C      3.796     0.019    20.258     6.409
  67   6 C      2.765     0.263    22.561     7.779
  68   8 O      0.859    -0.488    23.517     6.502
  69   6 C      3.807    -0.110    22.596     6.767
  70   6 C      2.743     0.291    22.058     7.690
  71   8 O      0.859    -0.502    23.836     6.546
  72   7 N      2.637    -0.288    27.442     7.780
  73   1 H      0.860     0.216     1.026     1.587
  74   1 H      0.924     0.097     1.811     2.105
  75   1 H      0.924     0.085     1.927     2.171
  76   1 H      0.924     0.079     1.991     2.206
  77   1 H      0.860     0.229     0.967     1.541
  78   1 H      0.860     0.240     0.922     1.505
  79   7 N      2.690    -0.176    24.821     7.399
  80   6 C      3.803     0.022    20.202     6.399
  81   6 C      2.765     0.274    22.373     7.746
  82   8 O      0.859    -0.494    23.643     6.519
  83   6 C      3.807    -0.074    21.918     6.664
  84   6 C      3.849    -0.013    20.781     6.484
  85   6 C      3.755    -0.115    22.758     6.802
  86   6 C      3.755    -0.119    22.843     6.815
  87   1 H      0.860     0.232     0.958     1.533
  88   1 H      0.924     0.079     1.990     2.206
  89   1 H      0.925     0.063     2.164     2.300
  90   1 H      0.924     0.055     2.255     2.349
  91   1 H      0.924     0.047     2.359     2.402
  92   1 H      0.925     0.046     2.375     2.410
  93   1 H      0.925     0.035     2.523     2.484
  94   1 H      0.925     0.037     2.491     2.468
  95   1 H      0.925     0.046     2.372     2.408
  96   1 H      0.925     0.040     2.444     2.445
  97   1 H      0.925     0.047     2.361     2.403
  98   7 N      2.688    -0.201    25.373     7.481
  99   6 C      3.806     0.029    20.075     6.378
 100   6 C      2.757     0.263    22.568     7.779
 101   8 O      0.859    -0.488    23.519     6.502
 102   6 C      3.808    -0.113    22.655     6.775
 103   6 C      2.744     0.287    22.141     7.705
 104   8 O      0.859    -0.498    23.746     6.533
 105   7 N      2.637    -0.281    27.249     7.753
 106   1 H      0.860     0.231     0.961     1.536
 107   1 H      0.923     0.079     1.989     2.205
 108   1 H      0.925     0.085     1.927     2.171
 109   1 H      0.924     0.103     1.757     2.073
 110   1 H      0.860     0.225     0.985     1.555
 111   1 H      0.860     0.240     0.922     1.504
 112   7 N      2.690    -0.160    24.454     7.344
 113   6 C      3.796     0.002    20.557     6.456
 114   6 C      2.756     0.264    22.541     7.775
 115   8 O      0.859    -0.475    23.241     6.464
 116   6 C      3.803    -0.089    22.199     6.708
 117   6 C      3.800    -0.084    22.105     6.694
 118   6 C      3.801    -0.099    22.395     6.738
 119   6 C      3.729    -0.057    21.694     6.649
 120   7 N      3.482    -0.138    23.973     7.272
 121   1 H      0.860     0.213     1.042     1.599
 122   1 H      0.924     0.101     1.772     2.082
 123   1 H      0.924     0.088     1.894     2.152
 124   1 H      0.925     0.063     2.164     2.300
 125   1 H      0.925     0.066     2.130     2.283
 126   1 H      0.925     0.064     2.151     2.293
 127   1 H      0.925     0.089     1.888     2.149
 128   1 H      0.925     0.088     1.895     2.153
 129   1 H      0.925     0.117     1.636     2.000
 130   1 H      0.924     0.128     1.551     1.948
 131   1 H      0.859     0.299     0.716     1.326
 132   1 H      0.859     0.301     0.711     1.321
 133   1 H      0.859     0.275     0.792     1.394
 134   7 N      2.688    -0.179    24.874     7.407
 135   6 C      3.797     0.013    20.357     6.424
 136   6 C      2.756     0.276    22.324     7.737
 137   8 O      0.859    -0.472    23.164     6.453
 138   6 C      3.678     0.068    19.650     6.350
 139   8 O      1.655    -0.482    22.513     6.405
 140   1 H      0.860     0.224     0.993     1.561
 141   1 H      0.924     0.093     1.846     2.125
 142   1 H      0.924     0.051     2.306     2.375
 143   1 H      0.924     0.057     2.229     2.335
 144   1 H      0.805     0.351     0.586     1.202
 145   7 N      2.690    -0.191    25.135     7.446
 146   6 C      3.797     0.021    20.228     6.404
 147   6 C      2.755     0.273    22.390     7.748
 148   8 O      0.859    -0.488    23.511     6.501
 149   6 C      3.803    -0.081    22.048     6.685
 150   6 C      3.805    -0.096    22.318     6.725
 151   6 C      2.742     0.290    22.075     7.693
 152   8 O      0.860    -0.523    24.296     6.609
 153   7 N      2.637    -0.271    27.011     7.719
 154   1 H      0.860     0.228     0.975     1.547
 155   1 H      0.923     0.070     2.081     2.256
 156   1 H      0.924     0.066     2.128     2.281
 157   1 H      0.924     0.081     1.968     2.194
 158   1 H      0.924     0.072     2.068     2.249
 159   1 H      0.924     0.072     2.064     2.247
 160   1 H      0.860     0.219     1.013     1.577
 161   1 H      0.860     0.229     0.969     1.542
 162   7 N      2.691    -0.194    25.201     7.456
 163   6 C      3.793     0.004    20.512     6.450
 164   6 C      2.754     0.268    22.472     7.763
 165   8 O      0.858    -0.503    23.860     6.549
 166   6 C      3.678     0.046    20.023     6.410
 167   8 O      1.655    -0.450    21.841     6.309
 168   1 H      0.860     0.239     0.927     1.508
 169   1 H      0.923     0.079     1.986     2.204
 170   1 H      0.924     0.089     1.893     2.152
 171   1 H      0.923     0.071     2.075     2.253
 172   1 H      0.805     0.327     0.645     1.262
 173   7 N      2.689    -0.178    24.864     7.406
 174   6 C      3.793     0.022    20.217     6.403
 175   6 C      2.761     0.273    22.389     7.749
 176   8 O      0.859    -0.498    23.749     6.534
 177   6 C      3.756    -0.140    23.260     6.877
 178   1 H      0.860     0.233     0.954     1.530
 179   1 H      0.923     0.075     2.035     2.231
 180   1 H      0.925     0.067     2.121     2.278
 181   1 H      0.925     0.082     1.954     2.186
 182   1 H      0.925     0.079     1.987     2.204
 183   7 N      2.692    -0.189    25.097     7.440
 184   6 C      3.801     0.026    20.130     6.388
 185   6 C      2.759     0.297    21.964     7.675
 186   8 O      0.858    -0.503    23.841     6.546
 187   6 C      3.805    -0.089    22.193     6.707
 188   6 C      3.848    -0.015    20.805     6.488
 189   6 C      3.755    -0.114    22.744     6.800
 190   6 C      3.755    -0.116    22.772     6.804
 191   1 H      0.860     0.227     0.980     1.551
 192   1 H      0.924     0.065     2.140     2.288
 193   1 H      0.924     0.052     2.294     2.369
 194   1 H      0.925     0.075     2.028     2.227
 195   1 H      0.924     0.044     2.398     2.422
 196   1 H      0.925     0.043     2.405     2.425
 197   1 H      0.925     0.041     2.438     2.442
 198   1 H      0.925     0.028     2.619     2.531
 199   1 H      0.925     0.043     2.406     2.426
 200   1 H      0.925     0.039     2.464     2.455
 201   1 H      0.925     0.041     2.438     2.442
 202   7 N      2.687    -0.182    24.953     7.419
 203   6 C      3.747    -0.023    21.052     6.544
 204   6 C      2.758     0.290    22.077     7.694
 205   8 O      0.858    -0.498    23.749     6.534
 206   1 H      0.860     0.223     0.994     1.562
 207   1 H      0.924     0.069     2.091     2.262
 208   1 H      0.925     0.090     1.875     2.141
 209   7 N      2.689    -0.189    25.104     7.441
 210   6 C      3.796     0.033    20.031     6.373
 211   6 C      2.763     0.222    23.314     7.907
 212   8 O      0.856    -0.375    21.191     6.172
 213   6 C      3.724     0.122    18.686     6.173
 214   8 O      1.656    -0.490    22.680     6.429
 215   6 C      3.752    -0.146    23.384     6.896
 216   1 H      0.860     0.228     0.973     1.545
 217   1 H      0.923     0.086     1.917     2.165
 218   1 H      0.923     0.041     2.432     2.439
 219   1 H      0.805     0.356     0.575     1.191
 220   1 H      0.925     0.069     2.093     2.262
 221   1 H      0.925     0.076     2.017     2.221
 222   1 H      0.925     0.047     2.359     2.402
 223   7 N      2.635    -0.393    30.187     8.160
 224   6 C      3.783     0.035    20.008     6.372
 225   6 C      2.765     0.198    23.782     7.986
 226   8 O      0.856    -0.387    21.423     6.205
 227   6 C      3.807    -0.055    21.560     6.610
 228   6 C      3.805    -0.098    22.369     6.733
 229   6 C      2.743     0.288    22.115     7.700
 230   8 O      0.859    -0.500    23.788     6.539
 231   7 N      2.638    -0.274    27.083     7.729
 232   1 H      0.860     0.169     1.280     1.772
 233   1 H      0.923     0.079     1.989     2.206
 234   1 H      0.924     0.060     2.196     2.318
 235   1 H      0.924     0.040     2.447     2.446
 236   1 H      0.924     0.076     2.018     2.221
 237   1 H      0.925     0.060     2.200     2.319
 238   1 H      0.860     0.214     1.036     1.595
 239   1 H      0.860     0.223     0.998     1.565
 240   7 N      2.634    -0.394    30.205     8.162
 241   6 C      3.782     0.041    19.896     6.354
 242   6 C      2.766     0.195    23.840     7.996
 243   8 O      0.856    -0.383    21.351     6.195
 244   6 C      3.812    -0.068    21.788     6.644
 245   6 C      3.850    -0.008    20.691     6.470
 246   6 C      3.758    -0.111    22.676     6.789
 247   6 C      3.755    -0.113    22.724     6.797
 248   1 H      0.860     0.164     1.311     1.794
 249   1 H      0.923     0.055     2.262     2.352
 250   1 H      0.924     0.048     2.343     2.394
 251   1 H      0.924     0.048     2.350     2.397
 252   1 H      0.924     0.031     2.575     2.509
 253   1 H      0.925     0.039     2.467     2.456
 254   1 H      0.925     0.035     2.518     2.482
 255   1 H      0.925     0.044     2.397     2.421
 256   1 H      0.925     0.041     2.436     2.441
 257   1 H      0.925     0.051     2.302     2.373
 258   1 H      0.925     0.034     2.534     2.490
 259   1 H      0.862     0.185     1.184     1.705
 260   1 H      0.930     0.070     2.088     2.259
 261   1 H      0.862     0.183     1.195     1.712
 262   1 H      0.930     0.076     2.017     2.221
 263   1 H      0.862     0.181     1.209     1.722
 264   1 H      0.930     0.074     2.040     2.233

 Mol. C6AA /au·bohr⁶  :     619121.518620
 Mol. C8AA /au·bohr⁸  :   13607910.422248
 Mol. α(0) /au        :       1169.069373


Wiberg/Mayer (AO) data.
largest (>0.10) Wiberg bond orders for each atom
          total WBO             WBO to atom ...
     1  N   2.997        C    2 1.018    H  259 0.954    H    9 0.952
     2  C   3.985        N    1 1.018    C    5 0.972    C    3 0.946    H   10 0.945
     3  C   3.939        O    4 1.599    N   20 1.300    C    2 0.946
     4  O   1.955        C    3 1.599    N   20 0.187
     5  C   3.991        C    6 0.992    H   12 0.973    H   11 0.973    C    2 0.972
     6  C   3.995        C    8 1.010    C    7 1.007    C    5 0.992    H   13 0.967
     7  C   3.994        C    6 1.007    H   16 0.986    H   15 0.986    H   14 0.986
     8  C   3.995        C    6 1.010    H   18 0.986    H   17 0.985    H   19 0.980
     9  H   0.973        N    1 0.952
    10  H   0.997        C    2 0.945
    11  H   0.998        C    5 0.973
    12  H   0.997        C    5 0.973
    13  H   0.999        C    6 0.967
    14  H   0.998        C    7 0.986
    15  H   0.999        C    7 0.986
    16  H   0.998        C    7 0.986
    17  H   0.998        C    8 0.985
    18  H   0.998        C    8 0.986
    19  H   0.999        C    8 0.980
    20  N   3.469        C    3 1.300    C   21 0.987    H   27 0.914    O    4 0.187
    21  C   3.962        N   20 0.987    C   24 0.959    H   28 0.941    C   22 0.936
    22  C   3.947        O   23 1.614    N   34 1.306    C   21 0.936
    23  O   1.976        C   22 1.614    N   34 0.193
    24  C   3.955        C   26 1.005    O   25 0.993    C   21 0.959    H   29 0.953
    25  O   1.930        C   24 0.993    H   30 0.865
    26  C   3.990        C   24 1.005    H   33 0.983    H   32 0.980    H   31 0.980
    27  H   0.951        N   20 0.914
    28  H   0.989        C   21 0.941
    29  H   0.997        C   24 0.953
    30  H   0.883        O   25 0.865
    31  H   0.995        C   26 0.980
    32  H   0.996        C   26 0.980
    33  H   0.997        C   26 0.983
    34  N   3.471        C   22 1.306    C   35 0.980    H   43 0.913    O   23 0.193
    35  C   3.961        C   38 0.980    N   34 0.980    C   36 0.939    H   44 0.938
    36  C   3.947        O   37 1.622    N   51 1.291    C   35 0.939
    37  O   1.996        C   36 1.622    N   51 0.185
    38  C   3.986        C   39 0.988    C   35 0.980    H   46 0.970    H   45 0.968
    39  C   3.990        C   38 0.988    H   48 0.969    C   40 0.966    H   47 0.964
    40  C   3.942        O   41 1.647    N   42 1.304    C   39 0.966
    41  O   1.958        C   40 1.647    N   42 0.203
    42  N   3.405        C   40 1.304    H   50 0.933    H   49 0.930    O   41 0.203
    43  H   0.950        N   34 0.913
    44  H   0.991        C   35 0.938
    45  H   0.994        C   38 0.968
    46  H   0.995        C   38 0.970
    47  H   0.993        C   39 0.964
    48  H   0.993        C   39 0.969
    49  H   0.949        N   42 0.930
    50  H   0.957        N   42 0.933
    51  N   3.456        C   36 1.291    C   52 0.978    H   59 0.917    O   37 0.185
    52  C   3.959        C   55 0.986    N   51 0.978    C   53 0.934    H   60 0.922
    53  C   3.954        O   54 1.642    N   65 1.296    C   52 0.934
    54  O   1.973        C   53 1.642    N   65 0.198
    55  C   3.984        C   52 0.986    C   56 0.963    H   61 0.952    H   62 0.940
    56  C   3.949        O   57 1.635    N   58 1.320    C   55 0.963
    57  O   1.975        C   56 1.635    N   58 0.200
    58  N   3.406        C   56 1.320    H   64 0.927    H   63 0.921    O   57 0.200
    59  H   0.956        N   51 0.917
    60  H   0.991        C   52 0.922
    61  H   0.991        C   55 0.952
    62  H   0.986        C   55 0.940
    63  H   0.941        N   58 0.921
    64  H   0.948        N   58 0.927
    65  N   3.472        C   53 1.296    C   66 0.983    H   73 0.897    O   54 0.198
    66  C   3.966        N   65 0.983    C   69 0.974    H   74 0.948    C   67 0.930
    67  C   3.949        O   68 1.592    N   79 1.334    C   66 0.930
    68  O   1.961        C   67 1.592    N   79 0.198
    69  C   3.986        C   66 0.974    H   76 0.969    C   70 0.957    H   75 0.955
    70  C   3.950        O   71 1.644    N   72 1.325    C   69 0.957
    71  O   1.948        C   70 1.644    N   72 0.208
    72  N   3.404        C   70 1.325    H   77 0.926    H   78 0.893    O   71 0.208
    73  H   0.953        N   65 0.897
    74  H   0.990        C   66 0.948
    75  H   0.993        C   69 0.955
    76  H   0.993        C   69 0.969
    77  H   0.947        N   72 0.926
    78  H   0.942        N   72 0.893
    79  N   3.488        C   67 1.334    C   80 0.977    H   87 0.891    O   68 0.198
    80  C   3.963        C   83 0.979    N   79 0.977    C   81 0.942    H   88 0.942
    81  C   3.946        O   82 1.600    N   98 1.308    C   80 0.942
    82  O   1.965        C   81 1.600    N   98 0.186
    83  C   3.986        C   84 0.992    C   80 0.979    H   90 0.966    H   89 0.964
    84  C   3.994        C   86 1.010    C   85 1.010    C   83 0.992    H   91 0.965
    85  C   3.995        C   84 1.010    H   92 0.985    H   93 0.984    H   94 0.982
    86  C   3.994        C   84 1.010    H   95 0.985    H   96 0.985    H   97 0.983
    87  H   0.946        N   79 0.891
    88  H   0.993        C   80 0.942
    89  H   0.996        C   83 0.964
    90  H   0.996        C   83 0.966
    91  H   0.997        C   84 0.965
    92  H   0.998        C   85 0.985
    93  H   0.999        C   85 0.984
    94  H   0.999        C   85 0.982
    95  H   0.998        C   86 0.985
    96  H   0.998        C   86 0.985
    97  H   0.998        C   86 0.983
    98  N   3.450        C   81 1.308    C   99 0.980    H  106 0.868    O   82 0.186
    99  C   3.965        C  102 0.984    N   98 0.980    C  100 0.943    H  107 0.931
   100  C   3.954        O  101 1.578    N  112 1.339    C   99 0.943
   101  O   1.960        C  100 1.578    N  112 0.194
   102  C   3.986        C   99 0.984    C  103 0.958    H  108 0.956    H  109 0.945
   103  C   3.949        O  104 1.634    N  105 1.329    C  102 0.958
   104  O   1.954        C  103 1.634    N  105 0.203
   105  N   3.410        C  103 1.329    H  110 0.928    H  111 0.902    O  104 0.203
   106  H   0.947        N   98 0.868
   107  H   0.993        C   99 0.931
   108  H   0.993        C  102 0.956
   109  H   0.989        C  102 0.945
   110  H   0.948        N  105 0.928
   111  H   0.942        N  105 0.902
   112  N   3.501        C  100 1.339    C  113 0.975    H  121 0.897    O  101 0.194
   113  C   3.951        C  116 0.976    N  112 0.975    H  122 0.941    C  114 0.934
   114  C   3.943        O  115 1.610    N  134 1.311    C  113 0.934
   115  O   1.978        C  114 1.610    N  134 0.193
   116  C   3.976        C  117 1.001    C  113 0.976    H  124 0.974    H  123 0.961
   117  C   3.989        C  118 1.009    C  116 1.001    H  125 0.975    H  126 0.971
   118  C   3.985        C  119 1.013    C  117 1.009    H  128 0.966    H  127 0.965
   119  C   3.909        C  118 1.013    H  130 0.962    H  129 0.961    N  120 0.950
   120  N   3.668        C  119 0.950    H  133 0.903    H  131 0.897    H  132 0.894
   121  H   0.954        N  112 0.897
   122  H   0.989        C  113 0.941
   123  H   0.992        C  116 0.961
   124  H   0.996        C  116 0.974
   125  H   0.995        C  117 0.975
   126  H   0.996        C  117 0.971
   127  H   0.992        C  118 0.965
   128  H   0.992        C  118 0.966
   129  H   0.986        C  119 0.961
   130  H   0.984        C  119 0.962
   131  H   0.911        N  120 0.897
   132  H   0.910        N  120 0.894
   133  H   0.924        N  120 0.903
   134  N   3.477        C  114 1.311    C  135 0.988    H  140 0.896    O  115 0.193
   135  C   3.966        N  134 0.988    C  138 0.975    H  141 0.947    C  136 0.930
   136  C   3.948        O  137 1.622    N  145 1.310    C  135 0.930
   137  O   1.988        C  136 1.622    N  145 0.195
   138  C   3.953        O  139 1.000    C  135 0.975    H  142 0.969    H  143 0.959
   139  O   1.932        C  138 1.000    H  144 0.864
   140  H   0.950        N  134 0.896
   141  H   0.991        C  135 0.947
   142  H   0.997        C  138 0.969
   143  H   0.997        C  138 0.959
   144  H   0.876        O  139 0.864
   145  N   3.463        C  136 1.310    C  146 0.981    H  154 0.881    O  137 0.195
   146  C   3.966        N  145 0.981    C  149 0.980    H  155 0.950    C  147 0.933
   147  C   3.949        O  148 1.614    N  162 1.317    C  146 0.933
   148  O   1.977        C  147 1.614    N  162 0.196
   149  C   3.988        C  150 1.009    C  146 0.980    H  156 0.965    H  157 0.963
   150  C   3.992        C  149 1.009    C  151 0.973    H  158 0.961    H  159 0.950
   151  C   3.945        O  152 1.623    N  153 1.319    C  150 0.973
   152  O   1.922        C  151 1.623    N  153 0.197
   153  N   3.406        C  151 1.319    H  161 0.925    H  160 0.920    O  152 0.197
   154  H   0.948        N  145 0.881
   155  H   0.995        C  146 0.950
   156  H   0.995        C  149 0.965
   157  H   0.993        C  149 0.963
   158  H   0.995        C  150 0.961
   159  H   0.995        C  150 0.950
   160  H   0.952        N  153 0.920
   161  H   0.947        N  153 0.925
   162  N   3.461        C  147 1.317    C  163 0.983    H  168 0.863    O  148 0.196
   163  C   3.961        N  162 0.983    C  166 0.964    H  169 0.948    C  164 0.936
   164  C   3.949        O  165 1.593    N  173 1.334    C  163 0.936
   165  O   1.952        C  164 1.593    N  173 0.198
   166  C   3.950        O  167 1.014    C  163 0.964    H  170 0.961    H  171 0.952
   167  O   1.951        C  166 1.014    H  172 0.875
   168  H   0.943        N  162 0.863
   169  H   0.993        C  163 0.948
   170  H   0.992        C  166 0.961
   171  H   0.995        C  166 0.952
   172  H   0.893        O  167 0.875
   173  N   3.487        C  164 1.334    C  174 0.979    H  178 0.880    O  165 0.198
   174  C   3.965        C  177 0.995    N  173 0.979    H  179 0.948    C  175 0.933
   175  C   3.943        O  176 1.622    N  183 1.311    C  174 0.933
   176  O   1.965        C  175 1.622    N  183 0.196
   177  C   3.980        C  174 0.995    H  180 0.981    H  181 0.978    H  182 0.972
   178  H   0.946        N  173 0.880
   179  H   0.994        C  174 0.948
   180  H   0.995        C  177 0.981
   181  H   0.993        C  177 0.978
   182  H   0.994        C  177 0.972
   183  N   3.463        C  175 1.311    C  184 0.973    H  191 0.888    O  176 0.196
   184  C   3.966        C  187 0.985    N  183 0.973    H  192 0.954    C  185 0.933
   185  C   3.941        O  186 1.636    N  202 1.289    C  184 0.933
   186  O   1.959        C  185 1.636    N  202 0.191
   187  C   3.986        C  188 0.993    C  184 0.985    H  193 0.968    H  194 0.956
   188  C   3.994        C  190 1.010    C  189 1.010    C  187 0.993    H  195 0.964
   189  C   3.996        C  188 1.010    H  196 0.986    H  197 0.985    H  198 0.982
   190  C   3.995        C  188 1.010    H  199 0.986    H  200 0.984    H  201 0.984
   191  H   0.948        N  183 0.888
   192  H   0.995        C  184 0.954
   193  H   0.997        C  187 0.968
   194  H   0.994        C  187 0.956
   195  H   0.998        C  188 0.964
   196  H   0.998        C  189 0.986
   197  H   0.998        C  189 0.985
   198  H   0.999        C  189 0.982
   199  H   0.998        C  190 0.986
   200  H   0.998        C  190 0.984
   201  H   0.998        C  190 0.984
   202  N   3.449        C  185 1.289    C  203 0.993    H  206 0.898    O  186 0.191
   203  C   3.969        N  202 0.993    H  207 0.962    H  208 0.958    C  204 0.948
   204  C   3.945        O  205 1.640    N  209 1.295    C  203 0.948
   205  O   1.960        C  204 1.640    N  209 0.194
   206  H   0.950        N  202 0.898
   207  H   0.995        C  203 0.962
   208  H   0.992        C  203 0.958
   209  N   3.450        C  204 1.295    C  210 0.985    H  216 0.888    O  205 0.194
   210  C   3.967        N  209 0.985    C  211 0.981    C  213 0.947    H  217 0.936
   211  C   3.900        O  212 1.887    C  210 0.981    H  260 0.956
   212  O   2.029        C  211 1.887
   213  C   3.954        C  215 1.001    O  214 0.994    H  218 0.954    C  210 0.947
   214  O   1.924        C  213 0.994    H  219 0.858
   215  C   3.987        C  213 1.001    H  222 0.983    H  220 0.982    H  221 0.963
   216  H   0.948        N  209 0.888
   217  H   0.992        C  210 0.936
   218  H   0.998        C  213 0.954
   219  H   0.873        O  214 0.858
   220  H   0.995        C  215 0.982
   221  H   0.994        C  215 0.963
   222  H   0.998        C  215 0.983
   223  N   2.998        C  224 1.020    H  261 0.955    H  232 0.952
   224  C   3.984        N  223 1.020    C  225 0.979    C  227 0.960    H  233 0.943
   225  C   3.889        O  226 1.887    C  224 0.979    H  262 0.953
   226  O   2.026        C  225 1.887
   227  C   3.994        C  228 0.996    H  235 0.973    H  234 0.970    C  224 0.960
   228  C   3.995        C  227 0.996    C  229 0.968    H  237 0.967    H  236 0.953
   229  C   3.944        O  230 1.639    N  231 1.311    C  228 0.968
   230  O   1.951        C  229 1.639    N  231 0.202
   231  N   3.408        C  229 1.311    H  238 0.933    H  239 0.918    O  230 0.202
   232  H   0.971        N  223 0.952
   233  H   0.994        C  224 0.943
   234  H   0.996        C  227 0.970
   235  H   0.998        C  227 0.973
   236  H   0.994        C  228 0.953
   237  H   0.996        C  228 0.967
   238  H   0.954        N  231 0.933
   239  H   0.950        N  231 0.918
   240  N   2.998        C  241 1.020    H  263 0.956    H  248 0.953
   241  C   3.986        N  240 1.020    C  242 0.982    C  244 0.958    H  249 0.944
   242  C   3.892        O  243 1.879    C  241 0.982    H  264 0.954
   243  O   2.021        C  242 1.879
   244  C   3.991        C  245 0.990    H  250 0.973    H  251 0.972    C  241 0.958
   245  C   3.995        C  247 1.011    C  246 1.005    C  244 0.990    H  252 0.967
   246  C   3.994        C  245 1.005    H  254 0.986    H  255 0.984    H  253 0.982
   247  C   3.995        C  245 1.011    H  256 0.985    H  257 0.982    H  258 0.981
   248  H   0.973        N  240 0.953
   249  H   0.997        C  241 0.944
   250  H   0.998        C  244 0.973
   251  H   0.998        C  244 0.972
   252  H   0.999        C  245 0.967
   253  H   0.997        C  246 0.982
   254  H   0.999        C  246 0.986
   255  H   0.998        C  246 0.984
   256  H   0.998        C  247 0.985
   257  H   0.997        C  247 0.982
   258  H   0.999        C  247 0.981
   259  H   0.966        N    1 0.954
   260  H   0.995        C  211 0.956
   261  H   0.966        N  223 0.955
   262  H   0.994        C  225 0.953
   263  H   0.967        N  240 0.956
   264  H   0.994        C  242 0.954
 
molecular dipole:
                 x           y           z       tot (Debye)
 q only:      188.167     100.217     354.932
   full:      185.670      99.428     357.501    1054.667
molecular quadrupole (traceless):
                xx          xy          yy          xz          yz          zz
 q only:   -32217.767   27955.855  -70786.988  100467.150   53928.533  103004.754
  q+dip:   -33948.371   27289.799  -71365.320   99973.289   53972.352  105313.690
   full:   -33944.444   27288.146  -71365.026   99975.258   53974.122  105309.469


           -------------------------------------------------
          | TOTAL ENERGY             -412.631040668986 Eh   |
          | GRADIENT NORM               0.387454928998 Eh/α |
          | HOMO-LUMO GAP               2.192046637221 eV   |
           -------------------------------------------------

------------------------------------------------------------------------
 * finished run on 2019/05/31 at 05:35:16.791     
------------------------------------------------------------------------
 total:
 * wall-time:     0 d,  0 h,  0 min,  2.454 sec
 *  cpu-time:     0 d,  0 h,  0 min,  4.442 sec
 * ratio c/w:     1.810 speedup
 SCF:
 * wall-time:     0 d,  0 h,  0 min,  1.940 sec
 *  cpu-time:     0 d,  0 h,  0 min,  3.881 sec
 * ratio c/w:     2.000 speedup

