      -----------------------------------------------------------      
     |                   =====================                   |     
     |                           x T B                           |     
     |                   =====================                   |     
     |                         S. Grimme                         |     
     |          Mulliken Center for Theoretical Chemistry        |     
     |                    University of Bonn                     |     
     |                 Version 6.0.1 (SAW181210)                 |     
      -----------------------------------------------------------      

   This program is distributed in the hope that it will be useful,
   but WITHOUT ANY WARRANTY; without even the implied warranty of
   MERCHANTABILITY or FITNESS FOR A PARTICULAR PURPOSE.
   
   FOR NON-COMMERCIAL, ACADEMIA USE ONLY.
   
   Cite this work as:
   S. Grimme, C. Bannwarth, P. Shushkov, J. Comput. Theory Chem., 2017,
   13, 1989-2009.
   C. Bannwarth, S. Ehlert and S. Grimme., ChemRxiv, 2018, preprint.
   http://doi.org/10.26434/chemrxiv.7246238.v1
   
   for sTDA-xTB:
   S. Grimme and C. Bannwarth, J. Chem. Phys., 2016, 145, 054103.
   
   in the mass-spec context:
   V. Asgeirsson, C. Bauer and S. Grimme, Chem. Sci., 2017, 8, 4879.
   
   if GBSA is used:
   P. Shushkov, F. März and S. Grimme, unpublished.
   
   for ANC optimizer:
   S. Grimme, unpublished.
   Rational Function algorithm used in ANCopt:
   F. Eckert, P. Pulay, H.-J. Werner, J. Comput. Chem., 1997, 18, 1473.
   
   with help from (in alphabetical order)
   C. Bannwarth, F. Bohle, G. Brandenburg, E. Caldeweyher, M. Checinski,
   S. Dohm, S. Ehlert, S. Ehrlich, F. März, H. Neugebauer, J. Pisarek,
   P. Pracht, P. Shushkov, and S. Spicher.
   
 * started run on 2019/03/14 at 15:07:36.225     
========================================================================
 # omp threads = 1
========================================================================
number of atoms            : 275
number of electrons        : 752
charge                     : -1
spin                       : .0
first test random number   : .5917
           ------------------------------------------------- 
          |                 G F N 2 - x T B                 |
          | Geometry, Frequencies, Noncovalent interactions |
          |            JCTC 2018 parametrisation            |
           ------------------------------------------------- 
 
      method parameters     
 k(s)        :  1.8500
 k(p)        :  2.2300
 k(d)        :  2.2300
 k(f)        :  2.0000
 kEN (H0ij)  : -2.0000
 D4 a1       :  0.5200
 D4 a2       :  5.0000
 D4 s6       :  1.0000
 D4 s8       :  2.7000
 D4 s9       :  5.0000
 alphaj      :  2.0000

 Solvent             : h2o
 Using internal parameter file: .param_gbsa2_h2o
 Gsolv ref. state (COSMO-RS): gsolv [1 M gas/solution]
 temperature (mdtemp)       :    298.150000000000     
 dielectric constant        :    80.2000000000000     
 rho                        :    1.00000000000000     
 mass                       :    18.0000000000000     
 surface tension            :    15.5689454083859     
 probe radius               :   0.975313790000000     
 vdW radii scaling          :    1.00000000000000     
 Gshift (Eh)                :   1.857443126794793E-003
 c1                         :    1.55243817000000     
 soset                      :   0.130326360000000     
 HB correction              :  T

            Z     q(EN)     CN     RAES       Cart. coordinates
     1  N   5.0   -0.22    3.20    1.96    75.41668   101.76423    21.05732
     2  C   4.0    0.03    4.21    4.02    76.61794    99.33138    20.66169
     3  C   4.0    0.07    3.21    3.04    77.11030    97.96581    23.15133
     4  O   6.0   -0.30    1.12    1.80    77.09507    95.65820    23.29106
     5  C   4.0   -0.04    4.28    4.16    79.07670    99.77060    19.19618
     6  C   4.0   -0.02    4.17    3.94    80.35364    97.35473    18.32306
     7  C   4.0    0.25    3.08    3.02    82.67414    97.85593    16.55253
     8  O   6.0   -0.29    1.18    1.80    83.21075   100.08968    16.03919
     9  O   6.0   -0.28    1.16    1.80    83.79195    95.92776    15.78368
    10  H   1.0    0.08    1.03    1.43    76.07061   103.19994    19.98648
    11  H   1.0    0.05    1.05    1.44    75.35988    98.09144    19.56693
    12  H   1.0    0.05    1.03    1.43    78.63212   100.87927    17.51138
    13  H   1.0    0.05    1.02    1.43    80.39440   100.88379    20.33093
    14  H   1.0    0.06    1.02    1.43    81.02225    96.22059    19.90931
    15  H   1.0    0.05    1.03    1.43    79.02759    96.20076    17.24244
    16  N   5.0   -0.21    3.23    1.96    73.79467    96.86844    28.24398
    17  C   4.0    0.03    4.30    4.20    71.71345    96.29292    29.93512
    18  C   4.0    0.15    3.40    3.08    72.27681    94.02399    31.64407
    19  O   6.0   -0.30    1.23    1.80    71.27128    93.89546    33.72004
    20  C   4.0   -0.04    4.33    4.25    69.25405    95.82513    28.48052
    21  C   4.0   -0.05    4.04    3.69    68.20566    98.25583    27.33753
    22  S   6.0   -0.05    2.46    3.10    66.16771    97.53614    24.58977
    23  C   4.0   -0.07    3.88    3.43    66.80175   100.26196    22.62816
    24  H   1.0    0.09    1.03    1.43    73.41672    96.99493    26.37766
    25  H   1.0    0.05    1.05    1.44    71.47821    97.88263    31.25522
    26  H   1.0    0.04    1.05    1.44    69.59727    94.48189    26.95640
    27  H   1.0    0.05    1.03    1.43    67.86339    94.99098    29.75034
    28  H   1.0    0.04    1.06    1.44    67.06127    99.30268    28.69256
    29  H   1.0    0.04    1.07    1.44    69.73393    99.42351    26.62488
    30  H   1.0    0.04    1.05    1.44    65.52994   100.11280    21.02311
    31  H   1.0    0.04    1.03    1.43    66.40056   101.99828    23.65051
    32  H   1.0    0.04    1.04    1.43    68.75653   100.21969    22.00953
    33  N   5.0   -0.15    3.44    2.04    73.87931    92.25257    30.78184
    34  C   4.0    0.04    4.36    4.30    74.48256    90.05673    32.31763
    35  C   4.0    0.10    3.22    3.04    76.45220    90.78923    34.32113
    36  O   6.0   -0.27    1.11    1.80    76.26975    90.19575    36.53449
    37  C   4.0    0.05    4.18    3.97    75.27113    87.71601    30.74298
    38  O   6.0   -0.24    2.14    1.84    75.97405    85.86965    32.53160
    39  C   4.0   -0.07    4.06    3.73    77.40219    88.20561    28.85827
    40  H   1.0    0.08    1.07    1.44    74.49084    92.29815    28.97396
    41  H   1.0    0.07    1.06    1.44    72.79890    89.54783    33.42139
    42  H   1.0    0.04    1.03    1.43    73.58245    87.07103    29.69887
    43  H   1.0    0.12    1.03    1.43    76.95994    84.57169    31.71141
    44  H   1.0    0.05    1.00    1.43    77.77558    86.50212    27.76317
    45  H   1.0    0.05    1.00    1.43    76.90793    89.65290    27.48950
    46  H   1.0    0.05    1.00    1.43    79.12450    88.71623    29.85403
    47  N   5.0   -0.22    3.23    1.96    58.03157    96.63364    30.43926
    48  C   4.0    0.03    4.26    4.12    57.62924    94.21723    29.31111
    49  C   4.0    0.08    3.18    3.03    56.10044    94.46703    26.83987
    50  O   6.0   -0.29    1.14    1.80    56.49986    93.04801    25.05458
    51  C   4.0   -0.04    4.26    4.12    56.39025    92.40473    31.23215
    52  C   4.0    0.00    3.71    3.25    58.29362    91.10769    32.84892
    53  N   5.0   -0.12    3.53    2.10    59.63265    92.14264    34.80133
    54  C   4.0    0.02    3.75    3.28    59.13214    88.66933    32.70292
    55  C   4.0    0.06    3.64    3.19    61.12274    90.30684    35.76203
    56  N   5.0   -0.20    2.47    1.90    60.87517    88.18981    34.52163
    57  H   1.0    0.08    1.03    1.43    56.97973    97.07072    31.96728
    58  H   1.0    0.04    1.07    1.44    59.55177    93.59719    28.80575
    59  H   1.0    0.04    1.03    1.43    55.07089    93.50520    32.37024
    60  H   1.0    0.06    1.03    1.43    55.29758    90.95293    30.25574
    61  H   1.0    0.07    1.05    1.44    59.46854    93.96500    35.34070
    62  H   1.0    0.04    1.04    1.43    58.55980    87.23105    31.41688
    63  H   1.0    0.04    1.02    1.43    62.31502    90.55433    37.37842
    64  N   5.0   -0.22    3.17    1.95    50.48134    83.14037    33.97919
    65  C   4.0    0.03    4.18    3.97    52.76885    83.66335    32.55980
    66  C   4.0    0.07    3.20    3.04    53.05855    81.77881    30.39531
    67  O   6.0   -0.30    1.34    1.80    53.28099    82.58902    28.22951
    68  C   4.0   -0.05    4.31    4.22    55.16499    84.05850    34.17682
    69  C   4.0   -0.03    4.15    3.90    56.84282    81.92309    35.19886
    70  C   4.0   -0.08    4.11    3.82    58.59662    80.73906    33.24754
    71  C   4.0   -0.08    4.14    3.88    58.50819    83.08917    37.25808
    72  H   1.0    0.08    1.02    1.43    50.80649    82.75251    35.85309
    73  H   1.0    0.05    1.06    1.44    52.51690    85.51236    31.63787
    74  H   1.0    0.04    1.06    1.44    56.38583    85.22025    33.01604
    75  H   1.0    0.04    1.04    1.43    54.59553    85.22539    35.77836
    76  H   1.0    0.04    1.06    1.44    55.69413    80.42366    35.99233
    77  H   1.0    0.04    1.00    1.43    59.46463    79.07801    34.09386
    78  H   1.0    0.04    1.00    1.43    57.59391    80.12749    31.57070
    79  H   1.0    0.04    1.00    1.43    60.06510    82.07125    32.71831
    80  H   1.0    0.04    1.00    1.43    59.87984    81.71859    37.93786
    81  H   1.0    0.05    1.02    1.43    59.51629    84.68265    36.44091
    82  H   1.0    0.04    1.00    1.43    57.39539    83.74523    38.85661
    83  N   5.0   -0.20    3.29    1.98    49.33443    83.40272    25.44869
    84  C   4.0    0.03    4.33    4.25    50.29648    85.92307    24.99737
    85  C   4.0    0.17    3.48    3.11    53.20464    85.98819    25.15192
    86  O   6.0   -0.30    1.26    1.80    54.36829    87.58089    26.36038
    87  C   4.0   -0.03    4.28    4.17    49.09504    87.74004    26.90514
    88  C   4.0   -0.04    4.25    4.09    46.21832    87.67041    26.72719
    89  C   4.0    0.15    3.20    3.04    44.88238    89.47671    28.52226
    90  O   6.0   -0.30    1.20    1.80    45.92879    90.80523    30.07721
    91  N   5.0   -0.19    3.19    1.95    42.34714    89.47024    28.25258
    92  H   1.0    0.10    1.05    1.44    49.37273    82.86700    27.28954
    93  H   1.0    0.04    1.05    1.44    49.78958    86.43981    23.05347
    94  H   1.0    0.06    1.03    1.43    49.66837    87.17185    28.80149
    95  H   1.0    0.06    1.03    1.43    49.79856    89.64683    26.57123
    96  H   1.0    0.04    1.03    1.43    45.63436    88.11114    24.79977
    97  H   1.0    0.04    1.03    1.43    45.56805    85.76042    27.16431
    98  H   1.0    0.07    1.03    1.43    41.48909    88.37429    26.96158
    99  H   1.0    0.09    1.03    1.43    41.29862    90.62315    29.34266
   100  N   5.0   -0.13    3.44    2.04    54.36593    84.30832    23.62372
   101  C   4.0    0.04    4.37    4.33    57.05948    83.92261    23.86588
   102  C   4.0    0.15    3.42    3.08    58.55918    83.32169    21.45479
   103  O   6.0   -0.28    1.22    1.80    58.26987    81.45473    20.14731
   104  C   4.0   -0.05    4.17    3.94    57.78216    81.80805    25.68703
   105  H   1.0    0.09    1.07    1.44    53.33222    82.87380    22.91265
   106  H   1.0    0.05    1.10    1.44    57.73215    85.70427    24.63114
   107  H   1.0    0.05    1.03    1.43    59.77838    81.47030    25.46404
   108  H   1.0    0.06    1.01    1.43    57.35321    82.31759    27.62569
   109  H   1.0    0.06    1.00    1.43    56.74381    80.11230    25.19591
   110  N   5.0   -0.14    3.38    2.01    60.53387    84.92843    21.13760
   111  C   4.0    0.01    4.25    4.10    62.47879    84.49474    19.26560
   112  C   4.0    0.16    3.37    3.07    63.85156    82.00580    19.76994
   113  O   6.0   -0.30    1.33    1.80    63.84089    80.95144    21.81783
   114  H   1.0    0.07    1.06    1.44    60.46737    86.67037    21.89810
   115  H   1.0    0.05    1.03    1.43    61.67216    84.41605    17.36562
   116  H   1.0    0.03    1.03    1.43    63.85047    86.03343    19.37183
   117  N   5.0   -0.15    3.38    2.01    65.21703    81.18736    17.78797
   118  C   4.0    0.01    4.25    4.10    66.39024    78.71381    17.79904
   119  C   4.0    0.16    3.39    3.08    68.06691    78.33446    20.10659
   120  O   6.0   -0.30    1.23    1.80    68.13713    76.34132    21.26554
   121  H   1.0    0.07    1.06    1.44    64.98398    82.02016    16.08945
   122  H   1.0    0.06    1.02    1.43    64.96470    77.20946    17.82944
   123  H   1.0    0.04    1.03    1.43    67.56411    78.51797    16.11549
   124  N   5.0   -0.14    3.51    2.09    69.45258    80.36213    20.78357
   125  C   4.0    0.03    4.42    4.41    71.27763    80.20011    22.81705
   126  C   4.0    0.15    3.49    3.11    70.03579    80.16816    25.40958
   127  O   6.0   -0.33    1.32    1.80    71.32979    80.17411    27.34179
   128  C   4.0   -0.03    4.29    4.19    73.21752    82.34325    22.70478
   129  C   4.0   -0.03    4.24    4.09    72.10951    84.89231    23.49828
   130  C   4.0    0.15    3.21    3.04    73.97220    87.04311    23.03071
   131  O   6.0   -0.29    1.21    1.80    76.08146    86.73160    22.15973
   132  N   5.0   -0.19    3.18    1.95    73.08014    89.33819    23.66807
   133  H   1.0    0.08    1.07    1.44    69.51113    81.91951    19.68345
   134  H   1.0    0.05    1.06    1.44    72.24788    78.36901    22.65986
   135  H   1.0    0.05    1.03    1.43    74.77171    81.88126    23.97569
   136  H   1.0    0.05    1.03    1.43    73.98435    82.46512    20.79780
   137  H   1.0    0.04    1.03    1.43    70.37726    85.28525    22.45539
   138  H   1.0    0.05    1.03    1.43    71.66716    84.84986    25.51331
   139  H   1.0    0.08    1.03    1.43    71.34395    89.56446    24.41127
   140  H   1.0    0.10    1.03    1.43    74.19311    90.85997    23.39826
   141  N   5.0   -0.14    3.55    2.12    67.52713    80.13846    25.49160
   142  C   4.0    0.03    4.50    4.53    66.33655    80.13548    27.93078
   143  C   4.0    0.15    3.55    3.14    65.94389    77.53272    29.03491
   144  O   6.0   -0.33    1.38    1.80    65.59437    77.28162    31.31216
   145  C   4.0   -0.05    4.33    4.25    63.74983    81.37225    27.86408
   146  C   4.0   -0.05    4.19    3.98    63.88250    84.14290    27.04389
   147  C   4.0   -0.05    4.21    4.02    62.26720    85.76958    28.78416
   148  C   4.0   -0.04    4.13    3.85    62.21857    88.55047    28.00467
   149  N   5.0   -0.11    4.06    3.03    59.73927    89.19428    26.83305
   150  H   1.0    0.12    1.13    1.45    66.38388    80.16198    23.94620
   151  H   1.0    0.05    1.09    1.44    67.66691    81.13171    29.16493
   152  H   1.0    0.05    1.04    1.43    62.62668    80.21404    26.58679
   153  H   1.0    0.04    1.04    1.43    62.92818    81.20263    29.74587
   154  H   1.0    0.04    1.03    1.43    65.84347    84.75396    27.12548
   155  H   1.0    0.05    1.03    1.43    63.20004    84.33294    25.11428
   156  H   1.0    0.04    1.04    1.43    60.37655    84.95711    28.75162
   157  H   1.0    0.04    1.03    1.43    62.94104    85.63011    30.72207
   158  H   1.0    0.04    1.03    1.43    62.51540    89.75301    29.65097
   159  H   1.0    0.04    1.02    1.43    63.72219    88.95666    26.66191
   160  H   1.0    0.07    1.08    1.44    59.02161    90.88358    27.47157
   161  H   1.0    0.07    1.02    1.43    59.83554    89.40697    24.90974
   162  H   1.0    0.07    1.04    1.43    58.32965    87.90075    27.27101
   163  N   5.0   -0.14    3.57    2.13    65.96310    75.54066    27.47657
   164  C   4.0    0.04    4.55    4.60    66.09242    73.09825    28.69711
   165  C   4.0    0.16    3.52    3.13    68.42041    73.14468    30.43659
   166  O   6.0   -0.32    1.30    1.80    68.37659    72.14309    32.51674
   167  C   4.0   -0.04    4.08    3.76    66.15742    70.89859    26.85869
   168  S   6.0   -0.04    2.33    3.10    63.30464    71.00759    24.86578
   169  H   1.0    0.10    1.07    1.44    66.09401    75.66990    25.57449
   170  H   1.0    0.06    1.06    1.44    64.44022    72.85546    29.93488
   171  H   1.0    0.05    1.06    1.44    67.80818    70.93525    25.62687
   172  H   1.0    0.06    1.07    1.44    66.08398    69.12125    27.89532
   173  H   1.0    0.06    0.98    1.43    63.75351    68.83550    23.71129
   174  N   5.0   -0.14    3.51    2.09    70.46024    74.37467    29.56492
   175  C   4.0    0.04    4.48    4.51    72.70497    74.45449    31.12233
   176  C   4.0    0.18    3.52    3.12    72.33071    76.21336    33.38877
   177  O   6.0   -0.29    1.33    1.80    72.43989    75.40165    35.55405
   178  C   4.0    0.05    4.17    3.95    75.23432    74.87455    29.69563
   179  O   6.0   -0.25    2.15    1.85    76.74090    76.40743    31.29422
   180  C   4.0   -0.07    4.07    3.74    75.00866    75.93764    27.01641
   181  H   1.0    0.09    1.07    1.44    70.46536    75.33207    27.91853
   182  H   1.0    0.06    1.09    1.44    72.74498    72.61501    32.05055
   183  H   1.0    0.04    1.04    1.43    76.13041    73.00876    29.56545
   184  H   1.0    0.12    1.02    1.43    78.26544    76.87618    30.41069
   185  H   1.0    0.04    1.00    1.43    76.87102    76.10778    26.15616
   186  H   1.0    0.04    1.00    1.43    73.91748    74.66183    25.83379
   187  H   1.0    0.07    1.03    1.43    74.15142    77.80129    27.01575
   188  N   5.0   -0.13    3.52    2.09    71.60803    78.54929    32.85344
   189  C   4.0    0.04    4.43    4.43    70.85362    80.26403    34.85067
   190  C   4.0    0.16    3.58    3.15    69.40285    78.86377    36.90365
   191  O   6.0   -0.28    1.25    1.80    69.84980    79.19380    39.16655
   192  C   4.0   -0.05    4.41    4.40    69.16010    82.22969    33.58451
   193  C   4.0   -0.02    4.18    3.97    68.02413    84.22068    35.33115
   194  C   4.0   -0.07    4.10    3.81    67.40330    86.58724    33.79829
   195  C   4.0   -0.07    4.11    3.83    65.71744    83.19651    36.74579
   196  H   1.0    0.10    1.08    1.44    71.67386    79.22866    31.05864
   197  H   1.0    0.06    1.04    1.44    72.51503    81.12479    35.75410
   198  H   1.0    0.05    1.04    1.43    70.33928    83.15956    32.17111
   199  H   1.0    0.05    1.05    1.44    67.62531    81.19074    32.68804
   200  H   1.0    0.05    1.06    1.44    69.47646    84.70863    36.70400
   201  H   1.0    0.05    1.00    1.43    66.36521    87.93615    34.94096
   202  H   1.0    0.05    1.00    1.43    69.14596    87.47239    33.16433
   203  H   1.0    0.04    1.01    1.43    66.27035    86.09950    32.16664
   204  H   1.0    0.04    1.00    1.43    64.54157    84.71827    37.45965
   205  H   1.0    0.04    1.00    1.43    64.56906    81.99254    35.54241
   206  H   1.0    0.06    1.01    1.43    66.32065    82.09832    38.36929
   207  N   5.0   -0.14    3.55    2.12    67.49258    77.40401    36.16094
   208  C   4.0    0.04    4.42    4.41    65.69991    76.45543    37.99200
   209  C   4.0    0.17    3.49    3.11    66.94336    74.76580    39.95011
   210  O   6.0   -0.28    1.24    1.80    66.25503    74.82895    42.16422
   211  C   4.0    0.03    4.16    3.92    63.58307    75.02350    36.61265
   212  O   6.0   -0.25    2.06    1.83    64.30141    72.66398    35.68570
   213  H   1.0    0.12    1.12    1.45    66.99355    77.25140    34.31213
   214  H   1.0    0.05    1.05    1.44    64.89704    78.03422    39.08047
   215  H   1.0    0.05    1.02    1.43    62.07228    74.64677    37.95743
   216  H   1.0    0.05    1.01    1.43    62.88109    76.24273    35.08748
   217  H   1.0    0.16    1.07    1.44    65.65410    72.83528    34.44631
   218  N   5.0   -0.13    3.52    2.09    68.75018    73.24299    39.11136
   219  C   4.0    0.04    4.44    4.45    70.29771    71.78034    40.81961
   220  C   4.0    0.10    3.33    3.06    71.50189    73.45991    42.81005
   221  O   6.0   -0.28    1.12    1.80    71.61392    72.80296    45.02626
   222  C   4.0   -0.02    4.41    4.40    72.47018    70.62573    39.32938
   223  C   4.0   -0.04    4.21    4.03    71.56829    68.87839    37.22672
   224  C   4.0   -0.07    4.16    3.91    74.38786    69.34397    41.05879
   225  C   4.0   -0.07    4.05    3.70    70.44320    66.43952    38.19986
   226  H   1.0    0.11    1.09    1.44    69.36150    73.36630    37.30259
   227  H   1.0    0.06    1.05    1.44    69.16831    70.35424    41.79673
   228  H   1.0    0.06    1.08    1.44    73.35087    72.27137    38.47012
   229  H   1.0    0.06    1.03    1.43    70.21861    69.86044    36.01825
   230  H   1.0    0.04    1.04    1.43    73.21316    68.38483    36.11976
   231  H   1.0    0.04    1.00    1.43    75.66614    68.18830    39.94897
   232  H   1.0    0.05    1.00    1.43    75.51136    70.73548    42.06957
   233  H   1.0    0.05    1.00    1.43    73.44259    68.16779    42.44834
   234  H   1.0    0.05    1.00    1.43    69.81077    65.32468    36.60473
   235  H   1.0    0.04    1.00    1.43    71.86421    65.39859    39.25178
   236  H   1.0    0.05    1.00    1.43    68.84279    66.81537    39.42425
   237  N   5.0   -0.22    3.18    1.95    58.26907    61.78850    31.35216
   238  C   4.0    0.03    4.18    3.96    59.81666    63.49668    29.87604
   239  C   4.0    0.10    3.23    3.04    62.19468    62.20884    28.76173
   240  O   6.0   -0.27    1.12    1.80    63.62742    63.32536    27.34511
   241  C   4.0    0.04    4.16    3.93    60.73049    65.72500    31.50147
   242  O   6.0   -0.24    2.08    1.84    63.02335    65.11473    32.71291
   243  H   1.0    0.08    1.03    1.43    58.24514    62.13267    33.25241
   244  H   1.0    0.04    1.05    1.44    58.69572    64.25865    28.30728
   245  H   1.0    0.04    1.01    1.43    61.00076    67.35558    30.25600
   246  H   1.0    0.04    1.01    1.43    59.26581    66.13846    32.90620
   247  H   1.0    0.12    1.02    1.43    63.72558    66.66512    33.37705
   248  N   5.0   -0.19    3.23    1.96    58.70953    57.64007    23.81965
   249  C   4.0    0.03    4.32    4.23    58.59782    59.66812    22.00839
   250  C   4.0    0.25    3.22    3.04    61.30684    60.20882    20.88111
   251  O   6.0   -0.29    1.16    1.80    61.39292    60.46890    18.54638
   252  C   4.0    0.06    4.27    4.15    57.73373    62.05719    23.39917
   253  O   6.0   -0.26    2.10    1.84    55.19895    61.94292    24.20619
   254  C   4.0   -0.06    4.11    3.81    58.08325    64.44858    21.84837
   255  O   6.0   -0.27    1.18    1.80    63.05600    60.41571    22.42555
   256  H   1.0    0.08    1.03    1.43    58.64614    58.17402    25.66230
   257  H   1.0    0.05    1.04    1.43    57.36831    59.12177    20.43679
   258  H   1.0    0.05    1.05    1.44    59.01686    62.18604    25.03316
   259  H   1.0    0.11    1.02    1.43    55.11299    60.70609    25.56248
   260  H   1.0    0.05    1.00    1.43    57.65147    66.07880    23.02051
   261  H   1.0    0.06    1.02    1.43    60.03583    64.54405    21.22988
   262  H   1.0    0.05    1.00    1.43    56.84900    64.41498    20.21186
   263  H   1.0    0.09    1.07    1.44    73.75503   101.63896    20.71704
   264  H   1.0    0.05    1.05    1.44    77.45642    98.95894    24.72135
   265  H   1.0    0.09    1.07    1.44    74.46789    98.37283    28.66369
   266  H   1.0    0.06    1.05    1.44    77.97059    91.80036    33.82801
   267  H   1.0    0.09    1.08    1.44    59.64820    96.75847    30.95257
   268  H   1.0    0.05    1.04    1.43    54.76767    95.79760    26.68371
   269  H   1.0    0.09    1.07    1.44    49.44919    84.49035    33.91008
   270  H   1.0    0.05    1.04    1.43    53.06493    79.92318    30.75261
   271  H   1.0    0.08    1.08    1.44    47.71531    83.31281    24.93591
   272  H   1.0    0.07    1.05    1.44    72.22222    75.13713    42.32104
   273  H   1.0    0.09    1.07    1.44    56.65535    61.88409    30.82364
   274  H   1.0    0.06    1.05    1.44    62.58964    60.41344    29.19946
   275  H   1.0    0.09    1.07    1.44    57.39279    56.59084    23.57905

  Z AO/shell   Hii/eV     exponent
  1     Wed Apr 25 08:07:45 CEST 2018   EN: 2.200 GM2: 0.406  GM3: 0.0800  RAES: 1.40
     1s    -10.707211    1.230000
  6     Wed Apr 25 08:07:45 CEST 2018   EN: 2.550 GM2: 0.538  GM3: 0.1500  RAES: 3.00
     2s    -13.970922    2.096432
     2p    -10.063292    1.800000
  7     Wed Apr 25 08:07:45 CEST 2018   EN: 3.040 GM2: 0.461  GM3:-0.0640  RAES: 1.90
     2s    -16.686243    2.339881
     2p    -12.523956    2.014332
  8     Wed Apr 25 08:07:45 CEST 2018   EN: 3.440 GM2: 0.452  GM3:-0.0517  RAES: 1.80
     2s    -20.229985    2.439742
     2p    -15.503117    2.137023
 16     Tue Apr 24 11:44:34 CEST 2018   EN: 2.580 GM2: 0.340  GM3:-0.0502  RAES: 3.10
     3s    -20.029654    1.981333
     3p    -11.377694    2.025643
     3d     -0.420282    1.702555
 no old-style atom pair restraining (fixing) potential

molecular fragmentation (1/2 indicates fragments):
111111111111111222222222222222222222222222222222222222222222222222222222
222222222222222222222222222222222222222222222222222222222222222222222222
222222222222222222222222222222222222222222222222222222222222222222222222
22222222222222222222222222222222222222222222221122222222222
# atoms in fragment 1/2:    17   258
 fragment masses (1/2) :      130.12     1786.13
CMA distance (Bohr)    :  25.463
constraining FC (au)   :  0.0500
           ------------------------------------------------- 
          |        Self-Consistent Charge Iterations        |
           ------------------------------------------------- 

 Ncao       : 680
 Nao        : 678
 Nshell     : 408
 Nel        : 752
 T(el)      :   500.0
 intcut     :    35.0
 scfconv/Eh :  0.100E-06
   qconv/e  :  0.100E-04
 intneglect :  0.100E-08
 broydamp   :      0.400
 iter      E             dE          RMSdq      gap      omega  full diag
   1   -432.0783272 -0.432078E+03  0.480E+00    3.01       0.0  T
   2   -433.1825810 -0.110425E+01  0.223E+00    1.73       1.0  T
   3   -433.2517999 -0.692189E-01  0.126E+00    1.55       1.0  T
   4   -433.3224866 -0.706867E-01  0.287E-01    0.74       1.0  T
   5   -433.3265744 -0.408772E-02  0.150E-01    0.90       1.0  T
   6   -433.3274391 -0.864725E-03  0.687E-02    0.94       1.0  T
   7   -433.3277468 -0.307730E-03  0.337E-02    0.97       1.0  T
   8   -433.3278028 -0.560122E-04  0.161E-02    1.00       1.0  T
   9   -433.3278201 -0.172775E-04  0.708E-03    1.01       1.0  T
  10   -433.3278224 -0.226151E-05  0.320E-03    1.02       1.9  T
  11   -433.3278228 -0.389354E-06  0.128E-03    1.02       4.7  T
  12   -433.3278228 -0.576258E-07  0.595E-04    1.02      10.1  T
  13   -433.3278228 -0.157397E-07  0.273E-04    1.02      22.1  T
  14   -433.3278228 -0.195956E-08  0.110E-04    1.02      54.8  T
  15   -433.3278228 -0.585430E-09  0.488E-05    1.02     123.5  T
  16   -433.3278228 -0.684963E-10  0.206E-05    1.02     292.7  T
speedup  1.00
cpu  time for SCC    2.66 s
wall time for SCC    2.67 s

   *** convergence criteria satisfied after 16 iterations ***

          eigenvalues
 #    :         364        365        366        367        368        369        370        371
 occ. :        2.000      2.000      2.000      2.000      2.000      2.000      2.000      2.000
 eps  :       -10.382    -10.317    -10.248    -10.188    -10.167    -10.138    -10.096    -10.084
 #    :         372        373        374        375        376        377        378        379
 occ. :        2.000      2.000      2.000      2.000      2.000      0.000      0.000      0.000
 eps  :       -10.026     -9.984     -9.757     -9.622     -8.992     -7.976     -7.839     -7.668
 #    :         380        381        382        383        384        385        386        387
 occ. :        0.000      0.000      0.000      0.000      0.000      0.000      0.000      0.000
 eps  :        -7.645     -7.471     -7.466     -6.865     -6.506     -6.484     -6.403     -6.325


   #   Z            q   n(s)   n(p)   n(d)      C6AA      α(0)
   1   7 N     -0.388  1.311  4.077  0.000    30.048     8.141
   2   6 C      0.041  1.056  2.902  0.000    19.900     6.355
   3   6 C      0.196  1.090  2.713  0.000    23.810     7.991
   4   8 O     -0.370  1.749  4.621  0.000    21.090     6.157
   5   6 C     -0.043  1.053  2.990  0.000    21.337     6.576
   6   6 C     -0.092  1.065  3.027  0.000    22.254     6.717
   7   6 C      0.370  1.026  2.604  0.000    20.728     7.450
   8   8 O     -0.646  1.772  4.874  0.000    27.275     7.002
   9   8 O     -0.659  1.777  4.881  0.000    27.608     7.045
  10   1 H      0.163  0.837  0.000  0.000     1.314     1.796
  11   1 H      0.045  0.955  0.000  0.000     2.379     2.412
  12   1 H      0.044  0.956  0.000  0.000     2.391     2.418
  13   1 H      0.036  0.964  0.000  0.000     2.509     2.477
  14   1 H      0.016  0.984  0.000  0.000     2.796     2.615
  15   1 H      0.025  0.975  0.000  0.000     2.666     2.553
  16   7 N     -0.384  1.308  4.075  0.000    29.920     8.124
  17   6 C      0.029  1.059  2.912  0.000    20.100     6.386
  18   6 C      0.268  1.048  2.684  0.000    22.477     7.764
  19   8 O     -0.491  1.752  4.739  0.000    23.583     6.511
  20   6 C     -0.077  1.057  3.021  0.000    21.951     6.666
  21   6 C     -0.014  1.070  2.943  0.000    20.829     6.499
  22  16 S     -0.205  1.909  4.254  0.043   149.795    20.599
  23   6 C     -0.056  1.052  3.005  0.000    21.660     6.639
  24   1 H      0.155  0.845  0.000  0.000     1.366     1.831
  25   1 H      0.043  0.957  0.000  0.000     2.411     2.428
  26   1 H      0.072  0.928  0.000  0.000     2.063     2.246
  27   1 H      0.072  0.928  0.000  0.000     2.069     2.249
  28   1 H      0.053  0.947  0.000  0.000     2.288     2.365
  29   1 H      0.043  0.957  0.000  0.000     2.409     2.427
  30   1 H      0.067  0.933  0.000  0.000     2.121     2.277
  31   1 H      0.051  0.949  0.000  0.000     2.309     2.376
  32   1 H      0.040  0.960  0.000  0.000     2.451     2.448
  33   7 N     -0.170  1.240  3.930  0.000    24.680     7.378
  34   6 C      0.017  1.065  2.918  0.000    20.298     6.416
  35   6 C      0.214  1.080  2.705  0.000    23.465     7.933
  36   8 O     -0.359  1.758  4.600  0.000    20.873     6.125
  37   6 C      0.118  1.049  2.833  0.000    18.763     6.186
  38   8 O     -0.485  1.730  4.756  0.000    22.576     6.414
  39   6 C     -0.140  1.044  3.097  0.000    23.265     6.879
  40   1 H      0.218  0.782  0.000  0.000     1.020     1.582
  41   1 H      0.103  0.897  0.000  0.000     1.762     2.076
  42   1 H      0.049  0.951  0.000  0.000     2.328     2.386
  43   1 H      0.341  0.659  0.000  0.000     0.610     1.227
  44   1 H      0.063  0.937  0.000  0.000     2.165     2.301
  45   1 H      0.064  0.936  0.000  0.000     2.155     2.296
  46   1 H      0.057  0.943  0.000  0.000     2.234     2.337
  47   7 N     -0.384  1.308  4.076  0.000    29.935     8.126
  48   6 C      0.024  1.064  2.912  0.000    20.189     6.401
  49   6 C      0.190  1.097  2.713  0.000    23.937     8.012
  50   8 O     -0.356  1.750  4.607  0.000    20.826     6.119
  51   6 C     -0.091  1.055  3.036  0.000    22.230     6.712
  52   6 C      0.012  1.061  2.928  0.000    27.679     8.626
  53   7 N     -0.095  1.238  3.857  0.000    23.100     7.138
  54   6 C     -0.019  1.070  2.949  0.000    27.983     8.629
  55   6 C      0.087  1.061  2.852  0.000    25.754     8.295
  56   7 N     -0.269  1.480  3.788  0.000    27.822     7.821
  57   1 H      0.166  0.834  0.000  0.000     1.299     1.786
  58   1 H      0.079  0.921  0.000  0.000     1.992     2.207
  59   1 H      0.073  0.927  0.000  0.000     2.049     2.238
  60   1 H      0.078  0.922  0.000  0.000     1.998     2.210
  61   1 H      0.194  0.806  0.000  0.000     1.135     1.669
  62   1 H      0.058  0.942  0.000  0.000     2.225     2.332
  63   1 H      0.035  0.965  0.000  0.000     2.514     2.479
  64   7 N     -0.395  1.328  4.067  0.000    30.234     8.166
  65   6 C      0.037  1.058  2.905  0.000    19.972     6.367
  66   6 C      0.191  1.088  2.721  0.000    23.917     8.009
  67   8 O     -0.348  1.753  4.596  0.000    20.677     6.097
  68   6 C     -0.090  1.065  3.025  0.000    22.210     6.709
  69   6 C     -0.013  1.054  2.959  0.000    20.780     6.484
  70   6 C     -0.121  1.042  3.079  0.000    22.870     6.818
  71   6 C     -0.126  1.045  3.081  0.000    22.967     6.831
  72   1 H      0.162  0.838  0.000  0.000     1.321     1.801
  73   1 H      0.047  0.953  0.000  0.000     2.355     2.400
  74   1 H      0.071  0.929  0.000  0.000     2.077     2.254
  75   1 H      0.053  0.947  0.000  0.000     2.280     2.361
  76   1 H      0.025  0.975  0.000  0.000     2.664     2.553
  77   1 H      0.030  0.970  0.000  0.000     2.590     2.517
  78   1 H      0.036  0.964  0.000  0.000     2.505     2.475
  79   1 H      0.062  0.938  0.000  0.000     2.173     2.305
  80   1 H      0.031  0.969  0.000  0.000     2.567     2.505
  81   1 H      0.075  0.925  0.000  0.000     2.034     2.230
  82   1 H      0.027  0.973  0.000  0.000     2.633     2.538
  83   7 N     -0.382  1.317  4.066  0.000    29.889     8.120
  84   6 C      0.026  1.061  2.913  0.000    20.157     6.395
  85   6 C      0.279  1.053  2.667  0.000    22.270     7.728
  86   8 O     -0.478  1.722  4.755  0.000    23.296     6.471
  87   6 C     -0.057  1.046  3.011  0.000    21.599     6.616
  88   6 C     -0.099  1.058  3.041  0.000    22.384     6.735
  89   6 C      0.291  1.039  2.670  0.000    22.064     7.691
  90   8 O     -0.497  1.751  4.746  0.000    23.719     6.530
  91   7 N     -0.302  1.268  4.034  0.000    27.788     7.829
  92   1 H      0.152  0.848  0.000  0.000     1.390     1.847
  93   1 H      0.049  0.951  0.000  0.000     2.337     2.391
  94   1 H      0.045  0.955  0.000  0.000     2.383     2.414
  95   1 H      0.051  0.949  0.000  0.000     2.311     2.377
  96   1 H      0.063  0.937  0.000  0.000     2.161     2.299
  97   1 H      0.064  0.936  0.000  0.000     2.155     2.296
  98   1 H      0.223  0.777  0.000  0.000     0.995     1.562
  99   1 H      0.225  0.775  0.000  0.000     0.987     1.556
 100   7 N     -0.165  1.247  3.918  0.000    24.571     7.362
 101   6 C      0.005  1.058  2.936  0.000    20.491     6.445
 102   6 C      0.275  1.043  2.681  0.000    22.342     7.741
 103   8 O     -0.467  1.758  4.709  0.000    23.068     6.439
 104   6 C     -0.132  1.043  3.089  0.000    23.073     6.846
 105   1 H      0.205  0.795  0.000  0.000     1.080     1.628
 106   1 H      0.079  0.921  0.000  0.000     1.986     2.204
 107   1 H      0.081  0.919  0.000  0.000     1.970     2.195
 108   1 H      0.070  0.930  0.000  0.000     2.088     2.260
 109   1 H      0.057  0.943  0.000  0.000     2.232     2.336
 110   7 N     -0.173  1.238  3.935  0.000    24.737     7.387
 111   6 C     -0.046  1.054  2.992  0.000    21.467     6.609
 112   6 C      0.275  1.040  2.685  0.000    22.348     7.741
 113   8 O     -0.450  1.734  4.716  0.000    22.701     6.388
 114   1 H      0.219  0.781  0.000  0.000     1.012     1.576
 115   1 H      0.085  0.915  0.000  0.000     1.924     2.169
 116   1 H      0.122  0.878  0.000  0.000     1.598     1.977
 117   7 N     -0.183  1.247  3.936  0.000    24.972     7.422
 118   6 C     -0.037  1.051  2.986  0.000    21.300     6.583
 119   6 C      0.279  1.038  2.683  0.000    22.284     7.730
 120   8 O     -0.489  1.752  4.737  0.000    23.533     6.504
 121   1 H      0.226  0.774  0.000  0.000     0.983     1.553
 122   1 H      0.086  0.914  0.000  0.000     1.915     2.164
 123   1 H      0.097  0.903  0.000  0.000     1.808     2.103
 124   7 N     -0.184  1.243  3.942  0.000    24.998     7.426
 125   6 C      0.013  1.059  2.928  0.000    20.361     6.425
 126   6 C      0.263  1.042  2.695  0.000    22.570     7.781
 127   8 O     -0.496  1.740  4.756  0.000    23.694     6.526
 128   6 C     -0.068  1.049  3.019  0.000    21.799     6.646
 129   6 C     -0.111  1.061  3.051  0.000    22.621     6.771
 130   6 C      0.289  1.036  2.675  0.000    22.101     7.697
 131   8 O     -0.501  1.764  4.737  0.000    23.798     6.541
 132   7 N     -0.282  1.258  4.024  0.000    27.280     7.757
 133   1 H      0.222  0.778  0.000  0.000     0.999     1.566
 134   1 H      0.079  0.921  0.000  0.000     1.989     2.205
 135   1 H      0.074  0.926  0.000  0.000     2.037     2.232
 136   1 H      0.070  0.930  0.000  0.000     2.085     2.258
 137   1 H      0.086  0.914  0.000  0.000     1.919     2.167
 138   1 H      0.083  0.917  0.000  0.000     1.953     2.185
 139   1 H      0.234  0.766  0.000  0.000     0.948     1.525
 140   1 H      0.209  0.791  0.000  0.000     1.063     1.615
 141   7 N     -0.176  1.245  3.931  0.000    24.810     7.398
 142   6 C      0.001  1.058  2.941  0.000    20.550     6.452
 143   6 C      0.266  1.046  2.688  0.000    22.512     7.772
 144   8 O     -0.484  1.737  4.747  0.000    23.433     6.490
 145   6 C     -0.089  1.057  3.032  0.000    22.189     6.704
 146   6 C     -0.097  1.057  3.040  0.000    22.344     6.730
 147   6 C     -0.111  1.062  3.049  0.000    22.610     6.769
 148   6 C     -0.062  1.064  2.999  0.000    21.793     6.664
 149   7 N     -0.146  1.231  3.915  0.000    24.158     7.300
 150   1 H      0.237  0.763  0.000  0.000     0.937     1.516
 151   1 H      0.108  0.892  0.000  0.000     1.715     2.048
 152   1 H      0.070  0.930  0.000  0.000     2.081     2.256
 153   1 H      0.081  0.919  0.000  0.000     1.970     2.195
 154   1 H      0.074  0.926  0.000  0.000     2.046     2.237
 155   1 H      0.081  0.919  0.000  0.000     1.967     2.193
 156   1 H      0.078  0.922  0.000  0.000     1.996     2.209
 157   1 H      0.102  0.898  0.000  0.000     1.770     2.081
 158   1 H      0.116  0.884  0.000  0.000     1.650     2.009
 159   1 H      0.137  0.863  0.000  0.000     1.482     1.903
 160   1 H      0.268  0.732  0.000  0.000     0.816     1.415
 161   1 H      0.276  0.724  0.000  0.000     0.788     1.391
 162   1 H      0.276  0.724  0.000  0.000     0.790     1.392
 163   7 N     -0.172  1.238  3.934  0.000    24.729     7.386
 164   6 C      0.026  1.057  2.917  0.000    20.095     6.375
 165   6 C      0.273  1.044  2.683  0.000    22.390     7.749
 166   8 O     -0.473  1.744  4.729  0.000    23.195     6.457
 167   6 C     -0.017  1.065  2.951  0.000    20.878     6.506
 168  16 S     -0.259  1.920  4.316  0.024   152.207    20.765
 169   1 H      0.222  0.778  0.000  0.000     0.999     1.566
 170   1 H      0.094  0.906  0.000  0.000     1.837     2.120
 171   1 H      0.068  0.932  0.000  0.000     2.109     2.271
 172   1 H      0.066  0.934  0.000  0.000     2.128     2.281
 173   1 H      0.161  0.839  0.000  0.000     1.317     1.795
 174   7 N     -0.178  1.242  3.937  0.000    24.861     7.405
 175   6 C      0.011  1.064  2.924  0.000    20.383     6.428
 176   6 C      0.289  1.035  2.676  0.000    22.108     7.700
 177   8 O     -0.496  1.752  4.744  0.000    23.706     6.528
 178   6 C      0.114  1.048  2.838  0.000    18.825     6.197
 179   8 O     -0.496  1.737  4.760  0.000    22.815     6.448
 180   6 C     -0.152  1.045  3.107  0.000    23.501     6.914
 181   1 H      0.213  0.787  0.000  0.000     1.043     1.600
 182   1 H      0.079  0.921  0.000  0.000     1.991     2.207
 183   1 H      0.032  0.968  0.000  0.000     2.553     2.499
 184   1 H      0.351  0.649  0.000  0.000     0.586     1.203
 185   1 H      0.066  0.934  0.000  0.000     2.131     2.283
 186   1 H      0.048  0.952  0.000  0.000     2.351     2.398
 187   1 H      0.092  0.908  0.000  0.000     1.861     2.133
 188   7 N     -0.179  1.251  3.928  0.000    24.884     7.409
 189   6 C      0.024  1.061  2.914  0.000    20.170     6.394
 190   6 C      0.300  1.036  2.664  0.000    21.906     7.665
 191   8 O     -0.528  1.762  4.766  0.000    24.421     6.626
 192   6 C     -0.092  1.067  3.025  0.000    22.230     6.710
 193   6 C     -0.011  1.052  2.959  0.000    20.734     6.477
 194   6 C     -0.133  1.046  3.086  0.000    23.104     6.853
 195   6 C     -0.121  1.041  3.080  0.000    22.876     6.820
 196   1 H      0.239  0.761  0.000  0.000     0.929     1.510
 197   1 H      0.063  0.937  0.000  0.000     2.159     2.298
 198   1 H      0.073  0.927  0.000  0.000     2.048     2.238
 199   1 H      0.072  0.928  0.000  0.000     2.069     2.249
 200   1 H      0.026  0.974  0.000  0.000     2.650     2.546
 201   1 H      0.059  0.941  0.000  0.000     2.215     2.328
 202   1 H      0.040  0.960  0.000  0.000     2.447     2.446
 203   1 H      0.076  0.924  0.000  0.000     2.022     2.224
 204   1 H      0.064  0.936  0.000  0.000     2.150     2.293
 205   1 H      0.049  0.951  0.000  0.000     2.335     2.389
 206   1 H      0.012  0.988  0.000  0.000     2.865     2.647
 207   7 N     -0.200  1.251  3.948  0.000    25.335     7.476
 208   6 C      0.019  1.061  2.920  0.000    20.258     6.408
 209   6 C      0.289  1.035  2.676  0.000    22.103     7.699
 210   8 O     -0.518  1.753  4.765  0.000    24.195     6.595
 211   6 C      0.072  1.037  2.891  0.000    19.578     6.337
 212   8 O     -0.475  1.712  4.764  0.000    22.370     6.385
 213   1 H      0.232  0.768  0.000  0.000     0.959     1.534
 214   1 H      0.066  0.934  0.000  0.000     2.126     2.280
 215   1 H      0.062  0.938  0.000  0.000     2.178     2.308
 216   1 H      0.059  0.941  0.000  0.000     2.212     2.326
 217   1 H      0.322  0.678  0.000  0.000     0.660     1.276
 218   7 N     -0.166  1.242  3.924  0.000    24.589     7.365
 219   6 C      0.035  1.055  2.910  0.000    19.986     6.365
 220   6 C      0.217  1.081  2.701  0.000    23.410     7.925
 221   8 O     -0.376  1.749  4.627  0.000    21.210     6.175
 222   6 C     -0.023  1.060  2.962  0.000    20.936     6.506
 223   6 C     -0.066  1.047  3.019  0.000    21.762     6.641
 224   6 C     -0.116  1.038  3.078  0.000    22.784     6.806
 225   6 C     -0.117  1.035  3.082  0.000    22.791     6.807
 226   1 H      0.219  0.781  0.000  0.000     1.013     1.577
 227   1 H      0.077  0.923  0.000  0.000     2.013     2.218
 228   1 H      0.059  0.941  0.000  0.000     2.215     2.327
 229   1 H      0.050  0.950  0.000  0.000     2.325     2.385
 230   1 H      0.048  0.952  0.000  0.000     2.340     2.392
 231   1 H      0.063  0.937  0.000  0.000     2.166     2.302
 232   1 H      0.033  0.967  0.000  0.000     2.540     2.492
 233   1 H      0.053  0.947  0.000  0.000     2.284     2.363
 234   1 H      0.044  0.956  0.000  0.000     2.392     2.418
 235   1 H      0.052  0.948  0.000  0.000     2.301     2.372
 236   1 H      0.038  0.962  0.000  0.000     2.477     2.461
 237   7 N     -0.395  1.323  4.073  0.000    30.240     8.167
 238   6 C      0.038  1.055  2.907  0.000    19.958     6.365
 239   6 C      0.216  1.087  2.698  0.000    23.443     7.929
 240   8 O     -0.371  1.758  4.614  0.000    21.116     6.161
 241   6 C      0.083  1.041  2.876  0.000    19.399     6.309
 242   8 O     -0.479  1.726  4.753  0.000    22.454     6.397
 243   1 H      0.180  0.820  0.000  0.000     1.212     1.725
 244   1 H      0.054  0.946  0.000  0.000     2.267     2.354
 245   1 H      0.037  0.963  0.000  0.000     2.496     2.470
 246   1 H      0.049  0.951  0.000  0.000     2.332     2.388
 247   1 H      0.333  0.667  0.000  0.000     0.630     1.247
 248   7 N     -0.410  1.336  4.074  0.000    30.646     8.222
 249   6 C      0.012  1.074  2.914  0.000    20.397     6.434
 250   6 C      0.366  1.028  2.606  0.000    20.787     7.461
 251   8 O     -0.652  1.770  4.882  0.000    27.433     7.022
 252   6 C      0.125  1.045  2.830  0.000    18.630     6.161
 253   8 O     -0.481  1.725  4.755  0.000    22.483     6.401
 254   6 C     -0.106  1.037  3.069  0.000    22.577     6.776
 255   8 O     -0.631  1.770  4.861  0.000    26.898     6.953
 256   1 H      0.146  0.854  0.000  0.000     1.428     1.872
 257   1 H     -0.003  1.003  0.000  0.000     3.117     2.761
 258   1 H     -0.004  1.004  0.000  0.000     3.133     2.768
 259   1 H      0.321  0.679  0.000  0.000     0.661     1.277
 260   1 H      0.057  0.943  0.000  0.000     2.237     2.339
 261   1 H      0.021  0.979  0.000  0.000     2.722     2.580
 262   1 H      0.051  0.949  0.000  0.000     2.312     2.378
 263   1 H      0.185  0.815  0.000  0.000     1.185     1.705
 264   1 H      0.077  0.923  0.000  0.000     2.007     2.215
 265   1 H      0.171  0.829  0.000  0.000     1.269     1.765
 266   1 H      0.073  0.927  0.000  0.000     2.054     2.241
 267   1 H      0.192  0.808  0.000  0.000     1.147     1.678
 268   1 H      0.085  0.915  0.000  0.000     1.927     2.171
 269   1 H      0.181  0.819  0.000  0.000     1.209     1.722
 270   1 H      0.068  0.932  0.000  0.000     2.111     2.272
 271   1 H      0.179  0.821  0.000  0.000     1.217     1.728
 272   1 H      0.059  0.941  0.000  0.000     2.211     2.325
 273   1 H      0.187  0.813  0.000  0.000     1.173     1.697
 274   1 H      0.070  0.930  0.000  0.000     2.085     2.258
 275   1 H      0.187  0.813  0.000  0.000     1.174     1.697

 Mol. C6AA /au·bohr⁶  :     698684.380403
 Mol. C8AA /au·bohr⁸  :   15719631.294786
 Mol. α(0) /au        :       1248.206324

 
molecular dipole:
                 x           y           z       tot (Debye)
 q only:      -87.901     -61.929     -23.708
   full:      -88.694     -60.325     -25.321     280.138
molecular quadrupole (traceless):
                xx          xy          yy          xz          yz          zz
 q only:    -5007.369   -9387.469     128.819   -3089.259   -2031.612    4878.549
  q+dip:    -5178.181   -9313.492     501.401   -3302.929   -2148.546    4676.780
   full:    -5174.581   -9314.716     501.416   -3301.561   -2149.581    4673.165
speedup  1.00
cpu  time for grad    3.45 s
wall time for grad    3.45 s

SCC energy    :    -433.3383361
rep           :       5.0166455
ES            :       1.5526280
AES           :      -0.0308192
AXC           :       0.1406664
disp          :      -0.3313241
XB            :       0.0000000
fix           :       0.0000000
Gborn         :       0.0000000
Gsasa         :       0.0000000
Ghb           :       0.0000000
Gshift        :       0.0000000
Gsolv         :      -0.4290507     -269.23
Etot ala COSMO:    -433.3383361
grad norm     :       0.5751280
total E       :    -428.2955096
atomizationE  :      75.1123517    47133.71
(atE without considering molecular charge,
 total energy contains solvation terms)
H-L gap (eV)  :          1.0158

------------------------------------------------------------------------
 * finished run on 2019/03/14 at 15:07:40.126     
------------------------------------------------------------------------
 total:
 * wall-time:     0 d,  0 h,  0 min,  3.899 sec
 *  cpu-time:     0 d,  0 h,  0 min,  3.775 sec
 * ratio c/w:     0.968 speedup
 SCF:
 * wall-time:     0 d,  0 h,  0 min,  3.705 sec
 *  cpu-time:     0 d,  0 h,  0 min,  3.701 sec
 * ratio c/w:     0.999 speedup

