      -----------------------------------------------------------      
     |                   =====================                   |     
     |                           x T B                           |     
     |                   =====================                   |     
     |                         S. Grimme                         |     
     |          Mulliken Center for Theoretical Chemistry        |     
     |                    University of Bonn                     |     
     |                 Version 6.0.1 (SAW181210)                 |     
      -----------------------------------------------------------      

   This program is distributed in the hope that it will be useful,
   but WITHOUT ANY WARRANTY; without even the implied warranty of
   MERCHANTABILITY or FITNESS FOR A PARTICULAR PURPOSE.
   
   FOR NON-COMMERCIAL, ACADEMIA USE ONLY.
   
   Cite this work as:
   S. Grimme, C. Bannwarth, P. Shushkov, J. Comput. Theory Chem., 2017,
   13, 1989-2009.
   C. Bannwarth, S. Ehlert and S. Grimme., ChemRxiv, 2018, preprint.
   http://doi.org/10.26434/chemrxiv.7246238.v1
   
   for sTDA-xTB:
   S. Grimme and C. Bannwarth, J. Chem. Phys., 2016, 145, 054103.
   
   in the mass-spec context:
   V. Asgeirsson, C. Bauer and S. Grimme, Chem. Sci., 2017, 8, 4879.
   
   if GBSA is used:
   P. Shushkov, F. März and S. Grimme, unpublished.
   
   for ANC optimizer:
   S. Grimme, unpublished.
   Rational Function algorithm used in ANCopt:
   F. Eckert, P. Pulay, H.-J. Werner, J. Comput. Chem., 1997, 18, 1473.
   
   with help from (in alphabetical order)
   C. Bannwarth, F. Bohle, G. Brandenburg, E. Caldeweyher, M. Checinski,
   S. Dohm, S. Ehlert, S. Ehrlich, F. März, H. Neugebauer, J. Pisarek,
   P. Pracht, P. Shushkov, and S. Spicher.
   
 * started run on 2019/02/13 at 00:18:33.725     
========================================================================
 # omp threads = 16
========================================================================
number of atoms            : 274
number of electrons        : 726
charge                     : 1
spin                       : .0
first test random number   : .8268

########################################################################
# WARNING! Please study the warnings concerning your input carefully
#  - Process number higher than OMP_NUM_THREADS, I hope you know what you are doing.
########################################################################

           ------------------------------------------------- 
          |                 G F N 2 - x T B                 |
          | Geometry, Frequencies, Noncovalent interactions |
          |            JCTC 2018 parametrisation            |
           ------------------------------------------------- 
 
      method parameters     
 k(s)        :  1.8500
 k(p)        :  2.2300
 k(d)        :  2.2300
 k(f)        :  2.0000
 kEN (H0ij)  : -2.0000
 D4 a1       :  0.5200
 D4 a2       :  5.0000
 D4 s6       :  1.0000
 D4 s8       :  2.7000
 D4 s9       :  5.0000
 alphaj      :  2.0000

 Solvent             : h2o
 Using internal parameter file: .param_gbsa2_h2o
 Gsolv ref. state (COSMO-RS): gsolv [1 M gas/solution]
 temperature (mdtemp)       :    298.150000000000     
 dielectric constant        :    80.2000000000000     
 rho                        :    1.00000000000000     
 mass                       :    18.0000000000000     
 surface tension            :    15.5689454083859     
 probe radius               :   0.975313790000000     
 vdW radii scaling          :    1.00000000000000     
 Gshift (Eh)                :   1.857443126794793E-003
 c1                         :    1.55243817000000     
 soset                      :   0.130326360000000     
 HB correction              :  T

            Z     q(EN)     CN     RAES       Cart. coordinates
     1  N   5.0   -0.20    3.21    1.96   198.59538   123.97185   321.32517
     2  C   4.0    0.03    4.21    4.02   199.17911   126.54047   320.51895
     3  C   4.0    0.08    3.23    3.04   202.06156   126.71184   320.29449
     4  O   6.0   -0.32    1.15    1.80   203.09437   127.50809   318.38424
     5  C   4.0   -0.05    4.31    4.21   198.03434   128.45448   322.35847
     6  C   4.0   -0.02    4.17    3.94   198.74266   131.23987   321.92926
     7  C   4.0   -0.07    4.10    3.81   201.35791   131.87788   322.97415
     8  C   4.0   -0.08    4.10    3.81   198.54082   132.03653   319.16413
     9  H   1.0    0.09    1.02    1.43   197.39555   123.66819   322.78962
    10  H   1.0    0.05    1.05    1.44   198.43591   126.84586   318.60703
    11  H   1.0    0.04    1.03    1.43   195.98430   128.27391   322.23033
    12  H   1.0    0.05    1.03    1.43   198.60735   127.94485   324.26786
    13  H   1.0    0.04    1.06    1.44   197.37995   132.35441   323.01790
    14  H   1.0    0.04    1.00    1.43   201.65986   133.91006   322.91608
    15  H   1.0    0.05    1.00    1.43   201.53721   131.26474   324.92747
    16  H   1.0    0.05    1.01    1.43   202.84631   130.99799   321.87026
    17  H   1.0    0.04    1.00    1.43   198.82714   134.06607   319.01900
    18  H   1.0    0.05    1.00    1.43   199.98659   131.11536   318.03449
    19  H   1.0    0.04    1.00    1.43   196.68740   131.59067   318.39803
    20  N   5.0   -0.20    3.22    1.96   206.67069   128.62629   314.20506
    21  C   4.0    0.03    4.31    4.22   208.74469   130.40809   314.16812
    22  C   4.0    0.08    3.23    3.04   211.11701   129.13164   313.12098
    23  O   6.0   -0.28    1.13    1.80   212.46206   130.17731   311.54111
    24  C   4.0   -0.02    4.32    4.23   209.31041   131.53698   316.78178
    25  C   4.0   -0.05    4.18    3.97   206.92241   132.50383   318.11557
    26  C   4.0   -0.06    4.12    3.85   211.29291   133.61812   316.51495
    27  C   4.0   -0.07    4.01    3.64   205.35526   134.41609   316.63894
    28  H   1.0    0.11    1.04    1.43   206.13215   127.93516   315.90623
    29  H   1.0    0.04    1.06    1.44   208.28195   131.94122   312.84921
    30  H   1.0    0.05    1.06    1.44   210.11702   130.02785   317.95085
    31  H   1.0    0.06    1.04    1.43   205.72871   130.88751   318.56646
    32  H   1.0    0.04    1.03    1.43   207.52306   133.34863   319.90001
    33  H   1.0    0.05    1.00    1.43   211.72201   134.42306   318.35467
    34  H   1.0    0.06    1.00    1.43   213.03437   132.85634   315.73156
    35  H   1.0    0.05    1.00    1.43   210.63251   135.11498   315.27247
    36  H   1.0    0.04    1.00    1.43   203.84306   135.10992   317.84174
    37  H   1.0    0.05    1.00    1.43   206.47881   136.02701   316.04280
    38  H   1.0    0.04    1.00    1.43   204.51016   133.54529   314.98441
    39  N   5.0   -0.18    3.22    1.96   210.35712   129.36894   306.60980
    40  C   4.0    0.04    4.22    4.04   210.54724   131.85203   305.47609
    41  C   4.0    0.10    3.21    3.04   213.32431   132.41383   304.89381
    42  O   6.0   -0.26    1.11    1.80   213.98367   133.66013   303.05899
    43  C   4.0   -0.04    4.34    4.27   209.40684   133.85866   307.21799
    44  C   4.0   -0.03    4.17    3.95   206.54208   134.12595   306.82768
    45  C   4.0   -0.07    4.09    3.79   205.25701   135.23236   309.16121
    46  C   4.0   -0.07    4.11    3.81   206.02014   135.77505   304.51833
    47  H   1.0    0.09    1.02    1.43   209.05683   129.06068   308.00110
    48  H   1.0    0.05    1.05    1.44   209.58983   131.86502   303.62575
    49  H   1.0    0.06    1.03    1.43   209.84455   133.31559   309.15619
    50  H   1.0    0.05    1.03    1.43   210.31193   135.67019   306.82793
    51  H   1.0    0.04    1.05    1.44   205.75806   132.24196   306.47120
    52  H   1.0    0.04    1.00    1.43   203.26661   135.56432   308.77763
    53  H   1.0    0.04    1.00    1.43   205.39165   133.91607   310.72616
    54  H   1.0    0.05    1.00    1.43   206.12364   137.01486   309.69739
    55  H   1.0    0.04    1.00    1.43   204.00656   135.88824   304.11450
    56  H   1.0    0.05    1.00    1.43   206.74013   137.67890   304.80813
    57  H   1.0    0.05    1.00    1.43   206.91690   135.00340   302.83193
    58  N   5.0   -0.21    3.24    1.96   197.95174   137.65153   294.52437
    59  C   4.0    0.03    4.40    4.37   198.46336   139.29207   296.66537
    60  C   4.0    0.15    3.51    3.12   195.95634   139.99026   297.87241
    61  O   6.0   -0.32    1.40    1.80   195.68764   139.95198   300.17075
    62  C   4.0   -0.02    4.25    4.09   200.04100   141.64725   296.03091
    63  C   4.0   -0.07    4.13    3.85   198.59692   143.64912   294.54162
    64  C   4.0   -0.07    4.12    3.84   201.03032   142.79255   298.49233
    65  H   1.0    0.09    1.02    1.43   198.91889   137.93398   292.91055
    66  H   1.0    0.04    1.06    1.44   199.51290   138.15666   298.06084
    67  H   1.0    0.04    1.05    1.44   201.65388   140.99549   294.90374
    68  H   1.0    0.05    1.00    1.43   199.93149   145.01199   293.78164
    69  H   1.0    0.05    1.00    1.43   197.58889   142.80833   292.96853
    70  H   1.0    0.05    1.00    1.43   197.26884   144.62659   295.76429
    71  H   1.0    0.05    1.00    1.43   202.20893   144.41773   298.06926
    72  H   1.0    0.06    1.00    1.43   199.46086   143.37694   299.68487
    73  H   1.0    0.04    1.00    1.43   202.16567   141.42466   299.52961
    74  N   5.0   -0.15    3.51    2.08   194.08662   140.65904   296.32650
    75  C   4.0    0.04    4.41    4.40   191.64493   141.36788   297.35010
    76  C   4.0    0.18    3.56    3.14   190.89703   139.58141   299.50650
    77  O   6.0   -0.30    1.25    1.80   190.23395   140.31965   301.58597
    78  C   4.0    0.03    4.16    3.93   189.61937   141.22548   295.27002
    79  O   6.0   -0.24    2.08    1.84   187.23097   140.95158   296.41537
    80  H   1.0    0.08    1.07    1.44   194.33293   140.59023   294.43127
    81  H   1.0    0.06    1.05    1.44   191.74906   143.27771   298.15319
    82  H   1.0    0.05    1.01    1.43   189.72409   142.94187   294.12233
    83  H   1.0    0.05    1.01    1.43   190.04699   139.58429   294.07167
    84  H   1.0    0.13    1.02    1.43   185.92497   141.42605   295.23125
    85  N   5.0   -0.14    3.55    2.12   190.82591   137.15025   298.79771
    86  C   4.0    0.03    4.44    4.44   190.07288   135.16231   300.52470
    87  C   4.0    0.16    3.44    3.09   191.58693   135.22740   302.99717
    88  O   6.0   -0.31    1.27    1.80   190.51954   134.95603   305.02877
    89  C   4.0   -0.03    4.31    4.22   190.41610   132.60113   299.24395
    90  C   4.0    0.15    3.21    3.04   188.90015   132.15935   296.82973
    91  O   6.0   -0.27    1.20    1.80   189.17168   130.20351   295.62876
    92  N   5.0   -0.18    3.21    1.96   187.15854   133.89777   296.19985
    93  H   1.0    0.08    1.07    1.44   191.72063   136.61746   297.19372
    94  H   1.0    0.06    1.05    1.44   188.09216   135.46881   301.06728
    95  H   1.0    0.05    1.03    1.43   192.40239   132.36338   298.72120
    96  H   1.0    0.06    1.03    1.43   189.95796   131.07819   300.55552
    97  H   1.0    0.11    1.03    1.43   186.30336   133.65581   294.51250
    98  H   1.0    0.09    1.05    1.44   187.24826   135.67980   296.86669
    99  N   5.0   -0.14    3.50    2.08   194.07321   135.52570   302.74151
   100  C   4.0    0.04    4.45    4.47   195.76444   135.53654   304.88225
   101  C   4.0    0.15    3.44    3.09   195.61107   137.95633   306.46566
   102  O   6.0   -0.33    1.31    1.80   195.98791   137.85384   308.75812
   103  C   4.0   -0.05    4.35    4.30   198.50121   135.16185   304.03621
   104  C   4.0   -0.04    4.06    3.73   199.00791   132.50964   303.05627
   105  S   6.0   -0.04    2.54    3.10   198.71412   130.17681   305.54612
   106  C   4.0   -0.06    3.88    3.44   200.51306   127.60783   304.19897
   107  H   1.0    0.09    1.08    1.44   194.84404   135.75308   301.00746
   108  H   1.0    0.05    1.08    1.44   195.24735   133.97102   306.14807
   109  H   1.0    0.05    1.03    1.43   198.95233   136.50109   302.52853
   110  H   1.0    0.04    1.04    1.43   199.75161   135.53037   305.63764
   111  H   1.0    0.04    1.06    1.44   197.71545   132.01237   301.52391
   112  H   1.0    0.04    1.07    1.44   200.92684   132.37836   302.30961
   113  H   1.0    0.05    1.05    1.44   200.32426   126.01283   305.46935
   114  H   1.0    0.05    1.04    1.43   199.75966   127.15668   302.33955
   115  H   1.0    0.04    1.04    1.43   202.48352   128.17120   304.01410
   116  N   5.0   -0.13    3.53    2.10   195.09833   140.09467   305.26475
   117  C   4.0    0.04    4.39    4.37   194.67486   142.43420   306.63197
   118  C   4.0    0.16    3.47    3.10   192.44218   142.01559   308.43379
   119  O   6.0   -0.31    1.25    1.80   192.58355   142.40587   310.70801
   120  C   4.0    0.04    4.15    3.91   194.12351   144.57056   304.74128
   121  O   6.0   -0.24    2.04    1.83   196.20340   145.09956   303.18451
   122  H   1.0    0.13    1.13    1.45   195.06577   140.18442   303.34594
   123  H   1.0    0.06    1.05    1.44   196.33250   142.91339   307.78413
   124  H   1.0    0.07    1.02    1.43   192.60686   143.97895   303.47016
   125  H   1.0    0.05    1.01    1.43   193.51431   146.25431   305.78400
   126  H   1.0    0.12    1.02    1.43   197.51076   145.91526   304.16085
   127  N   5.0   -0.14    3.52    2.09   190.38757   141.11003   307.28346
   128  C   4.0    0.04    4.42    4.41   188.09214   140.55641   308.67810
   129  C   4.0    0.16    3.49    3.11   188.70706   138.74317   310.84695
   130  O   6.0   -0.32    1.32    1.80   188.08126   139.22069   313.02425
   131  C   4.0   -0.04    4.27    4.14   186.09837   139.48741   306.87528
   132  C   4.0   -0.05    4.19    3.99   183.63076   138.79313   308.24094
   133  C   4.0   -0.01    4.19    3.99   183.40391   135.95364   308.72219
   134  N   5.0   -0.14    3.42    2.03   183.19676   134.64949   306.31740
   135  C   4.0    0.10    3.33    3.06   184.12916   132.40615   305.68859
   136  N   5.0   -0.18    3.25    1.97   185.39911   130.98846   307.32425
   137  N   5.0   -0.18    3.24    1.97   183.82623   131.58816   303.32002
   138  H   1.0    0.11    1.09    1.44   190.35604   140.85195   305.38282
   139  H   1.0    0.05    1.05    1.44   187.39714   142.29757   309.56946
   140  H   1.0    0.05    1.03    1.43   185.74135   140.92833   305.44751
   141  H   1.0    0.07    1.03    1.43   186.88927   137.83452   305.92938
   142  H   1.0    0.05    1.03    1.43   183.53796   139.77327   310.04957
   143  H   1.0    0.05    1.03    1.43   182.01349   139.41684   307.12970
   144  H   1.0    0.05    1.03    1.43   185.07064   135.30802   309.74351
   145  H   1.0    0.04    1.02    1.43   181.72545   135.57967   309.87213
   146  H   1.0    0.08    1.08    1.44   182.14402   135.57490   305.01600
   147  H   1.0    0.08    1.03    1.43   185.62507   131.52004   309.13393
   148  H   1.0    0.09    1.03    1.43   186.12524   129.31272   306.79201
   149  H   1.0    0.09    1.03    1.43   182.74984   132.55407   302.08186
   150  H   1.0    0.09    1.03    1.43   184.36110   129.82991   302.82437
   151  N   5.0   -0.14    3.49    2.07   189.88705   136.61619   310.18417
   152  C   4.0    0.04    4.34    4.28   190.50973   134.68080   312.03170
   153  C   4.0    0.16    3.48    3.11   191.78756   135.83058   314.35844
   154  O   6.0   -0.32    1.28    1.80   191.06150   135.33475   316.50239
   155  C   4.0   -0.07    4.12    3.83   192.21574   132.69453   310.83133
   156  H   1.0    0.11    1.10    1.44   190.32602   136.24061   308.34648
   157  H   1.0    0.05    1.05    1.44   188.75768   133.81058   312.73016
   158  H   1.0    0.04    1.00    1.43   192.47918   131.12146   312.12105
   159  H   1.0    0.06    1.00    1.43   191.36918   132.01231   309.09020
   160  H   1.0    0.05    1.00    1.43   194.05622   133.50285   310.40932
   161  N   5.0   -0.14    3.50    2.08   193.78054   137.29575   313.87173
   162  C   4.0    0.04    4.43    4.43   195.21576   138.43025   315.90635
   163  C   4.0    0.16    3.49    3.11   193.49215   139.95378   317.65434
   164  O   6.0   -0.31    1.29    1.80   193.55645   139.65222   319.95159
   165  C   4.0   -0.04    4.29    4.17   197.31160   140.11797   314.85166
   166  C   4.0   -0.04    4.23    4.07   199.57384   138.54038   313.96546
   167  C   4.0    0.15    3.22    3.04   201.40968   140.18447   312.49422
   168  O   6.0   -0.29    1.19    1.80   203.34713   141.06483   313.38388
   169  N   5.0   -0.19    3.20    1.96   200.66135   140.60628   310.10764
   170  H   1.0    0.11    1.09    1.44   194.34395   137.65270   312.07238
   171  H   1.0    0.05    1.05    1.44   196.03175   136.92893   317.08551
   172  H   1.0    0.06    1.03    1.43   196.53362   141.21743   313.28947
   173  H   1.0    0.05    1.03    1.43   197.92976   141.43580   316.31140
   174  H   1.0    0.04    1.03    1.43   200.55774   137.74734   315.58977
   175  H   1.0    0.05    1.03    1.43   198.92148   137.01470   312.74699
   176  H   1.0    0.11    1.06    1.44   199.04998   139.79255   309.47835
   177  H   1.0    0.10    1.03    1.43   201.73407   141.67436   308.95628
   178  N   5.0   -0.14    3.51    2.09   192.01427   141.65699   316.52864
   179  C   4.0    0.04    4.52    4.57   190.39331   143.27073   318.04222
   180  C   4.0    0.16    3.51    3.12   188.57579   141.61954   319.58342
   181  O   6.0   -0.31    1.29    1.80   188.25020   141.93481   321.85816
   182  C   4.0   -0.02    4.33    4.25   188.94310   145.17793   316.40048
   183  C   4.0   -0.04    4.19    3.98   190.81186   146.94247   315.05615
   184  C   4.0   -0.07    4.14    3.88   187.09460   146.65811   318.05266
   185  C   4.0   -0.07    4.02    3.65   189.52149   148.88999   313.36683
   186  H   1.0    0.11    1.08    1.44   191.97209   141.82238   314.62080
   187  H   1.0    0.06    1.05    1.44   191.56426   144.28933   319.42221
   188  H   1.0    0.05    1.05    1.44   187.88038   144.11004   314.98237
   189  H   1.0    0.05    1.03    1.43   191.95113   147.91622   316.47484
   190  H   1.0    0.06    1.03    1.43   192.08172   145.81048   313.89250
   191  H   1.0    0.05    1.00    1.43   185.91226   147.88000   316.90721
   192  H   1.0    0.06    1.01    1.43   185.87098   145.38863   319.10703
   193  H   1.0    0.05    1.00    1.43   188.12027   147.81356   319.40980
   194  H   1.0    0.05    1.00    1.43   190.93361   149.90749   312.27639
   195  H   1.0    0.05    1.00    1.43   188.22649   147.96961   312.06523
   196  H   1.0    0.05    1.00    1.43   188.47618   150.26204   314.47860
   197  N   5.0   -0.14    3.53    2.10   187.37273   139.87235   318.23469
   198  C   4.0    0.04    4.42    4.41   185.49761   138.18487   319.31797
   199  C   4.0    0.16    3.47    3.10   186.53463   136.99647   321.73444
   200  O   6.0   -0.32    1.29    1.80   185.34790   137.10126   323.72871
   201  C   4.0   -0.05    4.34    4.27   184.77540   136.25229   317.28420
   202  C   4.0   -0.02    4.16    3.92   182.70747   134.33087   317.97390
   203  C   4.0   -0.06    4.10    3.80   183.73191   132.12462   319.52534
   204  C   4.0   -0.07    4.11    3.82   180.47363   135.55655   319.32606
   205  H   1.0    0.12    1.12    1.45   187.75522   139.67029   316.36328
   206  H   1.0    0.05    1.05    1.44   183.84419   139.29861   319.89069
   207  H   1.0    0.05    1.03    1.43   184.14033   137.35702   315.66146
   208  H   1.0    0.06    1.03    1.43   186.49282   135.24571   316.74664
   209  H   1.0    0.04    1.06    1.44   182.01382   133.55202   316.18551
   210  H   1.0    0.05    1.00    1.43   182.25766   130.72741   319.83439
   211  H   1.0    0.05    1.00    1.43   185.29361   131.20697   318.55618
   212  H   1.0    0.06    1.00    1.43   184.38640   132.74361   321.37071
   213  H   1.0    0.05    1.00    1.43   178.93732   134.20557   319.51551
   214  H   1.0    0.06    1.00    1.43   181.01443   136.15618   321.21631
   215  H   1.0    0.05    1.00    1.43   179.78240   137.18709   318.28493
   216  N   5.0   -0.14    3.51    2.09   188.75583   135.83141   321.49637
   217  C   4.0    0.04    4.43    4.43   189.86852   134.41439   323.55384
   218  C   4.0    0.16    3.43    3.09   190.88069   136.12928   325.64943
   219  O   6.0   -0.28    1.23    1.80   190.86816   135.43691   327.86373
   220  C   4.0   -0.04    4.27    4.15   191.98568   132.71591   322.56234
   221  C   4.0   -0.04    4.21    4.03   190.97355   130.45127   321.06138
   222  C   4.0    0.15    3.21    3.04   189.77535   128.46675   322.77080
   223  O   6.0   -0.28    1.21    1.80   188.04084   128.95925   324.21810
   224  N   5.0   -0.18    3.18    1.95   190.75137   126.13956   322.56280
   225  H   1.0    0.11    1.10    1.44   189.65607   135.78221   319.80151
   226  H   1.0    0.08    1.06    1.44   188.41211   133.22095   324.42907
   227  H   1.0    0.05    1.03    1.43   193.21214   133.84629   321.34967
   228  H   1.0    0.05    1.03    1.43   193.08175   132.04286   324.17346
   229  H   1.0    0.05    1.03    1.43   189.53499   131.11631   319.74386
   230  H   1.0    0.04    1.03    1.43   192.50611   129.61077   319.97660
   231  H   1.0    0.08    1.03    1.43   192.19366   125.72499   321.39815
   232  H   1.0    0.11    1.02    1.43   190.05991   124.68129   323.59015
   233  N   5.0   -0.13    3.52    2.09   191.78678   138.35946   324.91328
   234  C   4.0    0.04    4.42    4.41   192.71668   140.19675   326.72863
   235  C   4.0    0.16    3.47    3.10   190.52609   140.98159   328.45926
   236  O   6.0   -0.25    1.24    1.80   190.67881   140.92542   330.77127
   237  C   4.0   -0.04    4.29    4.18   193.86307   142.43752   325.31181
   238  C   4.0   -0.03    4.22    4.04   195.54130   144.06549   327.01345
   239  C   4.0    0.16    3.22    3.04   196.66605   146.21175   325.46744
   240  O   6.0   -0.26    1.19    1.80   195.85206   148.37051   325.52885
   241  N   5.0   -0.18    3.19    1.95   198.57672   145.51716   323.95148
   242  H   1.0    0.12    1.10    1.44   191.94169   138.80473   323.05383
   243  H   1.0    0.06    1.05    1.44   194.14076   139.29152   327.93731
   244  H   1.0    0.06    1.03    1.43   194.97228   141.68591   323.74459
   245  H   1.0    0.06    1.03    1.43   192.34382   143.58981   324.52707
   246  H   1.0    0.07    1.03    1.43   194.42591   144.86349   328.55121
   247  H   1.0    0.05    1.03    1.43   197.05127   142.91814   327.81850
   248  H   1.0    0.09    1.03    1.43   199.28971   143.75693   323.98596
   249  H   1.0    0.11    1.03    1.43   199.43789   146.83621   322.88050
   250  N   5.0   -0.14    3.53    2.10   188.43949   141.69577   327.23987
   251  C   4.0    0.05    4.36    4.31   186.10497   142.15036   328.60465
   252  C   4.0    0.17    3.49    3.11   185.53620   139.81870   330.22562
   253  O   6.0   -0.24    1.24    1.80   185.11168   139.97627   332.49934
   254  C   4.0   -0.06    4.11    3.82   183.96667   142.68814   326.75999
   255  H   1.0    0.12    1.11    1.45   188.36388   141.68455   325.32284
   256  H   1.0    0.07    1.05    1.44   186.37486   143.74010   329.91019
   257  H   1.0    0.06    1.00    1.43   182.21059   142.96957   327.78448
   258  H   1.0    0.06    1.00    1.43   184.39603   144.38135   325.68159
   259  H   1.0    0.07    1.00    1.43   183.74483   141.10873   325.46520
   260  N   5.0   -0.13    3.42    2.03   185.58621   137.65333   328.94883
   261  C   4.0    0.04    4.15    3.91   185.11242   135.23384   330.11639
   262  C   4.0    0.12    3.19    3.03   186.31488   135.06446   332.72401
   263  O   6.0   -0.23    1.12    1.80   185.03941   134.59864   334.59862
   264  H   1.0    0.12    1.11    1.45   185.73914   137.64875   327.02977
   265  H   1.0    0.07    1.02    1.43   183.07855   134.90496   330.33539
   266  H   1.0    0.06    1.03    1.43   185.92073   133.76523   328.91448
   267  H   1.0    0.10    1.07    1.44   197.88653   123.11929   320.03551
   268  H   1.0    0.06    1.05    1.44   203.15566   126.16431   321.73471
   269  H   1.0    0.09    1.07    1.44   205.28004   129.36027   313.55705
   270  H   1.0    0.07    1.05    1.44   211.60491   127.40720   313.72042
   271  H   1.0    0.10    1.07    1.44   209.96903   128.22599   305.41162
   272  H   1.0    0.08    1.05    1.44   214.68061   131.75462   306.03265
   273  H   1.0    0.10    1.07    1.44   198.28497   136.03949   294.95198
   274  H   1.0    0.09    1.05    1.44   188.17411   135.33520   332.92654

  Z AO/shell   Hii/eV     exponent
  1     Wed Apr 25 08:07:45 CEST 2018   EN: 2.200 GM2: 0.406  GM3: 0.0800  RAES: 1.40
     1s    -10.707211    1.230000
  6     Wed Apr 25 08:07:45 CEST 2018   EN: 2.550 GM2: 0.538  GM3: 0.1500  RAES: 3.00
     2s    -13.970922    2.096432
     2p    -10.063292    1.800000
  7     Wed Apr 25 08:07:45 CEST 2018   EN: 3.040 GM2: 0.461  GM3:-0.0640  RAES: 1.90
     2s    -16.686243    2.339881
     2p    -12.523956    2.014332
  8     Wed Apr 25 08:07:45 CEST 2018   EN: 3.440 GM2: 0.452  GM3:-0.0517  RAES: 1.80
     2s    -20.229985    2.439742
     2p    -15.503117    2.137023
 16     Tue Apr 24 11:44:34 CEST 2018   EN: 2.580 GM2: 0.340  GM3:-0.0502  RAES: 3.10
     3s    -20.029654    1.981333
     3p    -11.377694    2.025643
     3d     -0.420282    1.702555
 no old-style atom pair restraining (fixing) potential

molecular fragmentation (1/2 indicates fragments):
111111111111111111122222222222222222222222222222222222222222222222222222
222222222222222222222222222222222222222222222222222222222222222222222222
222222222222222222222222222222222222222222222222222222222222222222222222
2222222222222222222222222222222222222222222222222211222222
# atoms in fragment 1/2:    21   253
 fragment masses (1/2) :      115.17     1718.06
CMA distance (Bohr)    :  13.628
constraining FC (au)   :  0.0500
           ------------------------------------------------- 
          |        Self-Consistent Charge Iterations        |
           ------------------------------------------------- 

 Ncao       : 661
 Nao        : 660
 Nshell     : 402
 Nel        : 726
 T(el)      :   500.0
 intcut     :    35.0
 scfconv/Eh :  0.100E-06
   qconv/e  :  0.100E-04
 intneglect :  0.100E-08
 broydamp   :      0.400
 iter      E             dE          RMSdq      gap      omega  full diag
   1   -414.9434262 -0.414943E+03  0.455E+00    2.54       0.0  T
   2   -415.9224988 -0.979073E+00  0.209E+00    1.79       1.0  T
   3   -415.9799549 -0.574560E-01  0.118E+00    2.30       1.0  T
   4   -416.0415888 -0.616339E-01  0.241E-01    1.96       1.0  T
   5   -416.0449091 -0.332037E-02  0.113E-01    2.10       1.0  T
   6   -416.0453450 -0.435877E-03  0.443E-02    2.07       1.0  T
   7   -416.0454499 -0.104942E-03  0.212E-02    2.09       1.0  T
   8   -416.0454615 -0.115684E-04  0.907E-03    2.08       1.0  T
   9   -416.0454655 -0.400895E-05  0.373E-03    2.09       1.6  T
  10   -416.0454659 -0.402657E-06  0.165E-03    2.09       3.7  T
  11   -416.0454660 -0.993479E-07  0.778E-04    2.09       7.8  T
  12   -416.0454660 -0.227533E-07  0.294E-04    2.09      20.5  T
  13   -416.0454661 -0.255079E-08  0.160E-04    2.09      37.8  T
  14   -416.0454661 -0.862826E-09  0.565E-05    2.09     106.9  T
  15   -416.0454661 -0.128580E-09  0.250E-05    2.09     241.7  T
speedup 15.96
cpu  time for SCC   15.28 s
wall time for SCC    0.96 s

   *** convergence criteria satisfied after 15 iterations ***

          eigenvalues
 #    :         351        352        353        354        355        356        357        358
 occ. :        2.000      2.000      2.000      2.000      2.000      2.000      2.000      2.000
 eps  :       -10.911    -10.893    -10.841    -10.811    -10.794    -10.637    -10.621    -10.569
 #    :         359        360        361        362        363        364        365        366
 occ. :        2.000      2.000      2.000      2.000      2.000      0.000      0.000      0.000
 eps  :       -10.545    -10.085     -9.938     -9.814     -9.802     -7.715     -7.640     -7.526
 #    :         367        368        369        370        371        372        373        374
 occ. :        0.000      0.000      0.000      0.000      0.000      0.000      0.000      0.000
 eps  :        -7.512     -6.837     -6.685     -6.591     -6.535     -6.484     -6.369     -6.280


   #   Z            q   n(s)   n(p)   n(d)      C6AA      α(0)
   1   7 N     -0.395  1.314  4.080  0.000    30.221     8.165
   2   6 C      0.039  1.058  2.904  0.000    19.947     6.362
   3   6 C      0.206  1.092  2.702  0.000    23.620     7.959
   4   8 O     -0.379  1.747  4.631  0.000    21.264     6.182
   5   6 C     -0.077  1.061  3.015  0.000    21.961     6.671
   6   6 C     -0.019  1.058  2.960  0.000    20.873     6.498
   7   6 C     -0.113  1.040  3.073  0.000    22.713     6.795
   8   6 C     -0.117  1.040  3.077  0.000    22.793     6.808
   9   1 H      0.166  0.834  0.000  0.000     1.295     1.782
  10   1 H      0.059  0.941  0.000  0.000     2.208     2.324
  11   1 H      0.052  0.948  0.000  0.000     2.292     2.368
  12   1 H      0.051  0.949  0.000  0.000     2.304     2.374
  13   1 H      0.034  0.966  0.000  0.000     2.524     2.485
  14   1 H      0.039  0.961  0.000  0.000     2.456     2.451
  15   1 H      0.033  0.967  0.000  0.000     2.550     2.497
  16   1 H      0.038  0.962  0.000  0.000     2.473     2.459
  17   1 H      0.035  0.965  0.000  0.000     2.520     2.482
  18   1 H      0.055  0.945  0.000  0.000     2.257     2.349
  19   1 H      0.045  0.955  0.000  0.000     2.379     2.412
  20   7 N     -0.393  1.313  4.080  0.000    30.175     8.158
  21   6 C      0.039  1.058  2.903  0.000    19.932     6.359
  22   6 C      0.195  1.092  2.713  0.000    23.844     7.997
  23   8 O     -0.372  1.761  4.612  0.000    21.134     6.164
  24   6 C     -0.019  1.066  2.952  0.000    20.870     6.498
  25   6 C     -0.058  1.049  3.009  0.000    21.608     6.618
  26   6 C     -0.111  1.038  3.072  0.000    22.670     6.789
  27   6 C     -0.103  1.034  3.070  0.000    22.534     6.770
  28   1 H      0.176  0.824  0.000  0.000     1.236     1.741
  29   1 H      0.051  0.949  0.000  0.000     2.308     2.376
  30   1 H      0.028  0.972  0.000  0.000     2.622     2.532
  31   1 H      0.048  0.952  0.000  0.000     2.341     2.393
  32   1 H      0.034  0.966  0.000  0.000     2.532     2.488
  33   1 H      0.041  0.959  0.000  0.000     2.430     2.438
  34   1 H      0.027  0.973  0.000  0.000     2.623     2.533
  35   1 H      0.045  0.955  0.000  0.000     2.385     2.415
  36   1 H      0.039  0.961  0.000  0.000     2.462     2.454
  37   1 H      0.038  0.962  0.000  0.000     2.479     2.462
  38   1 H      0.040  0.960  0.000  0.000     2.453     2.449
  39   7 N     -0.384  1.314  4.069  0.000    29.919     8.124
  40   6 C      0.048  1.056  2.897  0.000    19.795     6.338
  41   6 C      0.202  1.094  2.704  0.000    23.695     7.972
  42   8 O     -0.395  1.758  4.637  0.000    21.582     6.228
  43   6 C     -0.066  1.058  3.008  0.000    21.767     6.641
  44   6 C     -0.007  1.058  2.949  0.000    20.668     6.466
  45   6 C     -0.109  1.039  3.069  0.000    22.635     6.783
  46   6 C     -0.114  1.041  3.073  0.000    22.741     6.799
  47   1 H      0.160  0.840  0.000  0.000     1.337     1.811
  48   1 H      0.042  0.958  0.000  0.000     2.427     2.436
  49   1 H      0.062  0.938  0.000  0.000     2.172     2.305
  50   1 H      0.037  0.963  0.000  0.000     2.483     2.464
  51   1 H      0.036  0.964  0.000  0.000     2.507     2.476
  52   1 H      0.048  0.952  0.000  0.000     2.339     2.392
  53   1 H      0.036  0.964  0.000  0.000     2.507     2.476
  54   1 H      0.036  0.964  0.000  0.000     2.496     2.471
  55   1 H      0.048  0.952  0.000  0.000     2.340     2.392
  56   1 H      0.038  0.962  0.000  0.000     2.469     2.457
  57   1 H      0.033  0.967  0.000  0.000     2.540     2.492
  58   7 N     -0.399  1.307  4.092  0.000    30.343     8.181
  59   6 C      0.027  1.062  2.911  0.000    20.133     6.390
  60   6 C      0.269  1.046  2.684  0.000    22.452     7.760
  61   8 O     -0.478  1.728  4.750  0.000    23.297     6.471
  62   6 C     -0.018  1.064  2.954  0.000    20.860     6.496
  63   6 C     -0.124  1.040  3.084  0.000    22.931     6.828
  64   6 C     -0.121  1.042  3.079  0.000    22.875     6.819
  65   1 H      0.163  0.837  0.000  0.000     1.316     1.797
  66   1 H      0.036  0.964  0.000  0.000     2.504     2.475
  67   1 H      0.040  0.960  0.000  0.000     2.452     2.449
  68   1 H      0.047  0.953  0.000  0.000     2.357     2.401
  69   1 H      0.049  0.951  0.000  0.000     2.327     2.386
  70   1 H      0.049  0.951  0.000  0.000     2.329     2.386
  71   1 H      0.044  0.956  0.000  0.000     2.399     2.422
  72   1 H      0.056  0.944  0.000  0.000     2.249     2.345
  73   1 H      0.039  0.961  0.000  0.000     2.459     2.452
  74   7 N     -0.171  1.243  3.928  0.000    24.702     7.382
  75   6 C      0.010  1.065  2.925  0.000    20.415     6.433
  76   6 C      0.292  1.037  2.672  0.000    22.054     7.690
  77   8 O     -0.457  1.731  4.727  0.000    22.856     6.410
  78   6 C      0.064  1.042  2.894  0.000    19.718     6.361
  79   8 O     -0.477  1.718  4.760  0.000    22.412     6.391
  80   1 H      0.220  0.780  0.000  0.000     1.008     1.573
  81   1 H      0.083  0.917  0.000  0.000     1.953     2.186
  82   1 H      0.053  0.947  0.000  0.000     2.283     2.363
  83   1 H      0.051  0.949  0.000  0.000     2.311     2.377
  84   1 H      0.357  0.643  0.000  0.000     0.571     1.187
  85   7 N     -0.179  1.239  3.940  0.000    24.885     7.409
  86   6 C     -0.001  1.066  2.935  0.000    20.612     6.465
  87   6 C      0.266  1.040  2.693  0.000    22.509     7.769
  88   8 O     -0.452  1.723  4.730  0.000    22.751     6.395
  89   6 C     -0.116  1.063  3.053  0.000    22.701     6.782
  90   6 C      0.289  1.034  2.677  0.000    22.106     7.698
  91   8 O     -0.499  1.764  4.735  0.000    23.760     6.535
  92   7 N     -0.280  1.272  4.008  0.000    27.237     7.751
  93   1 H      0.203  0.797  0.000  0.000     1.093     1.637
  94   1 H      0.114  0.886  0.000  0.000     1.662     2.016
  95   1 H      0.082  0.918  0.000  0.000     1.957     2.188
  96   1 H      0.115  0.885  0.000  0.000     1.653     2.011
  97   1 H      0.230  0.770  0.000  0.000     0.966     1.540
  98   1 H      0.228  0.772  0.000  0.000     0.973     1.545
  99   7 N     -0.156  1.231  3.924  0.000    24.366     7.331
 100   6 C      0.008  1.062  2.930  0.000    20.456     6.440
 101   6 C      0.264  1.044  2.691  0.000    22.543     7.775
 102   8 O     -0.497  1.738  4.759  0.000    23.711     6.529
 103   6 C     -0.070  1.052  3.018  0.000    21.804     6.643
 104   6 C     -0.016  1.062  2.954  0.000    20.860     6.504
 105  16 S     -0.209  1.912  4.247  0.050   149.960    20.611
 106   6 C     -0.058  1.053  3.005  0.000    21.685     6.643
 107   1 H      0.201  0.799  0.000  0.000     1.103     1.645
 108   1 H      0.110  0.890  0.000  0.000     1.695     2.036
 109   1 H      0.064  0.936  0.000  0.000     2.148     2.292
 110   1 H      0.069  0.931  0.000  0.000     2.102     2.267
 111   1 H      0.054  0.946  0.000  0.000     2.266     2.354
 112   1 H      0.054  0.946  0.000  0.000     2.272     2.357
 113   1 H      0.065  0.935  0.000  0.000     2.146     2.291
 114   1 H      0.056  0.944  0.000  0.000     2.245     2.343
 115   1 H      0.043  0.957  0.000  0.000     2.408     2.427
 116   7 N     -0.179  1.251  3.928  0.000    24.870     7.407
 117   6 C      0.002  1.068  2.930  0.000    20.552     6.455
 118   6 C      0.268  1.041  2.691  0.000    22.470     7.762
 119   8 O     -0.483  1.742  4.742  0.000    23.413     6.487
 120   6 C      0.063  1.039  2.898  0.000    19.729     6.363
 121   8 O     -0.462  1.714  4.748  0.000    22.089     6.345
 122   1 H      0.256  0.744  0.000  0.000     0.859     1.452
 123   1 H      0.072  0.928  0.000  0.000     2.059     2.244
 124   1 H      0.081  0.919  0.000  0.000     1.970     2.195
 125   1 H      0.042  0.958  0.000  0.000     2.424     2.435
 126   1 H      0.334  0.666  0.000  0.000     0.626     1.243
 127   7 N     -0.181  1.249  3.933  0.000    24.931     7.416
 128   6 C      0.012  1.066  2.922  0.000    20.382     6.428
 129   6 C      0.274  1.041  2.685  0.000    22.362     7.744
 130   8 O     -0.491  1.740  4.751  0.000    23.592     6.512
 131   6 C     -0.099  1.061  3.038  0.000    22.386     6.736
 132   6 C     -0.089  1.053  3.036  0.000    22.196     6.707
 133   6 C     -0.029  1.053  2.976  0.000    21.180     6.567
 134   7 N     -0.137  1.207  3.931  0.000    23.977     7.273
 135   6 C      0.228  1.019  2.754  0.000    23.214     7.888
 136   7 N     -0.236  1.219  4.017  0.000    26.180     7.599
 137   7 N     -0.254  1.231  4.023  0.000    26.605     7.661
 138   1 H      0.234  0.766  0.000  0.000     0.947     1.525
 139   1 H      0.075  0.925  0.000  0.000     2.033     2.230
 140   1 H      0.085  0.915  0.000  0.000     1.925     2.170
 141   1 H      0.091  0.909  0.000  0.000     1.870     2.139
 142   1 H      0.068  0.932  0.000  0.000     2.106     2.270
 143   1 H      0.083  0.917  0.000  0.000     1.948     2.182
 144   1 H      0.077  0.923  0.000  0.000     2.011     2.218
 145   1 H      0.089  0.911  0.000  0.000     1.886     2.148
 146   1 H      0.239  0.761  0.000  0.000     0.928     1.509
 147   1 H      0.237  0.763  0.000  0.000     0.937     1.516
 148   1 H      0.253  0.747  0.000  0.000     0.872     1.463
 149   1 H      0.247  0.753  0.000  0.000     0.895     1.482
 150   1 H      0.246  0.754  0.000  0.000     0.899     1.485
 151   7 N     -0.184  1.250  3.933  0.000    24.982     7.423
 152   6 C      0.014  1.063  2.923  0.000    20.350     6.424
 153   6 C      0.275  1.041  2.684  0.000    22.348     7.741
 154   8 O     -0.496  1.741  4.755  0.000    23.686     6.525
 155   6 C     -0.148  1.046  3.102  0.000    23.406     6.898
 156   1 H      0.243  0.757  0.000  0.000     0.912     1.496
 157   1 H      0.078  0.922  0.000  0.000     1.996     2.210
 158   1 H      0.077  0.923  0.000  0.000     2.006     2.215
 159   1 H      0.097  0.903  0.000  0.000     1.811     2.105
 160   1 H      0.067  0.933  0.000  0.000     2.118     2.276
 161   7 N     -0.177  1.246  3.931  0.000    24.830     7.401
 162   6 C      0.019  1.061  2.920  0.000    20.257     6.408
 163   6 C      0.275  1.041  2.684  0.000    22.353     7.742
 164   8 O     -0.501  1.743  4.758  0.000    23.802     6.541
 165   6 C     -0.071  1.055  3.016  0.000    21.850     6.654
 166   6 C     -0.104  1.060  3.044  0.000    22.483     6.750
 167   6 C      0.292  1.036  2.672  0.000    22.043     7.688
 168   8 O     -0.506  1.759  4.748  0.000    23.923     6.558
 169   7 N     -0.293  1.267  4.026  0.000    27.545     7.795
 170   1 H      0.233  0.767  0.000  0.000     0.954     1.530
 171   1 H      0.077  0.923  0.000  0.000     2.015     2.220
 172   1 H      0.073  0.927  0.000  0.000     2.049     2.238
 173   1 H      0.054  0.946  0.000  0.000     2.274     2.358
 174   1 H      0.066  0.934  0.000  0.000     2.127     2.281
 175   1 H      0.084  0.916  0.000  0.000     1.936     2.176
 176   1 H      0.226  0.774  0.000  0.000     0.982     1.553
 177   1 H      0.217  0.783  0.000  0.000     1.022     1.584
 178   7 N     -0.178  1.247  3.930  0.000    24.850     7.404
 179   6 C      0.018  1.066  2.915  0.000    20.265     6.408
 180   6 C      0.279  1.041  2.680  0.000    22.286     7.730
 181   8 O     -0.510  1.745  4.765  0.000    24.007     6.569
 182   6 C     -0.026  1.068  2.958  0.000    20.996     6.517
 183   6 C     -0.067  1.051  3.016  0.000    21.782     6.644
 184   6 C     -0.116  1.037  3.078  0.000    22.768     6.804
 185   6 C     -0.113  1.038  3.076  0.000    22.726     6.798
 186   1 H      0.230  0.770  0.000  0.000     0.963     1.537
 187   1 H      0.058  0.942  0.000  0.000     2.217     2.328
 188   1 H      0.060  0.940  0.000  0.000     2.203     2.321
 189   1 H      0.034  0.966  0.000  0.000     2.532     2.488
 190   1 H      0.053  0.947  0.000  0.000     2.283     2.363
 191   1 H      0.064  0.936  0.000  0.000     2.154     2.295
 192   1 H      0.034  0.966  0.000  0.000     2.531     2.488
 193   1 H      0.040  0.960  0.000  0.000     2.455     2.450
 194   1 H      0.043  0.957  0.000  0.000     2.403     2.424
 195   1 H      0.047  0.953  0.000  0.000     2.355     2.400
 196   1 H      0.043  0.957  0.000  0.000     2.414     2.430
 197   7 N     -0.192  1.255  3.937  0.000    25.168     7.451
 198   6 C      0.023  1.062  2.915  0.000    20.197     6.400
 199   6 C      0.286  1.040  2.674  0.000    22.150     7.707
 200   8 O     -0.510  1.746  4.764  0.000    24.006     6.569
 201   6 C     -0.088  1.064  3.025  0.000    22.181     6.704
 202   6 C     -0.017  1.060  2.957  0.000    20.851     6.495
 203   6 C     -0.113  1.039  3.073  0.000    22.710     6.795
 204   6 C     -0.119  1.039  3.080  0.000    22.841     6.815
 205   1 H      0.248  0.752  0.000  0.000     0.892     1.479
 206   1 H      0.069  0.931  0.000  0.000     2.101     2.267
 207   1 H      0.076  0.924  0.000  0.000     2.016     2.220
 208   1 H      0.071  0.929  0.000  0.000     2.078     2.254
 209   1 H      0.063  0.937  0.000  0.000     2.163     2.300
 210   1 H      0.045  0.955  0.000  0.000     2.385     2.415
 211   1 H      0.042  0.958  0.000  0.000     2.421     2.433
 212   1 H      0.022  0.978  0.000  0.000     2.700     2.569
 213   1 H      0.045  0.955  0.000  0.000     2.383     2.414
 214   1 H      0.030  0.970  0.000  0.000     2.584     2.514
 215   1 H      0.047  0.953  0.000  0.000     2.356     2.400
 216   7 N     -0.185  1.249  3.936  0.000    25.005     7.427
 217   6 C      0.022  1.058  2.920  0.000    20.200     6.400
 218   6 C      0.272  1.041  2.687  0.000    22.406     7.751
 219   8 O     -0.516  1.760  4.755  0.000    24.131     6.586
 220   6 C     -0.063  1.052  3.010  0.000    21.695     6.631
 221   6 C     -0.103  1.060  3.043  0.000    22.458     6.746
 222   6 C      0.291  1.037  2.672  0.000    22.069     7.692
 223   8 O     -0.506  1.763  4.743  0.000    23.908     6.556
 224   7 N     -0.283  1.262  4.020  0.000    27.303     7.760
 225   1 H      0.238  0.762  0.000  0.000     0.930     1.510
 226   1 H      0.083  0.917  0.000  0.000     1.948     2.183
 227   1 H      0.074  0.926  0.000  0.000     2.047     2.237
 228   1 H      0.052  0.948  0.000  0.000     2.301     2.372
 229   1 H      0.089  0.911  0.000  0.000     1.885     2.147
 230   1 H      0.076  0.924  0.000  0.000     2.017     2.221
 231   1 H      0.221  0.779  0.000  0.000     1.003     1.569
 232   1 H      0.228  0.772  0.000  0.000     0.976     1.547
 233   7 N     -0.188  1.250  3.938  0.000    25.080     7.438
 234   6 C      0.024  1.063  2.912  0.000    20.167     6.394
 235   6 C      0.282  1.040  2.679  0.000    22.234     7.722
 236   8 O     -0.514  1.761  4.753  0.000    24.091     6.581
 237   6 C     -0.071  1.056  3.016  0.000    21.853     6.654
 238   6 C     -0.097  1.057  3.040  0.000    22.351     6.730
 239   6 C      0.293  1.036  2.670  0.000    22.023     7.684
 240   8 O     -0.502  1.754  4.747  0.000    23.818     6.543
 241   7 N     -0.290  1.266  4.024  0.000    27.480     7.786
 242   1 H      0.234  0.766  0.000  0.000     0.949     1.526
 243   1 H      0.067  0.933  0.000  0.000     2.123     2.279
 244   1 H      0.083  0.917  0.000  0.000     1.946     2.181
 245   1 H      0.059  0.941  0.000  0.000     2.206     2.323
 246   1 H      0.055  0.945  0.000  0.000     2.261     2.351
 247   1 H      0.066  0.934  0.000  0.000     2.128     2.281
 248   1 H      0.231  0.769  0.000  0.000     0.962     1.536
 249   1 H      0.235  0.765  0.000  0.000     0.943     1.521
 250   7 N     -0.196  1.255  3.941  0.000    25.249     7.463
 251   6 C      0.029  1.059  2.912  0.000    20.083     6.381
 252   6 C      0.285  1.039  2.676  0.000    22.173     7.711
 253   8 O     -0.507  1.759  4.749  0.000    23.942     6.560
 254   6 C     -0.134  1.043  3.090  0.000    23.122     6.856
 255   1 H      0.239  0.761  0.000  0.000     0.927     1.508
 256   1 H      0.062  0.938  0.000  0.000     2.180     2.309
 257   1 H      0.067  0.933  0.000  0.000     2.119     2.276
 258   1 H      0.078  0.922  0.000  0.000     2.002     2.212
 259   1 H      0.074  0.926  0.000  0.000     2.041     2.234
 260   7 N     -0.178  1.248  3.931  0.000    24.865     7.406
 261   6 C     -0.015  1.047  2.968  0.000    20.910     6.524
 262   6 C      0.223  1.076  2.701  0.000    23.309     7.906
 263   8 O     -0.374  1.750  4.624  0.000    21.165     6.168
 264   1 H      0.237  0.763  0.000  0.000     0.936     1.515
 265   1 H      0.089  0.911  0.000  0.000     1.888     2.149
 266   1 H      0.102  0.898  0.000  0.000     1.765     2.078
 267   1 H      0.187  0.813  0.000  0.000     1.175     1.698
 268   1 H      0.065  0.935  0.000  0.000     2.140     2.287
 269   1 H      0.183  0.817  0.000  0.000     1.199     1.715
 270   1 H      0.065  0.935  0.000  0.000     2.140     2.288
 271   1 H      0.179  0.821  0.000  0.000     1.222     1.731
 272   1 H      0.068  0.932  0.000  0.000     2.103     2.268
 273   1 H      0.182  0.818  0.000  0.000     1.200     1.716
 274   1 H      0.063  0.937  0.000  0.000     2.160     2.298

 Mol. C6AA /au·bohr⁶  :     662307.381215
 Mol. C8AA /au·bohr⁸  :   14696667.006920
 Mol. α(0) /au        :       1213.988590

 
molecular dipole:
                 x           y           z       tot (Debye)
 q only:      183.960     130.082     281.231
   full:      185.503     130.286     278.616     912.973
molecular quadrupole (traceless):
                xx          xy          yy          xz          yz          zz
 q only:   -13711.252   35844.134  -38947.156   77477.517   54436.014   52658.408
  q+dip:   -12345.143   36219.031  -38372.833   77450.063   53982.190   50717.976
   full:   -12345.228   36220.064  -38368.462   77449.371   53983.793   50713.690
speedup 15.96
cpu  time for grad   17.13 s
wall time for grad    1.07 s

SCC energy    :    -416.0591391
rep           :       4.9537402
ES            :       1.1823883
AES           :      -0.0274716
AXC           :       0.1406719
disp          :      -0.3479728
XB            :       0.0000000
fix           :       0.0000000
Gborn         :       0.0000000
Gsasa         :       0.0000000
Ghb           :       0.0000000
Gshift        :       0.0000000
Gsolv         :      -0.3016877     -189.31
Etot ala COSMO:    -416.0591391
grad norm     :       0.4424824
total E       :    -411.0765115
atomizationE  :      74.5329562    46770.14
(atE without considering molecular charge,
 total energy contains solvation terms)
H-L gap (eV)  :          2.0867

------------------------------------------------------------------------
 * finished run on 2019/02/13 at 00:18:34.996     
------------------------------------------------------------------------
 total:
 * wall-time:     0 d,  0 h,  0 min,  1.270 sec
 *  cpu-time:     0 d,  0 h,  0 min, 19.842 sec
 * ratio c/w:    15.621 speedup
 SCF:
 * wall-time:     0 d,  0 h,  0 min,  1.154 sec
 *  cpu-time:     0 d,  0 h,  0 min, 18.415 sec
 * ratio c/w:    15.961 speedup

