      -----------------------------------------------------------      
     |                   =====================                   |     
     |                           x T B                           |     
     |                   =====================                   |     
     |                         S. Grimme                         |     
     |          Mulliken Center for Theoretical Chemistry        |     
     |                    University of Bonn                     |     
     |                Version 6.1 RC1 (SAW190329)                |     
      -----------------------------------------------------------      

   This program is distributed in the hope that it will be useful,
   but WITHOUT ANY WARRANTY; without even the implied warranty of
   MERCHANTABILITY or FITNESS FOR A PARTICULAR PURPOSE.
   
   FOR NON-COMMERCIAL, ACADEMIA USE ONLY.
   
   Cite this work as:
   S. Grimme, C. Bannwarth, P. Shushkov, J. Comput. Theory Chem., 2017,
   13, 1989-2009. DOI: 10.1021/acs.jctc.7b00118
   C. Bannwarth, S. Ehlert and S. Grimme., J. Comput. Theory Chem., 2019,
   just accepted. DOI: 10.1021/acs.jctc.8b01176
   
   for sTDA-xTB:
   S. Grimme and C. Bannwarth, J. Chem. Phys., 2016, 145, 054103.
   DOI: 10.1063/1.4959605
   
   in the mass-spec context:
   V. Asgeirsson, C. Bauer and S. Grimme, Chem. Sci., 2017, 8, 4879.
   DOI: 10.1039/c7sc00601b
   
   for metadynamics refer to:
   S. Grimme, ChemRxiv, Preprint. DOI: 10.26434/chemrxiv.7660532.v1
   
   with help from (in alphabetical order)
   C. Bannwarth, F. Bohle, G. Brandenburg, E. Caldeweyher, M. Checinski,
   S. Dohm, S. Ehlert, S. Ehrlich, F. März, H. Neugebauer, J. Pisarek,
   P. Pracht, P. Shushkov, and S. Spicher.
   
 * started run on 2019/05/31 at 07:36:18.418     

           -------------------------------------------------
          |                Calculation Setup                |
           -------------------------------------------------

          program call               : /home/lum/install/xtb/xtb-190329/bin/xtb xtb_tmp.xyz --chrg -1 --grad --gfn 2 --etemp 500 --acc 0.1 --gbsa h2o --parallel 1
          hostname                   : cu05
          coordinate file            : xtb_tmp.xyz
          omp threads                :                     1
          number of atoms            :                   374
          number of electrons        :                   986
          charge                     :                    -1
          spin                       :                   0.0
          first test random number   :      0.73046279935601


molecular fragmentation (1/2 indicates fragments):
111111111111111111122222222222222222222222222222222222222222222222222222
222222222222222222222222222222222222222222222222222222222222222222222222
222222222222222222222222222222222222222222222222222222222222222222222222
222222222222222222222222222222222222222222222222222222222222222222222222
222222222222222222222222222222222222222222222222222222222222222222222222
11222222222222
# atoms in fragment 1/2:    21   353
 fragment masses (1/2) :      115.17     2363.88
CMA distance (Bohr)    :  18.280
constraining FC (au)   :  0.0500

########################################################################
# WARNING! Please study the warnings concerning your input carefully
#  - XTBPATH is not set, using XTBHOME instead
########################################################################

           ------------------------------------------------- 
          |                 G F N 2 - x T B                 |
          | Geometry, Frequencies, Noncovalent interactions |
          |            JCTC 2018 parametrisation            |
           ------------------------------------------------- 
 
             k(s)              :                1.8500
             k(p)              :                2.2300
             k(d)              :                2.2300
             k(f)              :                2.0000
             kEN (H0ij)        :               -2.0000
             D4 a1             :                0.5200
             D4 a2             :                5.0000
             D4 s6             :                1.0000
             D4 s8             :                2.7000
             D4 s9             :                5.0000
             alphaj            :                2.0000

  Z AO/shell   Hii/eV     exponent
  1     Wed Apr 25 08:07:45 CEST 2018   EN: 2.200 GM2: 0.406  GM3: 0.0800  RAES: 1.40
     1s    -10.707211    1.230000
  6     Wed Apr 25 08:07:45 CEST 2018   EN: 2.550 GM2: 0.538  GM3: 0.1500  RAES: 3.00
     2s    -13.970922    2.096432
     2p    -10.063292    1.800000
  7     Wed Apr 25 08:07:45 CEST 2018   EN: 3.040 GM2: 0.461  GM3:-0.0640  RAES: 1.90
     2s    -16.686243    2.339881
     2p    -12.523956    2.014332
  8     Wed Apr 25 08:07:45 CEST 2018   EN: 3.440 GM2: 0.452  GM3:-0.0517  RAES: 1.80
     2s    -20.229985    2.439742
     2p    -15.503117    2.137023

 Solvent             : h2o
 Using internal parameter file: .param_gbsa2_h2o
 Gsolv ref. state (COSMO-RS): gsolv [1 M gas/solution]
 temperature (mdtemp)       :    298.150000000000     
 dielectric constant        :    80.2000000000000     
 rho                        :    1.00000000000000     
 mass                       :    18.0000000000000     
 surface tension            :    15.5689454083859     
 probe radius               :   0.975313790000000     
 vdW radii scaling          :    1.00000000000000     
 Gshift (Eh)                :   1.857443126794793E-003
 c1                         :    1.55243817000000     
 soset                      :   0.130326360000000     
 HB correction              :  T
 Number of grid points      :          230

            Z     q(EN)     CN     RAES       Cart. coordinates
     1  N   5.0   -0.72    3.00    1.93    37.30026    76.84232    56.73095
     2  C   4.0    0.05    3.98    3.58    37.86743    78.97620    58.36373
     3  C   4.0    0.06    3.00    3.02    36.41739    81.30360    57.44910
     4  O   6.0   -0.44    1.00    1.80    35.14141    82.60417    58.88785
     5  C   4.0   -0.15    3.99    3.60    40.70759    79.51801    58.32900
     6  C   4.0   -0.10    3.98    3.58    41.44658    81.72242    60.08193
     7  C   4.0   -0.23    3.98    3.59    42.39992    80.73979    62.62168
     8  C   4.0   -0.24    3.98    3.59    43.44985    83.38561    58.83542
     9  H   1.0    0.25    1.00    1.43    38.79525    75.87266    56.01907
    10  H   1.0    0.11    0.99    1.43    37.21881    78.56392    60.29157
    11  H   1.0    0.10    0.99    1.43    41.71701    77.80802    58.88927
    12  H   1.0    0.10    0.99    1.43    41.23601    79.96512    56.38721
    13  H   1.0    0.13    0.99    1.43    39.76976    82.88761    60.41889
    14  H   1.0    0.10    0.99    1.43    42.85383    82.30460    63.87194
    15  H   1.0    0.10    0.99    1.43    40.98175    79.56832    63.53551
    16  H   1.0    0.10    0.99    1.43    44.09832    79.61643    62.34720
    17  H   1.0    0.10    0.99    1.43    43.90292    84.97943    60.04768
    18  H   1.0    0.09    0.99    1.43    45.18166    82.32587    58.51938
    19  H   1.0    0.10    0.99    1.43    42.77281    84.11394    57.03577
    20  N   5.0   -0.70    3.00    1.93    29.36945    81.24143    58.38934
    21  C   4.0    0.06    3.98    3.58    28.81954    81.60769    61.04762
    22  C   4.0    0.08    3.00    3.02    29.04159    84.40546    61.74719
    23  O   6.0   -0.48    1.00    1.80    27.43235    85.48720    63.01666
    24  C   4.0   -0.21    3.99    3.60    30.63959    80.05020    62.64067
    25  H   1.0    0.27    1.00    1.43    30.76434    80.01139    57.92616
    26  H   1.0    0.10    0.99    1.43    26.85429    81.04489    61.41073
    27  H   1.0    0.10    0.99    1.43    30.16969    80.23759    64.62950
    28  H   1.0    0.09    0.99    1.43    30.50237    78.07798    62.08510
    29  H   1.0    0.13    0.99    1.43    32.56504    80.69075    62.31816
    30  N   5.0   -0.70    3.00    1.93    23.58352    88.22952    59.66978
    31  C   4.0    0.08    3.99    3.60    21.41801    87.84429    61.31003
    32  C   4.0    0.28    3.01    3.02    21.68642    89.53780    63.64380
    33  O   6.0   -0.41    1.00    1.80    20.00786    90.97947    64.33491
    34  C   4.0   -0.09    3.98    3.58    21.16516    85.04921    62.04855
    35  C   4.0   -0.23    3.98    3.59    19.09862    84.72273    64.03736
    36  C   4.0   -0.24    3.98    3.59    20.57074    83.44474    59.72340
    37  H   1.0    0.27    1.00    1.43    24.57530    86.70464    59.07187
    38  H   1.0    0.10    0.99    1.43    19.69857    88.46987    60.32332
    39  H   1.0    0.14    0.99    1.43    22.98027    84.44815    62.83772
    40  H   1.0    0.09    0.99    1.43    18.89112    82.73612    64.51242
    41  H   1.0    0.12    0.99    1.43    19.54443    85.76878    65.74726
    42  H   1.0    0.10    0.99    1.43    17.30056    85.40807    63.31606
    43  H   1.0    0.09    0.99    1.43    20.33501    81.47995    60.27369
    44  H   1.0    0.09    0.99    1.43    18.82878    84.08014    58.83762
    45  H   1.0    0.10    0.99    1.43    22.08502    83.54651    58.34057
    46  N   5.0   -0.49    3.01    1.93    23.85740    89.26457    64.89408
    47  C   4.0    0.07    3.99    3.60    24.42019    90.75020    67.12795
    48  C   4.0    0.10    3.00    3.02    23.90379    93.55464    66.62756
    49  O   6.0   -0.39    1.00    1.80    22.58681    94.81992    68.05496
    50  C   4.0   -0.14    3.99    3.59    27.18294    90.32201    67.90316
    51  C   4.0   -0.03    3.12    3.03    28.02406    92.11747    69.91163
    52  C   4.0    0.02    3.22    3.04    27.61449    91.96966    72.45636
    53  C   4.0    0.02    3.18    3.03    29.43851    94.37994    69.49513
    54  N   5.0   -0.48    3.10    1.94    28.68242    93.99806    73.65029
    55  C   4.0    0.12    3.22    3.04    29.82312    95.49904    71.89399
    56  C   4.0   -0.11    3.02    3.02    30.44696    95.53489    67.34985
    57  C   4.0   -0.11    3.02    3.02    31.16312    97.74093    72.18003
    58  C   4.0   -0.11    3.03    3.02    31.76830    97.75603    67.64741
    59  C   4.0   -0.11    3.03    3.02    32.12339    98.84930    70.02877
    60  H   1.0    0.29    1.00    1.43    25.20353    88.06813    64.23811
    61  H   1.0    0.14    0.99    1.43    23.13892    90.18415    68.66104
    62  H   1.0    0.11    0.99    1.43    27.37739    88.36824    68.53809
    63  H   1.0    0.12    0.99    1.43    28.35705    90.58954    66.22943
    64  H   1.0    0.11    1.00    1.43    26.65091    90.52155    73.49840
    65  H   1.0    0.22    1.00    1.43    28.76371    94.27737    75.52974
    66  H   1.0    0.11    0.99    1.43    30.21492    94.69332    65.50456
    67  H   1.0    0.11    1.00    1.43    31.45936    98.57735    74.01359
    68  H   1.0    0.11    0.99    1.43    32.56747    98.67849    66.00904
    69  H   1.0    0.10    0.99    1.43    33.17705   100.59222    70.16650
    70  N   5.0   -0.73    3.00    1.92    22.37280    88.77769    89.81032
    71  C   4.0   -0.00    3.98    3.59    21.02891    86.57614    88.90147
    72  C   4.0    0.27    3.01    3.02    21.26018    86.31410    86.03492
    73  O   6.0   -0.48    1.00    1.80    21.78526    84.29613    85.02843
    74  H   1.0    0.24    1.00    1.43    21.38339    90.14232    90.69970
    75  H   1.0    0.09    0.99    1.43    21.81089    84.85840    89.74813
    76  H   1.0    0.09    0.99    1.43    19.04116    86.75539    89.40652
    77  N   5.0   -0.49    3.01    1.93    20.82851    88.43454    84.73738
    78  C   4.0    0.07    3.99    3.61    20.87066    88.45384    82.00235
    79  C   4.0    0.29    3.01    3.02    23.50879    87.87568    80.97064
    80  O   6.0   -0.46    1.00    1.80    23.77656    86.71941    78.97915
    81  C   4.0   -0.15    3.99    3.60    20.00080    91.01690    80.97814
    82  C   4.0   -0.11    3.98    3.58    17.19562    91.60130    81.43646
    83  C   4.0   -0.24    3.98    3.59    16.65857    94.31199    80.58865
    84  C   4.0   -0.23    3.98    3.59    15.46504    89.76460    80.03938
    85  H   1.0    0.23    1.00    1.43    20.28004    90.04610    85.62220
    86  H   1.0    0.12    0.99    1.43    19.64204    86.94745    81.28276
    87  H   1.0    0.10    0.99    1.43    21.13664    92.48226    81.88154
    88  H   1.0    0.11    0.99    1.43    20.34200    91.03878    78.94559
    89  H   1.0    0.10    0.99    1.43    16.81020    91.47901    83.46104
    90  H   1.0    0.09    0.99    1.43    14.69164    94.80384    80.91965
    91  H   1.0    0.09    0.99    1.43    17.80526    95.65674    81.63773
    92  H   1.0    0.10    0.99    1.43    17.03176    94.54883    78.58278
    93  H   1.0    0.09    0.99    1.43    13.50744    90.34216    80.26655
    94  H   1.0    0.10    0.99    1.43    15.89538    89.74608    78.02976
    95  H   1.0    0.10    0.99    1.43    15.64404    87.85426    80.77128
    96  N   5.0   -0.48    3.01    1.93    25.45160    88.85163    82.25385
    97  C   4.0    0.06    3.99    3.61    28.05010    88.33911    81.50570
    98  C   4.0    0.29    3.01    3.02    28.52577    85.48270    81.63494
    99  O   6.0   -0.44    1.00    1.80    29.27478    84.28885    79.79504
   100  C   4.0   -0.15    3.98    3.59    29.89760    89.86828    83.13052
   101  C   4.0   -0.11    3.98    3.58    32.21682    90.78048    81.64881
   102  C   4.0   -0.24    3.98    3.59    33.71879    92.66897    83.23252
   103  C   4.0   -0.22    3.98    3.59    33.90060    88.57149    80.87227
   104  H   1.0    0.24    1.00    1.43    25.17292    89.80265    83.89257
   105  H   1.0    0.13    0.99    1.43    28.25721    88.84291    79.50418
   106  H   1.0    0.10    0.99    1.43    28.89020    91.50486    83.87948
   107  H   1.0    0.10    0.99    1.43    30.51377    88.73614    84.73943
   108  H   1.0    0.10    0.99    1.43    31.56991    91.73774    79.93389
   109  H   1.0    0.09    0.99    1.43    35.32629    93.37001    82.16452
   110  H   1.0    0.09    0.99    1.43    32.54929    94.26491    83.77893
   111  H   1.0    0.10    0.99    1.43    34.42911    91.76704    84.93632
   112  H   1.0    0.10    0.99    1.43    35.50025    89.24168    79.77184
   113  H   1.0    0.10    0.99    1.43    34.62691    87.60252    82.53426
   114  H   1.0    0.12    0.99    1.43    32.86925    87.20983    79.73270
   115  N   5.0   -0.49    3.01    1.93    28.03046    84.42068    83.86562
   116  C   4.0    0.07    4.00    3.62    28.27972    81.71277    84.19559
   117  C   4.0    0.30    3.01    3.02    26.90696    80.34937    82.04982
   118  O   6.0   -0.47    1.00    1.80    27.89453    78.60848    80.88381
   119  C   4.0   -0.09    3.98    3.59    27.25012    80.89003    86.78529
   120  C   4.0   -0.17    3.98    3.59    29.16757    81.58706    88.84325
   121  C   4.0   -0.22    3.98    3.59    26.70921    78.05469    86.78074
   122  C   4.0   -0.24    3.98    3.58    28.05150    81.50547    91.49432
   123  H   1.0    0.24    1.00    1.43    27.35890    85.46174    85.33089
   124  H   1.0    0.12    0.99    1.43    30.28112    81.17581    84.03967
   125  H   1.0    0.13    0.99    1.43    25.48598    81.91831    87.11625
   126  H   1.0    0.11    0.99    1.43    30.77092    80.29320    88.71694
   127  H   1.0    0.10    0.99    1.43    29.86654    83.49674    88.50101
   128  H   1.0    0.09    0.99    1.43    26.30253    77.39206    88.67801
   129  H   1.0    0.11    0.99    1.43    25.10084    77.60853    85.58147
   130  H   1.0    0.11    0.99    1.43    28.34568    77.03539    86.07163
   131  H   1.0    0.10    0.99    1.43    29.50886    81.96809    92.86148
   132  H   1.0    0.09    0.99    1.43    26.54753    82.89314    91.67054
   133  H   1.0    0.09    0.99    1.43    27.30567    79.64630    91.94098
   134  N   5.0   -0.47    3.01    1.93    24.56342    81.17266    81.60593
   135  C   4.0    0.08    4.00    3.62    22.95291    79.92555    79.77499
   136  C   4.0    0.31    3.01    3.02    24.22783    79.94338    77.18552
   137  O   6.0   -0.46    1.00    1.80    24.45246    78.00672    75.93376
   138  C   4.0   -0.13    3.99    3.60    20.34761    81.19702    79.66788
   139  C   4.0   -0.04    3.03    3.02    18.44347    79.40756    78.55058
   140  C   4.0   -0.09    3.03    3.02    17.86620    79.45307    75.99354
   141  C   4.0   -0.10    3.03    3.02    17.30016    77.60747    80.08466
   142  C   4.0   -0.11    3.03    3.02    16.17079    77.73195    74.98797
   143  C   4.0   -0.11    3.03    3.02    15.60413    75.88879    79.08430
   144  C   4.0   -0.11    3.03    3.02    15.03953    75.94645    76.52912
   145  H   1.0    0.30    1.00    1.43    23.73180    82.44740    82.77779
   146  H   1.0    0.12    0.99    1.43    22.73036    77.92906    80.31257
   147  H   1.0    0.12    0.99    1.43    19.80369    81.67246    81.60014
   148  H   1.0    0.12    0.99    1.43    20.47339    82.93381    78.56345
   149  H   1.0    0.11    0.99    1.43    18.74327    80.84342    74.78328
   150  H   1.0    0.10    0.99    1.43    17.73871    77.56072    82.07872
   151  H   1.0    0.10    1.00    1.43    15.73787    77.78183    72.99550
   152  H   1.0    0.10    1.00    1.43    14.72608    74.50208    80.29675
   153  H   1.0    0.10    1.00    1.43    13.72525    74.60001    75.74073
   154  N   5.0   -0.48    3.00    1.93    25.05168    82.19315    76.41000
   155  C   4.0    0.02    4.00    3.61    26.32363    82.49090    74.00999
   156  C   4.0    0.30    3.01    3.02    28.53435    80.65779    73.74297
   157  O   6.0   -0.47    1.00    1.80    28.89760    79.44938    71.79445
   158  H   1.0    0.31    1.00    1.43    24.77089    83.75940    77.48421
   159  H   1.0    0.11    0.99    1.43    25.01933    82.13509    72.44217
   160  H   1.0    0.11    0.99    1.43    27.03722    84.41898    73.88106
   161  N   5.0   -0.47    3.01    1.93    30.04782    80.51510    75.74706
   162  C   4.0    0.07    3.99    3.61    32.20084    78.81877    75.78466
   163  C   4.0    0.30    3.01    3.02    31.32775    76.09032    75.38626
   164  O   6.0   -0.48    1.00    1.80    32.36844    74.69463    73.83226
   165  C   4.0   -0.21    3.98    3.59    33.60545    79.09083    78.27884
   166  H   1.0    0.30    1.00    1.43    29.72526    81.59772    77.29787
   167  H   1.0    0.12    0.99    1.43    33.45252    79.28138    74.19386
   168  H   1.0    0.10    0.99    1.43    35.20596    77.80772    78.32953
   169  H   1.0    0.11    0.99    1.43    34.29632    81.01404    78.47658
   170  H   1.0    0.13    0.99    1.43    32.33554    78.66481    79.83659
   171  N   5.0   -0.47    3.01    1.93    29.42224    75.32830    76.82179
   172  C   4.0    0.07    3.99    3.61    28.39243    72.79410    76.60251
   173  C   4.0    0.30    3.01    3.02    27.61410    72.26606    73.86175
   174  O   6.0   -0.47    1.00    1.80    28.23559    70.31063    72.77562
   175  C   4.0   -0.22    3.98    3.59    26.14073    72.50097    78.36772
   176  H   1.0    0.30    1.00    1.43    28.64068    76.50680    78.12566
   177  H   1.0    0.11    0.99    1.43    29.87563    71.41903    77.06971
   178  H   1.0    0.09    0.99    1.43    25.35101    70.61546    78.18856
   179  H   1.0    0.10    0.99    1.43    26.74085    72.79970    80.30861
   180  H   1.0    0.13    0.99    1.43    24.70123    73.88370    77.88271
   181  N   5.0   -0.48    3.01    1.93    26.21015    74.05779    72.79445
   182  C   4.0    0.08    4.00    3.62    25.40188    73.87393    70.18517
   183  C   4.0    0.30    3.02    3.02    27.71311    73.39513    68.53226
   184  O   6.0   -0.47    1.00    1.80    27.77516    71.70577    66.94454
   185  C   4.0   -0.09    3.98    3.59    24.00883    76.28701    69.36595
   186  C   4.0   -0.24    3.98    3.59    23.60322    76.30959    66.50944
   187  C   4.0   -0.23    3.98    3.59    21.47639    76.49080    70.73174
   188  H   1.0    0.30    1.00    1.43    25.70896    75.61617    73.79673
   189  H   1.0    0.11    0.99    1.43    24.15920    72.22488    69.95496
   190  H   1.0    0.14    0.99    1.43    25.20566    77.89099    69.88437
   191  H   1.0    0.09    0.99    1.43    22.61076    78.02076    65.95951
   192  H   1.0    0.11    0.99    1.43    25.39711    76.24660    65.50986
   193  H   1.0    0.09    0.99    1.43    22.48945    74.68233    65.93174
   194  H   1.0    0.09    0.99    1.43    20.49184    78.18239    70.11174
   195  H   1.0    0.09    0.99    1.43    20.30189    74.86001    70.30567
   196  H   1.0    0.14    0.99    1.43    21.73451    76.59650    72.76457
   197  N   5.0   -0.48    3.01    1.93    29.64674    74.97137    68.91837
   198  C   4.0    0.08    4.00    3.62    31.87995    74.74770    67.36388
   199  C   4.0    0.32    3.01    3.02    32.89606    72.04353    67.45426
   200  O   6.0   -0.48    1.00    1.80    33.65342    71.02399    65.51221
   201  C   4.0   -0.02    3.98    3.58    33.95661    76.64894    68.12305
   202  O   6.0   -0.49    1.99    1.82    35.63662    75.75032    69.95338
   203  H   1.0    0.30    1.00    1.43    29.49505    76.45191    70.13463
   204  H   1.0    0.10    0.99    1.43    31.35937    75.09672    65.38365
   205  H   1.0    0.10    0.99    1.43    35.10507    77.06645    66.45928
   206  H   1.0    0.12    0.99    1.43    33.02432    78.39674    68.74529
   207  H   1.0    0.31    0.99    1.43    34.68712    75.42083    71.50856
   208  N   5.0   -0.46    3.01    1.93    32.98969    70.97400    69.72646
   209  C   4.0    0.08    4.00    3.62    33.90462    68.41702    70.08062
   210  C   4.0    0.29    3.01    3.02    32.34991    66.57969    68.48196
   211  O   6.0   -0.45    1.00    1.80    33.34567    65.06124    67.03526
   212  C   4.0   -0.09    3.98    3.59    33.77160    67.63442    72.86967
   213  C   4.0   -0.22    3.98    3.59    34.29826    64.80935    73.10417
   214  C   4.0   -0.22    3.98    3.59    35.66839    69.13395    74.44001
   215  H   1.0    0.30    1.00    1.43    32.31510    71.90679    71.25876
   216  H   1.0    0.14    0.99    1.43    35.86324    68.28504    69.40240
   217  H   1.0    0.14    0.99    1.43    31.85395    68.03001    73.53638
   218  H   1.0    0.11    0.99    1.43    34.47318    64.27398    75.07498
   219  H   1.0    0.11    0.99    1.43    32.81443    63.68857    72.22771
   220  H   1.0    0.13    0.99    1.43    36.07406    64.33746    72.18469
   221  H   1.0    0.10    0.99    1.43    35.50095    68.57448    76.40974
   222  H   1.0    0.12    0.99    1.43    37.57463    68.69873    73.80984
   223  H   1.0    0.13    0.99    1.43    35.32007    71.15057    74.26970
   224  N   5.0   -0.48    3.01    1.93    29.85918    66.73435    68.82223
   225  C   4.0    0.07    4.00    3.62    28.17099    65.04599    67.48060
   226  C   4.0    0.29    3.01    3.02    28.82945    65.10358    64.66866
   227  O   6.0   -0.42    1.00    1.80    29.11719    63.15864    63.43495
   228  C   4.0   -0.14    3.99    3.60    25.41393    65.81392    67.87028
   229  C   4.0   -0.10    3.98    3.58    24.41472    65.29799    70.54536
   230  C   4.0   -0.23    3.98    3.59    21.87609    66.63095    70.88541
   231  C   4.0   -0.24    3.98    3.59    24.09994    62.47187    71.03449
   232  H   1.0    0.29    1.00    1.43    29.10309    67.98503    70.06592
   233  H   1.0    0.11    0.99    1.43    28.49437    63.09882    68.11852
   234  H   1.0    0.13    0.99    1.43    25.26813    67.82812    67.45388
   235  H   1.0    0.10    0.99    1.43    24.25329    64.78643    66.50774
   236  H   1.0    0.13    0.99    1.43    25.75523    66.07285    71.91751
   237  H   1.0    0.09    0.99    1.43    21.11848    66.26172    72.75755
   238  H   1.0    0.10    0.99    1.43    22.08167    68.66208    70.65927
   239  H   1.0    0.09    0.99    1.43    20.52523    65.95412    69.49310
   240  H   1.0    0.09    0.99    1.43    23.37910    62.15053    72.93149
   241  H   1.0    0.10    0.99    1.43    22.76916    61.66322    69.69334
   242  H   1.0    0.09    0.99    1.43    25.88321    61.46771    70.84731
   243  N   5.0   -0.48    3.01    1.93    28.97741    67.41442    63.68373
   244  C   4.0    0.08    3.99    3.61    29.51312    67.84147    61.03683
   245  C   4.0    0.29    3.01    3.02    32.07447    66.71681    60.31572
   246  O   6.0   -0.38    1.00    1.80    32.29075    65.42601    58.39493
   247  C   4.0   -0.14    3.99    3.60    29.40296    70.66378    60.41458
   248  C   4.0   -0.11    3.98    3.58    26.78021    71.56949    59.57180
   249  C   4.0   -0.22    3.98    3.59    24.72808    70.90081    61.48568
   250  C   4.0   -0.24    3.98    3.59    26.85654    74.42637    59.16100
   251  H   1.0    0.30    1.00    1.43    28.70477    68.94535    64.80352
   252  H   1.0    0.13    0.99    1.43    28.11788    66.80631    59.89828
   253  H   1.0    0.13    0.99    1.43    30.00918    71.71341    62.08181
   254  H   1.0    0.11    0.99    1.43    30.74497    71.06535    58.90187
   255  H   1.0    0.10    0.99    1.43    26.33963    70.64899    57.77152
   256  H   1.0    0.09    0.99    1.43    22.95048    71.76933    60.93331
   257  H   1.0    0.11    0.99    1.43    24.44368    68.87050    61.59890
   258  H   1.0    0.12    0.99    1.43    25.25452    71.58617    63.34679
   259  H   1.0    0.09    0.99    1.43    25.14557    75.06803    58.22632
   260  H   1.0    0.10    0.99    1.43    27.00076    75.38948    60.96926
   261  H   1.0    0.09    0.99    1.43    28.46873    74.96339    58.00601
   262  N   5.0   -0.48    3.01    1.93    34.01237    67.23434    61.82370
   263  C   4.0    0.07    4.00    3.62    36.48393    66.15717    61.33402
   264  C   4.0    0.30    3.01    3.02    36.22509    63.31713    60.82529
   265  O   6.0   -0.37    1.00    1.80    37.34107    62.29168    59.07029
   266  C   4.0   -0.13    3.99    3.60    38.24504    66.53138    63.59349
   267  C   4.0   -0.11    3.98    3.59    39.08487    69.28096    63.93916
   268  C   4.0    0.27    3.00    3.02    40.70932    69.49846    66.29513
   269  O   6.0   -0.41    1.00    1.80    42.60560    68.20662    66.61031
   270  N   5.0   -0.66    3.00    1.93    39.94383    71.18230    68.02055
   271  H   1.0    0.31    1.00    1.43    33.78627    68.33438    63.37841
   272  H   1.0    0.13    0.99    1.43    37.28897    67.01756    59.62229
   273  H   1.0    0.15    0.99    1.43    37.25463    65.88033    65.28268
   274  H   1.0    0.13    0.99    1.43    39.90834    65.33969    63.33919
   275  H   1.0    0.10    0.99    1.43    40.21735    69.85810    62.31366
   276  H   1.0    0.14    0.99    1.43    37.44329    70.50739    64.08573
   277  H   1.0    0.28    1.00    1.43    38.44068    72.31919    67.76359
   278  H   1.0    0.28    1.00    1.43    40.98705    71.44178    69.59447
   279  N   5.0   -0.46    3.01    1.93    34.79257    62.07010    62.47797
   280  C   4.0    0.09    3.99    3.61    34.48526    59.35623    62.34405
   281  C   4.0    0.10    3.00    3.02    32.99946    58.59313    59.98564
   282  O   6.0   -0.38    1.00    1.80    33.64231    56.77745    58.68446
   283  C   4.0   -0.14    3.98    3.59    33.19678    58.37435    64.73218
   284  C   4.0   -0.11    3.98    3.58    34.97502    58.46967    67.01144
   285  C   4.0    0.30    2.99    3.02    37.12088    56.47532    66.78559
   286  O   6.0   -0.39    1.00    1.80    38.95928    57.02396    65.39252
   287  O   6.0   -0.40    1.00    1.80    36.86322    54.47685    67.98753
   288  H   1.0    0.30    1.00    1.43    33.97393    62.99594    63.94011
   289  H   1.0    0.18    0.99    1.43    36.36434    58.48652    62.18649
   290  H   1.0    0.13    0.99    1.43    31.51861    59.52737    65.08222
   291  H   1.0    0.12    0.99    1.43    32.59479    56.42433    64.41069
   292  H   1.0    0.13    0.99    1.43    35.80831    60.34860    67.17879
   293  H   1.0    0.11    0.99    1.43    33.91760    58.05328    68.73374
   294  N   5.0   -0.72    3.00    1.93    38.60631    56.51446    78.41938
   295  C   4.0    0.08    3.99    3.60    39.25368    58.94388    77.32566
   296  C   4.0    0.30    3.02    3.02    37.94684    61.00424    78.86751
   297  O   6.0   -0.41    1.00    1.80    39.12204    62.63435    80.03021
   298  C   4.0   -0.13    3.98    3.59    38.55766    59.01446    74.51934
   299  C   4.0    0.10    3.34    3.06    40.07596    60.94403    73.13244
   300  N   5.0   -0.38    2.10    1.90    40.32815    63.37296    73.96509
   301  C   4.0    0.03    3.24    3.04    41.47727    60.62742    70.97550
   302  C   4.0    0.18    3.43    3.09    41.85102    64.46720    72.35044
   303  N   5.0   -0.46    3.13    1.94    42.58836    62.89788    70.49001
   304  H   1.0    0.25    1.00    1.43    37.88985    55.16986    77.25774
   305  H   1.0    0.12    0.99    1.43    41.29624    59.24999    77.51199
   306  H   1.0    0.11    0.99    1.43    38.95536    57.16839    73.68241
   307  H   1.0    0.10    0.99    1.43    36.53691    59.37148    74.29640
   308  H   1.0    0.13    1.00    1.43    41.68816    59.01803    69.76365
   309  H   1.0    0.12    1.00    1.43    42.46265    66.39291    72.46631
   310  H   1.0    0.24    1.00    1.43    43.93108    63.26742    69.14003
   311  N   5.0   -0.49    3.01    1.93    35.43441    60.83401    78.95852
   312  C   4.0    0.06    3.99    3.61    33.99555    62.67809    80.38283
   313  C   4.0    0.09    3.00    3.02    35.13418    62.99946    83.02413
   314  O   6.0   -0.42    1.00    1.80    35.48914    65.11572    83.91585
   315  C   4.0   -0.15    3.99    3.60    31.19914    61.98922    80.65453
   316  C   4.0   -0.11    3.98    3.58    29.53542    62.78978    78.40922
   317  C   4.0   -0.23    3.98    3.59    29.46786    60.77862    76.34670
   318  C   4.0   -0.24    3.98    3.59    26.84694    63.33603    79.31422
   319  H   1.0    0.23    1.00    1.43    34.53790    59.36823    78.11589
   320  H   1.0    0.12    0.99    1.43    34.18728    64.52926    79.45745
   321  H   1.0    0.10    0.99    1.43    31.05875    59.95736    80.97349
   322  H   1.0    0.10    0.99    1.43    30.50968    62.94265    82.35076
   323  H   1.0    0.10    0.99    1.43    30.31419    64.52746    77.60270
   324  H   1.0    0.09    0.99    1.43    28.33596    61.42874    74.76112
   325  H   1.0    0.10    0.99    1.43    31.34589    60.33026    75.64883
   326  H   1.0    0.09    0.99    1.43    28.63364    59.04618    77.07500
   327  H   1.0    0.09    0.99    1.43    25.67579    63.91307    77.72907
   328  H   1.0    0.09    0.99    1.43    26.02638    61.65314    80.15879
   329  H   1.0    0.09    0.99    1.43    26.84403    64.83707    80.71597
   330  N   5.0   -0.69    3.00    1.93    40.94091    67.08244    83.86799
   331  C   4.0    0.10    3.98    3.58    40.26450    69.73562    83.79635
   332  C   4.0    0.08    3.00    3.02    39.08872    70.47712    86.33720
   333  O   6.0   -0.44    1.00    1.80    39.81875    72.33207    87.52883
   334  C   4.0   -0.01    3.98    3.58    38.50580    70.27954    81.57726
   335  O   6.0   -0.48    1.99    1.83    40.00631    70.34547    79.38289
   336  H   1.0    0.32    1.00    1.43    40.22488    65.91882    82.52928
   337  H   1.0    0.13    0.99    1.43    41.97789    70.87773    83.53768
   338  H   1.0    0.13    0.99    1.43    37.06625    68.78999    81.47364
   339  H   1.0    0.10    0.99    1.43    37.57507    72.10380    81.90847
   340  H   1.0    0.25    0.99    1.43    38.96117    70.69006    77.92939
   341  N   5.0   -0.72    3.00    1.93    41.05800    76.23879    91.60635
   342  C   4.0    0.07    3.98    3.58    39.30184    78.19568    92.33535
   343  C   4.0    0.06    3.00    3.02    39.47375    78.90902    95.13309
   344  O   6.0   -0.44    1.00    1.80    38.60851    80.92882    95.86799
   345  C   4.0   -0.12    3.99    3.61    36.58026    77.36174    91.85219
   346  C   4.0   -0.03    3.03    3.02    35.91600    76.75828    89.15270
   347  C   4.0   -0.07    3.03    3.02    37.38616    77.45237    87.09684
   348  C   4.0   -0.10    3.04    3.02    33.69121    75.42023    88.72232
   349  C   4.0   -0.10    3.03    3.02    36.65392    76.81051    84.66571
   350  C   4.0   -0.11    3.03    3.02    32.97437    74.75260    86.30081
   351  C   4.0   -0.10    3.03    3.02    34.45711    75.45319    84.26037
   352  H   1.0    0.31    1.00    1.43    40.32188    74.66972    90.79667
   353  H   1.0    0.11    0.99    1.43    39.73327    79.93563    91.28521
   354  H   1.0    0.11    0.99    1.43    36.23296    75.68264    93.00248
   355  H   1.0    0.11    0.99    1.43    35.34439    78.86526    92.54691
   356  H   1.0    0.11    1.00    1.43    39.13626    78.46267    87.35862
   357  H   1.0    0.10    0.99    1.43    32.53265    74.89367    90.32062
   358  H   1.0    0.11    1.00    1.43    37.83752    77.36487    83.09779
   359  H   1.0    0.10    0.99    1.43    31.27008    73.66878    86.00327
   360  H   1.0    0.11    1.00    1.43    33.88310    74.94574    82.37044
   361  H   1.0    0.29    1.00    1.43    36.37981    75.69898    57.59008
   362  H   1.0    0.13    1.00    1.43    36.49066    81.80764    55.62931
   363  H   1.0    0.28    1.00    1.43    27.98181    80.65811    57.59766
   364  H   1.0    0.15    1.00    1.43    30.53345    85.40923    61.16593
   365  H   1.0    0.28    1.00    1.43    23.08207    89.00054    58.23917
   366  H   1.0    0.14    1.00    1.43    24.64728    94.39574    65.10742
   367  H   1.0    0.28    1.00    1.43    23.55602    88.29698    90.93347
   368  H   1.0    0.16    1.00    1.43    31.47006    59.57752    59.47283
   369  H   1.0    0.29    1.00    1.43    39.99532    55.81232    79.10509
   370  H   1.0    0.14    1.00    1.43    35.59820    61.47810    84.04452
   371  H   1.0    0.30    1.00    1.43    42.62784    66.92250    83.72228
   372  H   1.0    0.15    1.00    1.43    37.68783    69.44080    87.06838
   373  H   1.0    0.30    1.00    1.43    42.16369    76.86134    90.47390
   374  H   1.0    0.13    1.00    1.43    40.29151    77.72791    96.36081

           ------------------------------------------------- 
          |        Self-Consistent Charge Iterations        |
           ------------------------------------------------- 

          ...................................................
          :                      SETUP                      :
          :.................................................:
          :  # basis functions                 902          :
          :  # atomic orbitals                 902          :
          :  # shells                          550          :
          :  # electrons                       986          :
          :  max. iterations                   250          :
          :  Hamiltonian                  GFN2-xTB          :
          :  restarted?                      false          :
          :  GBSA solvation                   true          :
          :  PC potential                    false          :
          :  electronic temp.          500.0000000     K    :
          :  accuracy                    0.1000000          :
          :  -> integral cutoff          0.3500000E+02      :
          :  -> integral neglect         0.1000000E-08      :
          :  -> SCF convergence          0.1000000E-06 Eh   :
          :  -> wf. convergence          0.1000000E-04 e    :
          :  Broyden damping             0.4000000          :
          ...................................................

 iter      E             dE          RMSdq      gap      omega  full diag
   1   -559.1810649 -0.559181E+03  0.405E+00    1.37       0.0  T
   2   -560.5870208 -0.140596E+01  0.213E+00    1.47       1.0  T
   3   -560.6397957 -0.527749E-01  0.115E+00    2.08       1.0  T
   4   -560.6586954 -0.188997E-01  0.272E-01    1.55       1.0  T
   5   -560.6761128 -0.174174E-01  0.104E-01    1.70       1.0  T
   6   -560.6766901 -0.577258E-03  0.559E-02    1.75       1.0  T
   7   -560.6769404 -0.250288E-03  0.265E-02    1.77       1.0  T
   8   -560.6770143 -0.739804E-04  0.930E-03    1.79       1.0  T
   9   -560.6770201 -0.578114E-05  0.496E-03    1.79       1.0  T
  10   -560.6770222 -0.212420E-05  0.246E-03    1.79       2.1  T
  11   -560.6770228 -0.503442E-06  0.111E-03    1.79       4.6  T
  12   -560.6770229 -0.138281E-06  0.486E-04    1.79      10.6  T
  13   -560.6770229 -0.160790E-07  0.240E-04    1.79      21.5  T
  14   -560.6770229 -0.629223E-08  0.112E-04    1.79      46.3  T
  15   -560.6770229 -0.103159E-08  0.481E-05    1.79     107.4  T
  16   -560.6770229 -0.241471E-09  0.189E-05    1.79     272.9  T

   *** convergence criteria satisfied after 16 iterations ***

         #    Occupation            Energy/Eh            Energy/eV
      -------------------------------------------------------------
         1        2.0000           -0.7275137             -19.7967
       ...           ...                  ...                  ...
       487        2.0000           -0.3695551             -10.0561
       488        2.0000           -0.3679059             -10.0112
       489        2.0000           -0.3619198              -9.8483
       490        2.0000           -0.3592823              -9.7766
       491        2.0000           -0.3578751              -9.7383
       492        2.0000           -0.3554992              -9.6736
       493        2.0000           -0.3542115              -9.6386 (HOMO)
       494                         -0.2884643              -7.8495 (LUMO)
       495                         -0.2855418              -7.7700
       496                         -0.2832161              -7.7067
       497                         -0.2818049              -7.6683
       498                         -0.2792465              -7.5987
       ...                                ...                  ...
       902                          0.7204923              19.6056
      -------------------------------------------------------------
                  HL-Gap            0.0657473 Eh            1.7891 eV
             Fermi-level           -0.3211256 Eh           -8.7383 eV

 SCC (total)                   0 d,  0 h,  0 min, 13.024 sec
 SCC setup                      ...        0 min,  0.120 sec (  0.923%)
 Dispersion                     ...        0 min,  0.138 sec (  1.063%)
 integral evaluation            ...        0 min,  0.532 sec (  4.084%)
 zeroth order Hamiltonian       ...        0 min,  0.003 sec (  0.025%)
 iterations                     ...        0 min,  9.512 sec ( 73.034%)
 molecular gradient             ...        0 min,  2.633 sec ( 20.216%)
 printout                       ...        0 min,  0.085 sec (  0.655%)

         :::::::::::::::::::::::::::::::::::::::::::::::::::::
         ::                     SUMMARY                     ::
         :::::::::::::::::::::::::::::::::::::::::::::::::::::
         :: total energy             -553.467135684345 Eh   ::
         :: total w/o Gsasa/hb       -553.414111739851 Eh   ::
         :: gradient norm               0.588038719239 Eh/α ::
         :: HOMO-LUMO gap               1.789074214613 eV   ::
         ::.................................................::
         :: SCC energy               -560.698974788342 Eh   ::
         :: -> isotropic ES             1.420041862471 Eh   ::
         :: -> anisotropic ES          -0.016996074623 Eh   ::
         :: -> anisotropic XC           0.210672172908 Eh   ::
         :: -> dispersion              -0.477772816772 Eh   ::
         :: -> Gsolv                   -0.319049752045 Eh   ::
         ::    -> Gborn                -0.266025807551 Eh   ::
         ::    -> Gsasa                -0.023809318529 Eh   ::
         ::    -> Ghb                  -0.031072069091 Eh   ::
         ::    -> Gshift                0.001857443127 Eh   ::
         :: repulsion energy            7.191638474165 Eh   ::
         :: add. restraining            0.000000000000 Eh   ::
         :::::::::::::::::::::::::::::::::::::::::::::::::::::

           -------------------------------------------------
          |                Property Printout                |
           -------------------------------------------------

    * Orbital Energies and Occupations

         #    Occupation            Energy/Eh            Energy/eV
      -------------------------------------------------------------
         1        2.0000           -0.7275137             -19.7967
       ...           ...                  ...                  ...
       481        2.0000           -0.3835428             -10.4367
       482        2.0000           -0.3829642             -10.4210
       483        2.0000           -0.3827982             -10.4165
       484        2.0000           -0.3780439             -10.2871
       485        2.0000           -0.3726990             -10.1417
       486        2.0000           -0.3717426             -10.1156
       487        2.0000           -0.3695551             -10.0561
       488        2.0000           -0.3679059             -10.0112
       489        2.0000           -0.3619198              -9.8483
       490        2.0000           -0.3592823              -9.7766
       491        2.0000           -0.3578751              -9.7383
       492        2.0000           -0.3554992              -9.6736
       493        2.0000           -0.3542115              -9.6386 (HOMO)
       494                         -0.2884643              -7.8495 (LUMO)
       495                         -0.2855418              -7.7700
       496                         -0.2832161              -7.7067
       497                         -0.2818049              -7.6683
       498                         -0.2792465              -7.5987
       499                         -0.2781195              -7.5680
       500                         -0.2776696              -7.5558
       501                         -0.2463337              -6.7031
       502                         -0.2425144              -6.5992
       503                         -0.2400400              -6.5318
       504                         -0.2381966              -6.4817
       ...                                ...                  ...
       902                          0.7204923              19.6056
      -------------------------------------------------------------
                  HL-Gap            0.0657473 Eh            1.7891 eV
             Fermi-level           -0.3211256 Eh           -8.7383 eV

   #   Z        covCN         q      C6AA      α(0)
   1   7 N      2.636    -0.391    30.123     8.151
   2   6 C      3.782     0.042    19.895     6.354
   3   6 C      2.767     0.197    23.790     7.988
   4   8 O      0.856    -0.365    20.991     6.143
   5   6 C      3.809    -0.077    21.962     6.671
   6   6 C      3.849    -0.014    20.788     6.485
   7   6 C      3.756    -0.115    22.758     6.802
   8   6 C      3.756    -0.116    22.777     6.805
   9   1 H      0.860     0.166     1.300     1.786
  10   1 H      0.923     0.037     2.483     2.464
  11   1 H      0.924     0.053     2.289     2.366
  12   1 H      0.924     0.055     2.256     2.349
  13   1 H      0.924     0.032     2.563     2.504
  14   1 H      0.925     0.045     2.379     2.412
  15   1 H      0.925     0.036     2.505     2.475
  16   1 H      0.925     0.040     2.450     2.448
  17   1 H      0.925     0.044     2.392     2.419
  18   1 H      0.925     0.042     2.418     2.432
  19   1 H      0.925     0.038     2.475     2.460
  20   7 N      2.636    -0.378    29.759     8.102
  21   6 C      3.781     0.046    19.824     6.343
  22   6 C      2.766     0.198    23.774     7.985
  23   8 O      0.856    -0.362    20.932     6.134
  24   6 C      3.758    -0.120    22.844     6.814
  25   1 H      0.860     0.153     1.378     1.839
  26   1 H      0.923     0.050     2.319     2.381
  27   1 H      0.925     0.050     2.320     2.382
  28   1 H      0.925     0.049     2.327     2.386
  29   1 H      0.925     0.066     2.124     2.279
  30   7 N      2.636    -0.392    30.163     8.157
  31   6 C      3.791     0.031    20.066     6.380
  32   6 C      2.757     0.274    22.362     7.744
  33   8 O      0.859    -0.517    24.160     6.590
  34   6 C      3.852    -0.024    20.960     6.512
  35   6 C      3.756    -0.113    22.724     6.797
  36   6 C      3.756    -0.112    22.695     6.792
  37   1 H      0.860     0.156     1.360     1.827
  38   1 H      0.923     0.027     2.623     2.533
  39   1 H      0.924     0.052     2.298     2.370
  40   1 H      0.925     0.050     2.314     2.379
  41   1 H      0.925     0.032     2.554     2.499
  42   1 H      0.925     0.040     2.455     2.450
  43   1 H      0.925     0.048     2.339     2.392
  44   1 H      0.925     0.041     2.440     2.443
  45   1 H      0.925     0.038     2.477     2.461
  46   7 N      2.691    -0.180    24.892     7.410
  47   6 C      3.794     0.032    20.037     6.374
  48   6 C      2.765     0.218    23.392     7.921
  49   8 O      0.856    -0.375    21.192     6.172
  50   6 C      3.808    -0.074    21.908     6.663
  51   6 C      3.056    -0.037    28.867     8.811
  52   6 C      3.034    -0.009    28.212     8.712
  53   6 C      3.118    -0.023    28.413     8.731
  54   7 N      2.778    -0.107    23.329     7.174
  55   6 C      3.089     0.045    26.901     8.502
  56   6 C      2.911    -0.042    29.054     8.839
  57   6 C      2.908    -0.057    29.425     8.895
  58   6 C      2.920    -0.045    29.129     8.851
  59   6 C      2.924    -0.041    29.029     8.836
  60   1 H      0.860     0.239     0.927     1.508
  61   1 H      0.923     0.074     2.043     2.235
  62   1 H      0.924     0.069     2.094     2.263
  63   1 H      0.924     0.067     2.114     2.274
  64   1 H      0.926     0.046     2.368     2.406
  65   1 H      0.860     0.195     1.131     1.666
  66   1 H      0.926     0.023     2.694     2.567
  67   1 H      0.926     0.038     2.477     2.461
  68   1 H      0.926     0.021     2.711     2.575
  69   1 H      0.926     0.028     2.616     2.529
  70   7 N      2.633    -0.390    30.086     8.146
  71   6 C      3.736    -0.015    20.931     6.529
  72   6 C      2.755     0.267    22.493     7.766
  73   8 O      0.858    -0.497    23.709     6.528
  74   1 H      0.860     0.170     1.274     1.768
  75   1 H      0.924     0.053     2.283     2.363
  76   1 H      0.925     0.059     2.214     2.327
  77   7 N      2.690    -0.171    24.695     7.380
  78   6 C      3.797     0.014    20.340     6.422
  79   6 C      2.758     0.271    22.415     7.753
  80   8 O      0.859    -0.486    23.482     6.497
  81   6 C      3.811    -0.081    22.041     6.683
  82   6 C      3.849    -0.013    20.780     6.484
  83   6 C      3.757    -0.119    22.824     6.811
  84   6 C      3.755    -0.118    22.806     6.809
  85   1 H      0.860     0.224     0.992     1.560
  86   1 H      0.924     0.080     1.976     2.198
  87   1 H      0.924     0.064     2.148     2.292
  88   1 H      0.924     0.066     2.135     2.285
  89   1 H      0.924     0.043     2.416     2.431
  90   1 H      0.925     0.043     2.404     2.425
  91   1 H      0.925     0.044     2.392     2.419
  92   1 H      0.925     0.042     2.422     2.434
  93   1 H      0.925     0.045     2.385     2.415
  94   1 H      0.925     0.042     2.427     2.436
  95   1 H      0.925     0.037     2.485     2.465
  96   7 N      2.689    -0.178    24.848     7.403
  97   6 C      3.796     0.013    20.364     6.426
  98   6 C      2.758     0.276    22.337     7.739
  99   8 O      0.858    -0.480    23.357     6.480
 100   6 C      3.807    -0.086    22.137     6.698
 101   6 C      3.850    -0.012    20.749     6.479
 102   6 C      3.757    -0.120    22.861     6.817
 103   6 C      3.756    -0.119    22.827     6.812
 104   1 H      0.860     0.217     1.023     1.584
 105   1 H      0.924     0.085     1.926     2.170
 106   1 H      0.924     0.075     2.034     2.230
 107   1 H      0.924     0.059     2.214     2.327
 108   1 H      0.924     0.040     2.450     2.448
 109   1 H      0.925     0.045     2.388     2.417
 110   1 H      0.925     0.047     2.360     2.402
 111   1 H      0.925     0.045     2.389     2.417
 112   1 H      0.925     0.042     2.418     2.432
 113   1 H      0.925     0.039     2.469     2.457
 114   1 H      0.925     0.039     2.466     2.456
 115   7 N      2.691    -0.174    24.777     7.393
 116   6 C      3.805     0.015    20.319     6.417
 117   6 C      2.758     0.283    22.211     7.718
 118   8 O      0.858    -0.490    23.563     6.508
 119   6 C      3.854    -0.028    21.043     6.524
 120   6 C      3.804    -0.066    21.760     6.641
 121   6 C      3.756    -0.115    22.765     6.803
 122   6 C      3.752    -0.111    22.682     6.792
 123   1 H      0.860     0.209     1.059     1.612
 124   1 H      0.923     0.072     2.060     2.244
 125   1 H      0.924     0.058     2.222     2.331
 126   1 H      0.924     0.043     2.407     2.426
 127   1 H      0.924     0.043     2.410     2.428
 128   1 H      0.925     0.061     2.192     2.315
 129   1 H      0.925     0.035     2.511     2.478
 130   1 H      0.925     0.046     2.373     2.409
 131   1 H      0.925     0.045     2.388     2.417
 132   1 H      0.925     0.040     2.443     2.444
 133   1 H      0.925     0.044     2.401     2.423
 134   7 N      2.691    -0.193    25.191     7.454
 135   6 C      3.801     0.029    20.082     6.380
 136   6 C      2.759     0.277    22.307     7.734
 137   8 O      0.859    -0.491    23.584     6.511
 138   6 C      3.811    -0.081    22.030     6.681
 139   6 C      2.972     0.009    27.824     8.652
 140   6 C      2.924    -0.039    28.981     8.828
 141   6 C      2.925    -0.043    29.061     8.841
 142   6 C      2.919    -0.032    28.807     8.801
 143   6 C      2.919    -0.033    28.829     8.805
 144   6 C      2.920    -0.035    28.864     8.810
 145   1 H      0.860     0.232     0.958     1.534
 146   1 H      0.923     0.064     2.157     2.297
 147   1 H      0.924     0.075     2.033     2.230
 148   1 H      0.924     0.061     2.187     2.313
 149   1 H      0.926     0.034     2.529     2.487
 150   1 H      0.926     0.041     2.441     2.443
 151   1 H      0.926     0.040     2.448     2.447
 152   1 H      0.926     0.040     2.453     2.449
 153   1 H      0.926     0.037     2.483     2.464
 154   7 N      2.687    -0.171    24.694     7.380
 155   6 C      3.749    -0.029    21.157     6.560
 156   6 C      2.755     0.278    22.294     7.732
 157   8 O      0.859    -0.500    23.789     6.539
 158   1 H      0.860     0.236     0.938     1.517
 159   1 H      0.924     0.089     1.891     2.150
 160   1 H      0.925     0.094     1.837     2.120
 161   7 N      2.692    -0.177    24.825     7.400
 162   6 C      3.797     0.025    20.164     6.394
 163   6 C      2.759     0.271    22.413     7.753
 164   8 O      0.859    -0.512    24.044     6.574
 165   6 C      3.757    -0.133    23.114     6.855
 166   1 H      0.860     0.236     0.940     1.519
 167   1 H      0.923     0.073     2.048     2.238
 168   1 H      0.925     0.066     2.135     2.285
 169   1 H      0.925     0.079     1.994     2.208
 170   1 H      0.925     0.076     2.023     2.224
 171   7 N      2.691    -0.170    24.685     7.379
 172   6 C      3.798     0.024    20.170     6.395
 173   6 C      2.758     0.276    22.336     7.739
 174   8 O      0.858    -0.504    23.869     6.550
 175   6 C      3.757    -0.135    23.145     6.859
 176   1 H      0.860     0.243     0.910     1.495
 177   1 H      0.923     0.072     2.069     2.249
 178   1 H      0.925     0.071     2.074     2.252
 179   1 H      0.925     0.077     2.011     2.218
 180   1 H      0.925     0.073     2.049     2.239
 181   7 N      2.692    -0.186    25.021     7.429
 182   6 C      3.803     0.023    20.178     6.395
 183   6 C      2.765     0.282    22.226     7.721
 184   8 O      0.859    -0.499    23.769     6.537
 185   6 C      3.853    -0.024    20.967     6.513
 186   6 C      3.756    -0.116    22.769     6.803
 187   6 C      3.757    -0.122    22.900     6.823
 188   1 H      0.860     0.240     0.922     1.504
 189   1 H      0.923     0.064     2.157     2.297
 190   1 H      0.924     0.058     2.225     2.333
 191   1 H      0.925     0.062     2.181     2.309
 192   1 H      0.925     0.030     2.585     2.514
 193   1 H      0.925     0.051     2.305     2.374
 194   1 H      0.925     0.057     2.236     2.338
 195   1 H      0.925     0.048     2.346     2.395
 196   1 H      0.925     0.057     2.240     2.341
 197   7 N      2.690    -0.195    25.228     7.460
 198   6 C      3.800     0.015    20.328     6.419
 199   6 C      2.757     0.283    22.205     7.717
 200   8 O      0.858    -0.506    23.912     6.556
 201   6 C      3.676     0.069    19.637     6.349
 202   8 O      1.654    -0.482    22.503     6.404
 203   1 H      0.860     0.236     0.940     1.519
 204   1 H      0.923     0.065     2.145     2.291
 205   1 H      0.924     0.063     2.168     2.303
 206   1 H      0.923     0.055     2.263     2.352
 207   1 H      0.803     0.335     0.625     1.242
 208   7 N      2.689    -0.172    24.732     7.386
 209   6 C      3.803     0.024    20.164     6.393
 210   6 C      2.761     0.285    22.176     7.712
 211   8 O      0.858    -0.519    24.205     6.596
 212   6 C      3.854    -0.022    20.924     6.506
 213   6 C      3.758    -0.106    22.582     6.775
 214   6 C      3.756    -0.126    22.974     6.834
 215   1 H      0.860     0.234     0.949     1.526
 216   1 H      0.923     0.056     2.248     2.345
 217   1 H      0.924     0.065     2.139     2.287
 218   1 H      0.925     0.061     2.190     2.314
 219   1 H      0.925     0.025     2.660     2.551
 220   1 H      0.925     0.030     2.586     2.515
 221   1 H      0.925     0.056     2.249     2.345
 222   1 H      0.925     0.049     2.336     2.390
 223   1 H      0.925     0.063     2.160     2.298
 224   7 N      2.692    -0.187    25.061     7.435
 225   6 C      3.801     0.032    20.037     6.373
 226   6 C      2.759     0.282    22.234     7.722
 227   8 O      0.858    -0.525    24.354     6.617
 228   6 C      3.810    -0.078    21.978     6.673
 229   6 C      3.849    -0.012    20.753     6.480
 230   6 C      3.758    -0.117    22.789     6.806
 231   6 C      3.756    -0.114    22.728     6.797
 232   1 H      0.860     0.239     0.926     1.507
 233   1 H      0.924     0.048     2.339     2.392
 234   1 H      0.924     0.067     2.124     2.279
 235   1 H      0.924     0.050     2.321     2.383
 236   1 H      0.924     0.042     2.418     2.432
 237   1 H      0.925     0.057     2.240     2.341
 238   1 H      0.925     0.038     2.475     2.460
 239   1 H      0.925     0.048     2.351     2.398
 240   1 H      0.925     0.055     2.258     2.350
 241   1 H      0.925     0.042     2.420     2.433
 242   1 H      0.925     0.023     2.693     2.566
 243   7 N      2.691    -0.190    25.116     7.443
 244   6 C      3.796     0.031    20.064     6.378
 245   6 C      2.760     0.280    22.268     7.728
 246   8 O      0.859    -0.525    24.337     6.614
 247   6 C      3.809    -0.074    21.899     6.661
 248   6 C      3.849    -0.012    20.753     6.480
 249   6 C      3.756    -0.122    22.896     6.823
 250   6 C      3.758    -0.116    22.777     6.804
 251   1 H      0.860     0.236     0.939     1.518
 252   1 H      0.923     0.063     2.167     2.302
 253   1 H      0.924     0.061     2.185     2.312
 254   1 H      0.924     0.045     2.384     2.414
 255   1 H      0.924     0.033     2.537     2.491
 256   1 H      0.925     0.057     2.234     2.337
 257   1 H      0.925     0.026     2.639     2.540
 258   1 H      0.925     0.056     2.250     2.346
 259   1 H      0.925     0.057     2.240     2.340
 260   1 H      0.925     0.045     2.388     2.417
 261   1 H      0.925     0.039     2.457     2.451
 262   7 N      2.690    -0.191    25.139     7.447
 263   6 C      3.800     0.031    20.055     6.376
 264   6 C      2.760     0.288    22.115     7.701
 265   8 O      0.858    -0.517    24.159     6.590
 266   6 C      3.810    -0.055    21.557     6.609
 267   6 C      3.805    -0.104    22.474     6.749
 268   6 C      2.746     0.290    22.077     7.693
 269   8 O      0.859    -0.507    23.946     6.561
 270   7 N      2.638    -0.273    27.059     7.726
 271   1 H      0.860     0.238     0.933     1.513
 272   1 H      0.923     0.065     2.139     2.287
 273   1 H      0.924     0.052     2.296     2.369
 274   1 H      0.924     0.046     2.371     2.408
 275   1 H      0.924     0.077     2.015     2.220
 276   1 H      0.925     0.082     1.960     2.190
 277   1 H      0.860     0.219     1.014     1.577
 278   1 H      0.860     0.231     0.959     1.534
 279   7 N      2.691    -0.179    24.877     7.408
 280   6 C      3.795     0.046    19.804     6.337
 281   6 C      2.765     0.210    23.554     7.948
 282   8 O      0.856    -0.373    21.157     6.167
 283   6 C      3.806    -0.045    21.372     6.581
 284   6 C      3.799    -0.087    22.162     6.703
 285   6 C      2.684     0.371    20.705     7.447
 286   8 O      0.856    -0.657    27.563     7.039
 287   8 O      0.856    -0.636    27.024     6.970
 288   1 H      0.860     0.223     0.995     1.562
 289   1 H      0.923     0.072     2.062     2.246
 290   1 H      0.924     0.061     2.187     2.313
 291   1 H      0.924     0.036     2.500     2.473
 292   1 H      0.924     0.022     2.699     2.569
 293   1 H      0.924     0.030     2.582     2.513
 294   7 N      2.637    -0.394    30.217     8.164
 295   6 C      3.790     0.040    19.907     6.354
 296   6 C      2.762     0.279    22.278     7.730
 297   8 O      0.859    -0.480    23.344     6.478
 298   6 C      3.807    -0.063    21.696     6.631
 299   6 C      3.200     0.051    26.317     8.360
 300   7 N      1.914    -0.290    28.357     7.895
 301   6 C      3.056    -0.020    28.454     8.748
 302   6 C      3.174     0.088    25.668     8.274
 303   7 N      2.802    -0.097    23.126     7.142
 304   1 H      0.860     0.162     1.323     1.802
 305   1 H      0.924     0.035     2.517     2.481
 306   1 H      0.924     0.033     2.543     2.494
 307   1 H      0.924     0.041     2.434     2.440
 308   1 H      0.926     0.010     2.883     2.655
 309   1 H      0.926     0.050     2.314     2.379
 310   1 H      0.859     0.198     1.115     1.654
 311   7 N      2.690    -0.167    24.605     7.367
 312   6 C      3.796     0.031    20.056     6.377
 313   6 C      2.767     0.205    23.639     7.963
 314   8 O      0.856    -0.361    20.925     6.133
 315   6 C      3.808    -0.083    22.069     6.687
 316   6 C      3.849    -0.013    20.771     6.483
 317   6 C      3.756    -0.114    22.732     6.798
 318   6 C      3.757    -0.122    22.882     6.820
 319   1 H      0.860     0.209     1.062     1.614
 320   1 H      0.923     0.073     2.057     2.243
 321   1 H      0.924     0.070     2.080     2.256
 322   1 H      0.924     0.073     2.051     2.239
 323   1 H      0.924     0.040     2.445     2.445
 324   1 H      0.925     0.041     2.434     2.440
 325   1 H      0.925     0.022     2.698     2.569
 326   1 H      0.925     0.047     2.355     2.400
 327   1 H      0.925     0.048     2.349     2.397
 328   1 H      0.925     0.051     2.311     2.377
 329   1 H      0.925     0.050     2.326     2.385
 330   7 N      2.637    -0.381    29.851     8.114
 331   6 C      3.782     0.039    19.935     6.360
 332   6 C      2.765     0.196    23.813     7.992
 333   8 O      0.856    -0.363    20.947     6.136
 334   6 C      3.677     0.083    19.413     6.312
 335   8 O      1.656    -0.470    22.253     6.368
 336   1 H      0.860     0.170     1.271     1.766
 337   1 H      0.923     0.061     2.192     2.315
 338   1 H      0.924     0.043     2.407     2.426
 339   1 H      0.924     0.028     2.614     2.528
 340   1 H      0.805     0.323     0.655     1.272
 341   7 N      2.634    -0.394    30.211     8.163
 342   6 C      3.782     0.044    19.846     6.346
 343   6 C      2.769     0.198    23.785     7.987
 344   8 O      0.856    -0.387    21.420     6.205
 345   6 C      3.818    -0.067    21.776     6.641
 346   6 C      2.967     0.019    27.578     8.614
 347   6 C      2.923    -0.034    28.847     8.808
 348   6 C      2.928    -0.043    29.069     8.842
 349   6 C      2.920    -0.035    28.876     8.812
 350   6 C      2.918    -0.035    28.866     8.810
 351   6 C      2.920    -0.042    29.035     8.836
 352   1 H      0.860     0.177     1.234     1.740
 353   1 H      0.923     0.052     2.293     2.368
 354   1 H      0.924     0.058     2.222     2.331
 355   1 H      0.924     0.063     2.165     2.301
 356   1 H      0.926     0.037     2.484     2.465
 357   1 H      0.926     0.042     2.426     2.436
 358   1 H      0.926     0.032     2.556     2.500
 359   1 H      0.926     0.038     2.475     2.460
 360   1 H      0.926     0.029     2.595     2.519
 361   1 H      0.862     0.176     1.237     1.742
 362   1 H      0.930     0.077     2.014     2.219
 363   1 H      0.862     0.180     1.212     1.724
 364   1 H      0.930     0.083     1.947     2.182
 365   1 H      0.862     0.180     1.215     1.727
 366   1 H      0.930     0.065     2.144     2.290
 367   1 H      0.862     0.183     1.194     1.712
 368   1 H      0.930     0.074     2.039     2.233
 369   1 H      0.862     0.188     1.171     1.695
 370   1 H      0.930     0.073     2.053     2.240
 371   1 H      0.862     0.182     1.200     1.716
 372   1 H      0.930     0.079     1.985     2.203
 373   1 H      0.862     0.176     1.239     1.744
 374   1 H      0.930     0.074     2.046     2.237

 Mol. C6AA /au·bohr⁶  :    1284747.896792
 Mol. C8AA /au·bohr⁸  :   28577589.211186
 Mol. α(0) /au        :       1706.775211


Wiberg/Mayer (AO) data.
largest (>0.10) Wiberg bond orders for each atom
          total WBO             WBO to atom ...
     1  N   2.996        C    2 1.006    H  361 0.958    H    9 0.953
     2  C   3.984        N    1 1.006    C    3 0.975    C    5 0.969    H   10 0.962
     3  C   3.894        O    4 1.895    C    2 0.975    H  362 0.954
     4  O   2.038        C    3 1.895
     5  C   3.990        C    6 0.990    H   12 0.973    H   11 0.969    C    2 0.969
     6  C   3.995        C    7 1.011    C    8 1.010    C    5 0.990    H   13 0.968
     7  C   3.996        C    6 1.011    H   15 0.986    H   16 0.986    H   14 0.986
     8  C   3.995        C    6 1.010    H   18 0.987    H   19 0.986    H   17 0.986
     9  H   0.973        N    1 0.953
    10  H   0.999        C    2 0.962
    11  H   0.997        C    5 0.969
    12  H   0.997        C    5 0.973
    13  H   0.999        C    6 0.968
    14  H   0.998        C    7 0.986
    15  H   0.999        C    7 0.986
    16  H   0.998        C    7 0.986
    17  H   0.998        C    8 0.986
    18  H   0.998        C    8 0.987
    19  H   0.999        C    8 0.986
    20  N   3.002        C   21 1.011    H   25 0.957    H  363 0.956
    21  C   3.986        N   20 1.011    C   24 0.979    C   22 0.975    H   26 0.960
    22  C   3.886        O   23 1.881    C   21 0.975    H  364 0.953
    23  O   2.056        C   22 1.881
    24  C   3.991        H   27 0.984    H   29 0.980    C   21 0.979    H   28 0.974
    25  H   0.976        N   20 0.957
    26  H   0.997        C   21 0.960
    27  H   0.997        C   24 0.984
    28  H   0.998        C   24 0.974
    29  H   0.996        C   24 0.980
    30  N   2.994        C   31 1.011    H  365 0.957    H   37 0.951
    31  C   3.983        N   30 1.011    C   34 0.968    H   38 0.964    C   32 0.933
    32  C   3.940        O   33 1.616    N   46 1.314    C   31 0.933
    33  O   1.943        C   32 1.616    N   46 0.197
    34  C   3.993        C   36 1.009    C   35 1.008    C   31 0.968    H   39 0.960
    35  C   3.996        C   34 1.008    H   42 0.986    H   40 0.985    H   41 0.985
    36  C   3.995        C   34 1.009    H   44 0.986    H   43 0.984    H   45 0.982
    37  H   0.975        N   30 0.951
    38  H   0.999        C   31 0.964
    39  H   0.997        C   34 0.960
    40  H   0.997        C   35 0.985
    41  H   0.999        C   35 0.985
    42  H   0.998        C   35 0.986
    43  H   0.997        C   36 0.984
    44  H   0.998        C   36 0.986
    45  H   0.999        C   36 0.982
    46  N   3.469        C   32 1.314    C   47 0.976    H   60 0.886    O   33 0.197
    47  C   3.966        N   46 0.976    C   48 0.972    C   50 0.954    H   61 0.952
    48  C   3.899        O   49 1.891    C   47 0.972    H  366 0.955
    49  O   2.033        C   48 1.891
    50  C   3.985        C   51 1.014    H   63 0.968    H   62 0.964    C   47 0.954
    51  C   3.974        C   52 1.580    C   53 1.207    C   50 1.014
    52  C   3.954        C   51 1.580    N   54 1.205    H   64 0.969
    53  C   3.985        C   56 1.329    C   55 1.248    C   51 1.207
    54  N   3.548        C   52 1.205    C   55 1.184    H   65 0.934
    55  C   3.963        C   57 1.335    C   53 1.248    N   54 1.184
    56  C   3.992        C   58 1.507    C   53 1.329    H   66 0.968    C   57 0.113
    57  C   3.989        C   59 1.496    C   55 1.335    H   67 0.968    C   56 0.113
    58  C   3.990        C   56 1.507    C   59 1.369    H   68 0.972
    59  C   3.991        C   57 1.496    C   58 1.369    H   69 0.972
    60  H   0.943        N   46 0.886
    61  H   0.994        C   47 0.952
    62  H   0.995        C   50 0.964
    63  H   0.995        C   50 0.968
    64  H   0.997        C   52 0.969
    65  H   0.961        N   54 0.934
    66  H   0.999        C   56 0.968
    67  H   0.998        C   57 0.968
    68  H   0.999        C   58 0.972
    69  H   0.999        C   59 0.972
    70  N   2.988        C   71 1.024    H   74 0.958    H  367 0.956
    71  C   3.986        N   70 1.024    H   75 0.972    H   76 0.956    C   72 0.953
    72  C   3.943        O   73 1.605    N   77 1.311    C   71 0.953
    73  O   1.963        C   72 1.605    N   77 0.192
    74  H   0.971        N   70 0.958
    75  H   0.997        C   71 0.972
    76  H   0.996        C   71 0.956
    77  N   3.477        C   72 1.311    C   78 0.982    H   85 0.914    O   73 0.192
    78  C   3.965        N   77 0.982    C   81 0.976    H   86 0.942    C   79 0.939
    79  C   3.946        O   80 1.611    N   96 1.305    C   78 0.939
    80  O   1.970        C   79 1.611    N   96 0.191
    81  C   3.984        C   82 0.991    C   78 0.976    H   87 0.970    H   88 0.970
    82  C   3.995        C   84 1.011    C   83 1.006    C   81 0.991    H   89 0.966
    83  C   3.993        C   82 1.006    H   92 0.986    H   91 0.986    H   90 0.985
    84  C   3.995        C   82 1.011    H   94 0.986    H   93 0.985    H   95 0.983
    85  H   0.950        N   77 0.914
    86  H   0.993        C   78 0.942
    87  H   0.996        C   81 0.970
    88  H   0.995        C   81 0.970
    89  H   0.998        C   82 0.966
    90  H   0.997        C   83 0.985
    91  H   0.998        C   83 0.986
    92  H   0.998        C   83 0.986
    93  H   0.998        C   84 0.985
    94  H   0.998        C   84 0.986
    95  H   0.999        C   84 0.983
    96  N   3.467        C   79 1.305    C   97 0.972    H  104 0.916    O   80 0.191
    97  C   3.959        C  100 0.982    N   96 0.972    H  105 0.951    C   98 0.933
    98  C   3.944        O   99 1.622    N  115 1.306    C   97 0.933
    99  O   1.979        C   98 1.622    N  115 0.196
   100  C   3.985        C  101 0.995    C   97 0.982    H  107 0.972    H  106 0.964
   101  C   3.994        C  103 1.010    C  102 1.008    C  100 0.995    H  108 0.967
   102  C   3.993        C  101 1.008    H  111 0.986    H  109 0.985    H  110 0.985
   103  C   3.995        C  101 1.010    H  113 0.986    H  112 0.986    H  114 0.983
   104  H   0.953        N   96 0.916
   105  H   0.992        C   97 0.951
   106  H   0.994        C  100 0.964
   107  H   0.996        C  100 0.972
   108  H   0.998        C  101 0.967
   109  H   0.998        C  102 0.985
   110  H   0.998        C  102 0.985
   111  H   0.998        C  102 0.986
   112  H   0.998        C  103 0.986
   113  H   0.999        C  103 0.986
   114  H   0.998        C  103 0.983
   115  N   3.472        C   98 1.306    C  116 0.976    H  123 0.919    O   99 0.196
   116  C   3.961        N  115 0.976    C  119 0.965    H  124 0.951    C  117 0.937
   117  C   3.946        O  118 1.605    N  134 1.314    C  116 0.937
   118  O   1.968        C  117 1.605    N  134 0.193
   119  C   3.986        C  121 1.008    C  120 0.994    C  116 0.965    H  125 0.959
   120  C   3.995        C  122 1.019    C  119 0.994    H  126 0.975    H  127 0.974
   121  C   3.992        C  119 1.008    H  129 0.984    H  130 0.981    H  128 0.979
   122  C   3.994        C  120 1.019    H  132 0.987    H  131 0.986    H  133 0.983
   123  H   0.956        N  115 0.919
   124  H   0.994        C  116 0.951
   125  H   0.996        C  119 0.959
   126  H   0.998        C  120 0.975
   127  H   0.998        C  120 0.974
   128  H   0.996        C  121 0.979
   129  H   0.999        C  121 0.984
   130  H   0.998        C  121 0.981
   131  H   0.997        C  122 0.986
   132  H   0.998        C  122 0.987
   133  H   0.998        C  122 0.983
   134  N   3.463        C  117 1.314    C  135 0.977    H  145 0.879    O  118 0.193
   135  C   3.968        N  134 0.977    C  138 0.966    H  146 0.952    C  136 0.939
   136  C   3.948        O  137 1.594    N  154 1.327    C  135 0.939
   137  O   1.970        C  136 1.594    N  154 0.196
   138  C   3.986        C  139 1.008    H  148 0.969    C  135 0.966    H  147 0.960
   139  C   3.988        C  140 1.419    C  141 1.410    C  138 1.008    C  144 0.110
   140  C   3.991        C  142 1.440    C  139 1.419    H  149 0.969    C  143 0.111
   141  C   3.991        C  143 1.449    C  139 1.410    H  150 0.969    C  142 0.112
   142  C   3.992        C  144 1.442    C  140 1.440    H  151 0.970    C  141 0.112
   143  C   3.992        C  141 1.449    C  144 1.436    H  152 0.971    C  140 0.111
   144  C   3.991        C  142 1.442    C  143 1.436    H  153 0.971    C  139 0.110
   145  H   0.946        N  134 0.879
   146  H   0.996        C  135 0.952
   147  H   0.994        C  138 0.960
   148  H   0.996        C  138 0.969
   149  H   0.999        C  140 0.969
   150  H   0.998        C  141 0.969
   151  H   0.998        C  142 0.970
   152  H   0.998        C  143 0.971
   153  H   0.998        C  144 0.971
   154  N   3.484        C  136 1.327    C  155 0.995    H  158 0.879    O  137 0.196
   155  C   3.967        N  154 0.995    H  159 0.957    H  160 0.954    C  156 0.952
   156  C   3.950        O  157 1.588    N  161 1.333    C  155 0.952
   157  O   1.956        C  156 1.588    N  161 0.195
   158  H   0.944        N  154 0.879
   159  H   0.992        C  155 0.957
   160  H   0.991        C  155 0.954
   161  N   3.487        C  156 1.333    C  162 0.977    H  166 0.889    O  157 0.195
   162  C   3.966        C  165 0.995    N  161 0.977    H  167 0.952    C  163 0.939
   163  C   3.947        O  164 1.556    N  171 1.362    C  162 0.939
   164  O   1.961        C  163 1.556    N  171 0.193
   165  C   3.982        C  162 0.995    H  168 0.981    H  169 0.978    H  170 0.975
   166  H   0.944        N  161 0.889
   167  H   0.994        C  162 0.952
   168  H   0.995        C  165 0.981
   169  H   0.993        C  165 0.978
   170  H   0.994        C  165 0.975
   171  N   3.503        C  163 1.362    C  172 0.975    H  176 0.877    O  164 0.193
   172  C   3.964        C  175 0.996    N  171 0.975    H  177 0.952    C  173 0.934
   173  C   3.947        O  174 1.591    N  181 1.335    C  172 0.934
   174  O   1.956        C  173 1.591    N  181 0.197
   175  C   3.982        C  172 0.996    H  178 0.981    H  179 0.979    H  180 0.977
   176  H   0.940        N  171 0.877
   177  H   0.994        C  172 0.952
   178  H   0.994        C  175 0.981
   179  H   0.994        C  175 0.979
   180  H   0.995        C  175 0.977
   181  N   3.482        C  173 1.335    C  182 0.978    H  188 0.873    O  174 0.197
   182  C   3.964        N  181 0.978    C  185 0.964    H  189 0.946    C  183 0.941
   183  C   3.943        O  184 1.598    N  197 1.311    C  182 0.941
   184  O   1.961        C  183 1.598    N  197 0.190
   185  C   3.986        C  187 1.008    C  186 1.008    C  182 0.964    H  190 0.958
   186  C   3.993        C  185 1.008    H  193 0.984    H  191 0.983    H  192 0.982
   187  C   3.991        C  185 1.008    H  195 0.985    H  194 0.982    H  196 0.977
   188  H   0.942        N  181 0.873
   189  H   0.995        C  182 0.946
   190  H   0.996        C  185 0.958
   191  H   0.996        C  186 0.983
   192  H   0.999        C  186 0.982
   193  H   0.997        C  186 0.984
   194  H   0.996        C  187 0.982
   195  H   0.998        C  187 0.985
   196  H   0.997        C  187 0.977
   197  N   3.464        C  183 1.311    C  198 0.986    H  203 0.874    O  184 0.190
   198  C   3.970        N  197 0.986    C  201 0.960    H  204 0.948    C  199 0.939
   199  C   3.947        O  200 1.580    N  208 1.334    C  198 0.939
   200  O   1.956        C  199 1.580    N  208 0.193
   201  C   3.961        O  202 1.023    H  205 0.971    C  198 0.960    H  206 0.959
   202  O   1.940        C  201 1.023    H  207 0.823
   203  H   0.944        N  197 0.874
   204  H   0.995        C  198 0.948
   205  H   0.996        C  201 0.971
   206  H   0.997        C  201 0.959
   207  H   0.888        O  202 0.823
   208  N   3.489        C  199 1.334    C  209 0.979    H  215 0.887    O  200 0.193
   209  C   3.965        N  208 0.979    C  212 0.966    H  216 0.951    C  210 0.935
   210  C   3.943        O  211 1.594    N  224 1.326    C  209 0.935
   211  O   1.953        C  210 1.594    N  224 0.195
   212  C   3.986        C  213 1.007    C  214 1.007    C  209 0.966    H  217 0.956
   213  C   3.993        C  212 1.007    H  219 0.983    H  220 0.982    H  218 0.977
   214  C   3.991        C  212 1.007    H  222 0.984    H  221 0.979    H  223 0.979
   215  H   0.945        N  208 0.887
   216  H   0.996        C  209 0.951
   217  H   0.996        C  212 0.956
   218  H   0.996        C  213 0.977
   219  H   0.999        C  213 0.983
   220  H   0.999        C  213 0.982
   221  H   0.996        C  214 0.979
   222  H   0.998        C  214 0.984
   223  H   0.996        C  214 0.979
   224  N   3.475        C  210 1.326    C  225 0.976    H  232 0.883    O  211 0.195
   225  C   3.965        C  228 0.980    N  224 0.976    H  233 0.950    C  226 0.935
   226  C   3.945        O  227 1.611    N  243 1.316    C  225 0.935
   227  O   1.928        C  226 1.611    N  243 0.194
   228  C   3.983        C  229 0.991    C  225 0.980    H  235 0.972    H  234 0.965
   229  C   3.993        C  231 1.010    C  230 1.007    C  228 0.991    H  236 0.964
   230  C   3.993        C  229 1.007    H  239 0.986    H  237 0.984    H  238 0.981
   231  C   3.995        C  229 1.010    H  241 0.986    H  240 0.984    H  242 0.981
   232  H   0.943        N  224 0.883
   233  H   0.997        C  225 0.950
   234  H   0.996        C  228 0.965
   235  H   0.997        C  228 0.972
   236  H   0.998        C  229 0.964
   237  H   0.996        C  230 0.984
   238  H   0.999        C  230 0.981
   239  H   0.998        C  230 0.986
   240  H   0.997        C  231 0.984
   241  H   0.998        C  231 0.986
   242  H   0.999        C  231 0.981
   243  N   3.467        C  226 1.316    C  244 0.980    H  251 0.883    O  227 0.194
   244  C   3.965        N  243 0.980    C  247 0.978    H  252 0.952    C  245 0.935
   245  C   3.942        O  246 1.610    N  262 1.319    C  244 0.935
   246  O   1.928        C  245 1.610    N  262 0.195
   247  C   3.984        C  248 0.992    C  244 0.978    H  254 0.973    H  253 0.966
   248  C   3.992        C  249 1.010    C  250 1.007    C  247 0.992    H  255 0.969
   249  C   3.994        C  248 1.010    H  257 0.986    H  256 0.984    H  258 0.977
   250  C   3.994        C  248 1.007    H  261 0.986    H  259 0.985    H  260 0.982
   251  H   0.944        N  243 0.883
   252  H   0.996        C  244 0.952
   253  H   0.996        C  247 0.966
   254  H   0.997        C  247 0.973
   255  H   0.998        C  248 0.969
   256  H   0.997        C  249 0.984
   257  H   0.999        C  249 0.986
   258  H   0.997        C  249 0.977
   259  H   0.996        C  250 0.985
   260  H   0.998        C  250 0.982
   261  H   0.998        C  250 0.986
   262  N   3.467        C  245 1.319    C  263 0.982    H  271 0.873    O  246 0.195
   263  C   3.969        N  262 0.982    C  266 0.981    H  272 0.953    C  264 0.932
   264  C   3.942        O  265 1.618    N  279 1.311    C  263 0.932
   265  O   1.928        C  264 1.618    N  279 0.192
   266  C   3.989        C  267 0.992    C  263 0.981    H  274 0.973    H  273 0.967
   267  C   3.990        C  266 0.992    C  268 0.969    H  276 0.961    H  275 0.957
   268  C   3.946        O  269 1.638    N  270 1.312    C  267 0.969
   269  O   1.936        C  268 1.638    N  270 0.200
   270  N   3.405        C  268 1.312    H  277 0.929    H  278 0.924    O  269 0.200
   271  H   0.944        N  262 0.873
   272  H   0.995        C  263 0.953
   273  H   0.997        C  266 0.967
   274  H   0.997        C  266 0.973
   275  H   0.994        C  267 0.957
   276  H   0.993        C  267 0.961
   277  H   0.952        N  270 0.929
   278  H   0.946        N  270 0.924
   279  N   3.475        C  264 1.311    C  280 0.982    H  288 0.894    O  265 0.192
   280  C   3.969        N  279 0.982    C  281 0.978    C  283 0.964    H  289 0.943
   281  C   3.899        O  282 1.888    C  280 0.978    H  368 0.954
   282  O   2.027        C  281 1.888
   283  C   3.989        C  284 0.996    H  291 0.975    H  290 0.966    C  280 0.964
   284  C   3.988        C  283 0.996    H  293 0.977    H  292 0.975    C  285 0.919
   285  C   3.935        O  287 1.510    O  286 1.487    C  284 0.919
   286  O   1.786        C  285 1.487    O  287 0.218
   287  O   1.800        C  285 1.510    O  286 0.218
   288  H   0.950        N  279 0.894
   289  H   0.995        C  280 0.943
   290  H   0.996        C  283 0.966
   291  H   0.998        C  283 0.975
   292  H   0.999        C  284 0.975
   293  H   0.998        C  284 0.977
   294  N   2.990        C  295 1.009    H  369 0.955    H  304 0.953
   295  C   3.985        N  294 1.009    C  298 0.974    H  305 0.966    C  296 0.938
   296  C   3.947        O  297 1.630    N  311 1.304    C  295 0.938
   297  O   1.977        C  296 1.630    N  311 0.195
   298  C   3.996        C  299 1.013    C  295 0.974    H  306 0.970    H  307 0.960
   299  C   3.974        C  301 1.549    N  300 1.277    C  298 1.013
   300  N   3.013        C  302 1.534    C  299 1.277    N  303 0.105
   301  C   3.944        C  299 1.549    N  303 1.222    H  308 0.972    C  302 0.119
   302  C   3.951        N  300 1.534    N  303 1.272    H  309 0.963    C  301 0.119
   303  N   3.600        C  302 1.272    C  301 1.222    H  310 0.930    N  300 0.105
   304  H   0.974        N  294 0.953
   305  H   0.998        C  295 0.966
   306  H   0.999        C  298 0.970
   307  H   0.998        C  298 0.960
   308  H   1.000        C  301 0.972
   309  H   0.997        C  302 0.963
   310  H   0.960        N  303 0.930
   311  N   3.469        C  296 1.304    C  312 0.973    H  319 0.917    O  297 0.195
   312  C   3.962        N  311 0.973    C  315 0.970    C  313 0.970    H  320 0.944
   313  C   3.906        O  314 1.885    C  312 0.970    H  370 0.954
   314  O   2.041        C  313 1.885
   315  C   3.982        C  316 0.990    C  312 0.970    H  321 0.969    H  322 0.966
   316  C   3.993        C  317 1.011    C  318 1.008    C  315 0.990    H  323 0.965
   317  C   3.994        C  316 1.011    H  326 0.985    H  324 0.982    H  325 0.981
   318  C   3.994        C  316 1.008    H  328 0.986    H  329 0.985    H  327 0.985
   319  H   0.956        N  311 0.917
   320  H   0.995        C  312 0.944
   321  H   0.995        C  315 0.969
   322  H   0.994        C  315 0.966
   323  H   0.998        C  316 0.965
   324  H   0.998        C  317 0.982
   325  H   0.999        C  317 0.981
   326  H   0.998        C  317 0.985
   327  H   0.997        C  318 0.985
   328  H   0.997        C  318 0.986
   329  H   0.998        C  318 0.985
   330  N   3.007        C  331 1.014    H  371 0.955    H  336 0.944
   331  C   3.986        N  330 1.014    C  332 0.972    C  334 0.966    H  337 0.958
   332  C   3.894        O  333 1.891    C  331 0.972    H  372 0.954
   333  O   2.039        C  332 1.891
   334  C   3.957        O  335 1.000    C  331 0.966    H  339 0.964    H  338 0.963
   335  O   1.935        C  334 1.000    H  340 0.875
   336  H   0.971        N  330 0.944
   337  H   0.996        C  331 0.958
   338  H   0.998        C  334 0.963
   339  H   0.999        C  334 0.964
   340  H   0.896        O  335 0.875
   341  N   2.997        C  342 1.025    H  373 0.957    H  352 0.941
   342  C   3.988        N  341 1.025    C  343 0.979    C  345 0.959    H  353 0.943
   343  C   3.890        O  344 1.881    C  342 0.979    H  374 0.953
   344  O   2.022        C  343 1.881
   345  C   3.992        C  346 1.006    H  354 0.964    C  342 0.959    H  355 0.957
   346  C   3.988        C  347 1.421    C  348 1.399    C  345 1.006    C  351 0.109
   347  C   3.992        C  349 1.433    C  346 1.421    H  356 0.965    C  350 0.108
   348  C   3.989        C  350 1.454    C  346 1.399    H  357 0.969    C  349 0.113
   349  C   3.992        C  351 1.446    C  347 1.433    H  358 0.971    C  348 0.113
   350  C   3.991        C  348 1.454    C  351 1.427    H  359 0.968    C  347 0.108
   351  C   3.992        C  349 1.446    C  350 1.427    H  360 0.968    C  346 0.109
   352  H   0.969        N  341 0.941
   353  H   0.997        C  342 0.943
   354  H   0.996        C  345 0.964
   355  H   0.996        C  345 0.957
   356  H   0.999        C  347 0.965
   357  H   0.998        C  348 0.969
   358  H   0.999        C  349 0.971
   359  H   0.998        C  350 0.968
   360  H   0.998        C  351 0.968
   361  H   0.969        N    1 0.958
   362  H   0.994        C    3 0.954
   363  H   0.967        N   20 0.956
   364  H   0.993        C   22 0.953
   365  H   0.968        N   30 0.957
   366  H   0.996        C   48 0.955
   367  H   0.966        N   70 0.956
   368  H   0.994        C  281 0.954
   369  H   0.965        N  294 0.955
   370  H   0.995        C  313 0.954
   371  H   0.967        N  330 0.955
   372  H   0.994        C  332 0.954
   373  H   0.969        N  341 0.957
   374  H   0.994        C  343 0.953
 
molecular dipole:
                 x           y           z       tot (Debye)
 q only:      -45.470     -43.815     -51.037
   full:      -45.923     -43.854     -50.938     206.915
molecular quadrupole (traceless):
                xx          xy          yy          xz          yz          zz
 q only:     -122.802   -3392.765     712.476   -4020.071   -2545.524    -589.675
  q+dip:     -148.055   -3458.699     709.876   -4097.421   -2512.513    -561.821
   full:     -141.668   -3461.378     708.976   -4093.773   -2515.430    -567.308


           -------------------------------------------------
          | TOTAL ENERGY             -553.467135684345 Eh   |
          | GRADIENT NORM               0.588038719239 Eh/α |
          | HOMO-LUMO GAP               1.789074214613 eV   |
           -------------------------------------------------

------------------------------------------------------------------------
 * finished run on 2019/05/31 at 07:36:32.379     
------------------------------------------------------------------------
 total:
 * wall-time:     0 d,  0 h,  0 min, 13.961 sec
 *  cpu-time:     0 d,  0 h,  0 min,  6.550 sec
 * ratio c/w:     0.469 speedup
 SCF:
 * wall-time:     0 d,  0 h,  0 min, 13.025 sec
 *  cpu-time:     0 d,  0 h,  0 min,  6.202 sec
 * ratio c/w:     0.476 speedup

