      -----------------------------------------------------------      
     |                   =====================                   |     
     |                           x T B                           |     
     |                   =====================                   |     
     |                         S. Grimme                         |     
     |          Mulliken Center for Theoretical Chemistry        |     
     |                    University of Bonn                     |     
     |                Version 6.1 RC1 (SAW190329)                |     
      -----------------------------------------------------------      

   This program is distributed in the hope that it will be useful,
   but WITHOUT ANY WARRANTY; without even the implied warranty of
   MERCHANTABILITY or FITNESS FOR A PARTICULAR PURPOSE.
   
   FOR NON-COMMERCIAL, ACADEMIA USE ONLY.
   
   Cite this work as:
   S. Grimme, C. Bannwarth, P. Shushkov, J. Comput. Theory Chem., 2017,
   13, 1989-2009. DOI: 10.1021/acs.jctc.7b00118
   C. Bannwarth, S. Ehlert and S. Grimme., J. Comput. Theory Chem., 2019,
   just accepted. DOI: 10.1021/acs.jctc.8b01176
   
   for sTDA-xTB:
   S. Grimme and C. Bannwarth, J. Chem. Phys., 2016, 145, 054103.
   DOI: 10.1063/1.4959605
   
   in the mass-spec context:
   V. Asgeirsson, C. Bauer and S. Grimme, Chem. Sci., 2017, 8, 4879.
   DOI: 10.1039/c7sc00601b
   
   for metadynamics refer to:
   S. Grimme, ChemRxiv, Preprint. DOI: 10.26434/chemrxiv.7660532.v1
   
   with help from (in alphabetical order)
   C. Bannwarth, F. Bohle, G. Brandenburg, E. Caldeweyher, M. Checinski,
   S. Dohm, S. Ehlert, S. Ehrlich, F. März, H. Neugebauer, J. Pisarek,
   P. Pracht, P. Shushkov, and S. Spicher.
   
 * started run on 2019/05/31 at 07:35:57.547     

           -------------------------------------------------
          |                Calculation Setup                |
           -------------------------------------------------

          program call               : /home/lum/install/xtb/xtb-190329/bin/xtb xtb_tmp.xyz --chrg 2 --grad --gfn 2 --etemp 500 --acc 0.1 --gbsa h2o --parallel 1
          hostname                   : cu05
          coordinate file            : xtb_tmp.xyz
          omp threads                :                     1
          number of atoms            :                   646
          number of electrons        :                  1702
          charge                     :                     2
          spin                       :                   0.0
          first test random number   :      0.20755931485563


molecular fragmentation (1/2 indicates fragments):
111111111122222222222222222222222222222222222222222222222222222222222222
222222222222222222222222222222222222222222222222222222222222222222222222
222222222222222222222222222222222222222222222222222222222222222222222222
222222222222222222222222222222222222222222222222222222222222222222222222
222222222222222222222222222222222222222222222222222222222222222222222222
222222222222222222222222222222222222222222222222222222222222222222222222
222222222222222222222222222222222222222222222222222222222222222222222222
222222222222222222222222222222222222222222222222222222222222222222222222
2222222222222222222222222222222222222222222211222222222222222222222222
# atoms in fragment 1/2:    12   634
 fragment masses (1/2) :       73.09     4230.25
CMA distance (Bohr)    :  25.276
constraining FC (au)   :  0.0500

########################################################################
# WARNING! Please study the warnings concerning your input carefully
#  - XTBPATH is not set, using XTBHOME instead
########################################################################

           ------------------------------------------------- 
          |                 G F N 2 - x T B                 |
          | Geometry, Frequencies, Noncovalent interactions |
          |            JCTC 2018 parametrisation            |
           ------------------------------------------------- 
 
             k(s)              :                1.8500
             k(p)              :                2.2300
             k(d)              :                2.2300
             k(f)              :                2.0000
             kEN (H0ij)        :               -2.0000
             D4 a1             :                0.5200
             D4 a2             :                5.0000
             D4 s6             :                1.0000
             D4 s8             :                2.7000
             D4 s9             :                5.0000
             alphaj            :                2.0000

  Z AO/shell   Hii/eV     exponent
  1     Wed Apr 25 08:07:45 CEST 2018   EN: 2.200 GM2: 0.406  GM3: 0.0800  RAES: 1.40
     1s    -10.707211    1.230000
  6     Wed Apr 25 08:07:45 CEST 2018   EN: 2.550 GM2: 0.538  GM3: 0.1500  RAES: 3.00
     2s    -13.970922    2.096432
     2p    -10.063292    1.800000
  7     Wed Apr 25 08:07:45 CEST 2018   EN: 3.040 GM2: 0.461  GM3:-0.0640  RAES: 1.90
     2s    -16.686243    2.339881
     2p    -12.523956    2.014332
  8     Wed Apr 25 08:07:45 CEST 2018   EN: 3.440 GM2: 0.452  GM3:-0.0517  RAES: 1.80
     2s    -20.229985    2.439742
     2p    -15.503117    2.137023
 16     Tue Apr 24 11:44:34 CEST 2018   EN: 2.580 GM2: 0.340  GM3:-0.0502  RAES: 3.10
     3s    -20.029654    1.981333
     3p    -11.377694    2.025643
     3d     -0.420282    1.702555

 Solvent             : h2o
 Using internal parameter file: .param_gbsa2_h2o
 Gsolv ref. state (COSMO-RS): gsolv [1 M gas/solution]
 temperature (mdtemp)       :    298.150000000000     
 dielectric constant        :    80.2000000000000     
 rho                        :    1.00000000000000     
 mass                       :    18.0000000000000     
 surface tension            :    15.5689454083859     
 probe radius               :   0.975313790000000     
 vdW radii scaling          :    1.00000000000000     
 Gshift (Eh)                :   1.857443126794793E-003
 c1                         :    1.55243817000000     
 soset                      :   0.130326360000000     
 HB correction              :  T
 Number of grid points      :          230

            Z     q(EN)     CN     RAES       Cart. coordinates
     1  N   5.0   -0.70    3.00    1.93    29.42224    75.32830    76.82179
     2  C   4.0    0.06    3.98    3.58    28.39243    72.79410    76.60251
     3  C   4.0    0.07    3.00    3.02    27.61410    72.26606    73.86175
     4  O   6.0   -0.48    1.00    1.80    28.23559    70.31063    72.77562
     5  C   4.0   -0.21    3.98    3.59    26.14073    72.50097    78.36772
     6  H   1.0    0.26    1.00    1.43    28.64068    76.50680    78.12566
     7  H   1.0    0.11    0.99    1.43    29.87563    71.41903    77.06971
     8  H   1.0    0.10    0.99    1.43    25.35101    70.61546    78.18856
     9  H   1.0    0.11    0.99    1.43    26.74085    72.79970    80.30861
    10  H   1.0    0.12    0.99    1.43    24.70123    73.88370    77.88271
    11  N   5.0   -0.69    3.00    1.93    32.98969    70.97400    69.72646
    12  C   4.0    0.08    3.99    3.60    33.90462    68.41702    70.08062
    13  C   4.0    0.28    3.01    3.02    32.34991    66.57969    68.48196
    14  O   6.0   -0.46    1.00    1.80    33.34567    65.06124    67.03526
    15  C   4.0   -0.09    3.98    3.59    33.77160    67.63442    72.86967
    16  C   4.0   -0.21    3.98    3.59    34.29826    64.80935    73.10417
    17  C   4.0   -0.22    3.98    3.59    35.66839    69.13395    74.44001
    18  H   1.0    0.28    1.00    1.43    32.31510    71.90679    71.25876
    19  H   1.0    0.12    0.99    1.43    35.86324    68.28504    69.40240
    20  H   1.0    0.14    0.99    1.43    31.85395    68.03001    73.53638
    21  H   1.0    0.11    0.99    1.43    34.47318    64.27398    75.07498
    22  H   1.0    0.11    0.99    1.43    32.81443    63.68857    72.22771
    23  H   1.0    0.13    0.99    1.43    36.07406    64.33746    72.18469
    24  H   1.0    0.10    0.99    1.43    35.50095    68.57448    76.40974
    25  H   1.0    0.12    0.99    1.43    37.57463    68.69873    73.80984
    26  H   1.0    0.10    0.99    1.43    35.32007    71.15057    74.26970
    27  N   5.0   -0.49    3.01    1.93    29.85918    66.73435    68.82223
    28  C   4.0    0.06    3.99    3.61    28.17099    65.04599    67.48060
    29  C   4.0    0.10    3.00    3.02    28.82945    65.10358    64.66866
    30  O   6.0   -0.41    1.00    1.80    29.11719    63.15864    63.43495
    31  C   4.0   -0.14    3.99    3.60    25.41393    65.81392    67.87028
    32  C   4.0   -0.10    3.98    3.58    24.41472    65.29799    70.54536
    33  C   4.0   -0.22    3.98    3.59    21.87609    66.63095    70.88541
    34  C   4.0   -0.23    3.98    3.59    24.09994    62.47187    71.03449
    35  H   1.0    0.29    1.00    1.43    29.10309    67.98503    70.06592
    36  H   1.0    0.12    0.99    1.43    28.49437    63.09882    68.11852
    37  H   1.0    0.12    0.99    1.43    25.26813    67.82812    67.45388
    38  H   1.0    0.11    0.99    1.43    24.25329    64.78643    66.50774
    39  H   1.0    0.13    0.99    1.43    25.75523    66.07285    71.91751
    40  H   1.0    0.10    0.99    1.43    21.11848    66.26172    72.75755
    41  H   1.0    0.11    0.99    1.43    22.08167    68.66208    70.65927
    42  H   1.0    0.11    0.99    1.43    20.52523    65.95412    69.49310
    43  H   1.0    0.10    0.99    1.43    23.37910    62.15053    72.93149
    44  H   1.0    0.11    0.99    1.43    22.76916    61.66322    69.69334
    45  H   1.0    0.09    0.99    1.43    25.88321    61.46771    70.84731
    46  N   5.0   -0.68    3.00    1.93    34.01237    67.23434    61.82370
    47  C   4.0    0.08    3.98    3.59    36.48393    66.15717    61.33402
    48  C   4.0    0.29    3.01    3.02    36.22509    63.31713    60.82529
    49  O   6.0   -0.37    1.00    1.80    37.34107    62.29168    59.07029
    50  C   4.0   -0.12    3.99    3.60    38.24504    66.53138    63.59349
    51  C   4.0   -0.12    3.98    3.59    39.08487    69.28096    63.93916
    52  C   4.0    0.27    3.00    3.02    40.70932    69.49846    66.29513
    53  O   6.0   -0.38    1.00    1.80    42.60560    68.20662    66.61031
    54  N   5.0   -0.66    3.00    1.93    39.94383    71.18230    68.02055
    55  H   1.0    0.27    1.00    1.43    33.78627    68.33438    63.37841
    56  H   1.0    0.12    0.99    1.43    37.28897    67.01756    59.62229
    57  H   1.0    0.15    0.99    1.43    37.25463    65.88033    65.28268
    58  H   1.0    0.14    0.99    1.43    39.90834    65.33969    63.33919
    59  H   1.0    0.12    0.99    1.43    40.21735    69.85810    62.31366
    60  H   1.0    0.11    0.99    1.43    37.44329    70.50739    64.08573
    61  H   1.0    0.25    1.00    1.43    38.44068    72.31919    67.76359
    62  H   1.0    0.28    1.00    1.43    40.98705    71.44178    69.59447
    63  N   5.0   -0.47    3.01    1.93    34.79257    62.07010    62.47797
    64  C   4.0    0.09    3.99    3.61    34.48526    59.35623    62.34405
    65  C   4.0    0.10    3.00    3.02    32.99946    58.59313    59.98564
    66  O   6.0   -0.37    1.00    1.80    33.64231    56.77745    58.68446
    67  C   4.0   -0.14    3.98    3.59    33.19678    58.37435    64.73218
    68  C   4.0   -0.12    3.98    3.58    34.97502    58.46967    67.01144
    69  C   4.0    0.30    2.99    3.02    37.12088    56.47532    66.78559
    70  O   6.0   -0.39    1.00    1.80    38.95928    57.02396    65.39252
    71  O   6.0   -0.44    1.00    1.80    36.86322    54.47685    67.98753
    72  H   1.0    0.30    1.00    1.43    33.97393    62.99594    63.94011
    73  H   1.0    0.18    0.99    1.43    36.36434    58.48652    62.18649
    74  H   1.0    0.13    0.99    1.43    31.51861    59.52737    65.08222
    75  H   1.0    0.12    0.99    1.43    32.59479    56.42433    64.41069
    76  H   1.0    0.13    0.99    1.43    35.80831    60.34860    67.17879
    77  H   1.0    0.10    0.99    1.43    33.91760    58.05328    68.73374
    78  N   5.0   -0.72    3.00    1.93    57.88078    65.76192    78.25042
    79  C   4.0    0.06    3.98    3.59    55.90928    65.78315    76.35021
    80  C   4.0    0.08    3.00    3.02    56.86794    64.46786    73.96816
    81  O   6.0   -0.49    1.00    1.80    55.56094    62.98478    72.74683
    82  C   4.0   -0.08    3.98    3.58    55.10296    68.51736    75.74759
    83  C   4.0   -0.16    3.98    3.58    53.58963    69.69663    77.92587
    84  C   4.0   -0.21    3.98    3.59    53.65020    68.66586    73.25764
    85  C   4.0   -0.23    3.98    3.58    50.98698    68.54605    78.38433
    86  H   1.0    0.26    1.00    1.43    58.44622    67.42535    79.01123
    87  H   1.0    0.10    0.99    1.43    54.28148    64.68254    77.01864
    88  H   1.0    0.12    0.99    1.43    56.84727    69.60858    75.53873
    89  H   1.0    0.10    0.99    1.43    54.70137    69.56048    79.65485
    90  H   1.0    0.11    0.99    1.43    53.34708    71.70120    77.50025
    91  H   1.0    0.11    0.99    1.43    53.00255    70.58992    72.93934
    92  H   1.0    0.12    0.99    1.43    54.85066    68.12729    71.67963
    93  H   1.0    0.11    0.99    1.43    52.02543    67.41206    73.29912
    94  H   1.0    0.10    0.99    1.43    50.12309    69.42685    80.02790
    95  H   1.0    0.11    0.99    1.43    49.74469    68.84944    76.77851
    96  H   1.0    0.10    0.99    1.43    51.09944    66.52747    78.75032
    97  N   5.0   -0.69    3.00    1.93    57.25520    57.48790    75.22305
    98  C   4.0    0.08    3.98    3.59    54.71001    56.47243    75.30765
    99  C   4.0    0.29    3.02    3.02    53.86478    55.82500    72.63289
   100  O   6.0   -0.47    1.00    1.80    52.94849    53.77565    72.09553
   101  C   4.0   -0.13    3.99    3.60    52.78069    58.34582    76.40233
   102  C   4.0   -0.11    3.97    3.58    51.88130    57.82124    79.11115
   103  C   4.0   -0.23    3.98    3.59    51.10188    55.06436    79.48577
   104  C   4.0   -0.23    3.98    3.59    53.82908    58.61443    81.07658
   105  H   1.0    0.27    1.00    1.43    57.65699    59.00952    76.32521
   106  H   1.0    0.11    0.99    1.43    54.71759    54.69632    76.36956
   107  H   1.0    0.12    0.99    1.43    53.59433    60.23494    76.30636
   108  H   1.0    0.12    0.99    1.43    51.10738    58.32235    75.19347
   109  H   1.0    0.10    0.99    1.43    50.18790    58.98384    79.36609
   110  H   1.0    0.09    0.99    1.43    49.84211    54.91238    81.10127
   111  H   1.0    0.12    0.99    1.43    50.11435    54.36589    77.82604
   112  H   1.0    0.10    0.99    1.43    52.73093    53.86112    79.84461
   113  H   1.0    0.11    0.99    1.43    53.18683    58.10742    82.96010
   114  H   1.0    0.11    0.99    1.43    55.63577    57.70922    80.72711
   115  H   1.0    0.09    0.99    1.43    54.13222    60.64307    81.02664
   116  N   5.0   -0.48    3.01    1.93    54.02508    57.74208    70.98842
   117  C   4.0    0.07    4.00    3.61    53.06596    57.47145    68.44182
   118  C   4.0    0.09    3.00    3.02    54.40954    55.34353    67.03148
   119  O   6.0   -0.39    1.00    1.80    53.21145    53.80732    65.78198
   120  C   4.0   -0.13    3.98    3.59    53.27111    59.97996    66.98938
   121  C   4.0    0.09    3.22    3.04    51.10076    61.62755    67.67854
   122  N   5.0   -0.47    3.15    1.95    51.10245    63.14198    69.77245
   123  C   4.0    0.07    3.35    3.07    48.70114    61.79274    66.72100
   124  C   4.0    0.17    3.41    3.08    48.77174    64.14923    69.97523
   125  N   5.0   -0.40    2.10    1.90    47.28344    63.37097    68.16386
   126  H   1.0    0.29    1.00    1.43    54.77849    59.42333    71.51158
   127  H   1.0    0.13    0.99    1.43    51.07832    56.88614    68.57399
   128  H   1.0    0.13    0.99    1.43    55.06121    60.87655    67.47814
   129  H   1.0    0.12    0.99    1.43    53.28473    59.60281    64.96329
   130  H   1.0    0.28    1.00    1.43    52.59383    63.38351    70.95146
   131  H   1.0    0.12    1.00    1.43    47.91385    60.94361    65.06432
   132  H   1.0    0.11    1.00    1.43    48.21173    65.42528    71.44392
   133  N   5.0   -0.69    3.00    1.93    51.54946    49.41108    69.55210
   134  C   4.0    0.07    3.98    3.59    48.91787    49.22579    68.82933
   135  C   4.0    0.09    3.00    3.02    48.65293    48.41152    66.07740
   136  O   6.0   -0.49    1.00    1.80    46.90746    47.02742    65.44447
   137  C   4.0   -0.12    3.99    3.60    47.52367    51.73761    69.20174
   138  C   4.0   -0.03    3.12    3.03    46.75264    52.22773    71.88133
   139  C   4.0    0.00    3.22    3.04    46.05211    50.50175    73.67070
   140  C   4.0    0.02    3.18    3.03    46.49048    54.65707    73.03300
   141  N   5.0   -0.48    3.11    1.94    45.38789    51.69798    75.85729
   142  C   4.0    0.11    3.22    3.04    45.64243    54.23769    75.54225
   143  C   4.0   -0.10    3.02    3.02    46.88695    57.13669    72.22930
   144  C   4.0   -0.11    3.02    3.02    45.26499    56.21238    77.23360
   145  C   4.0   -0.10    3.03    3.02    46.53880    59.07954    73.92258
   146  C   4.0   -0.12    3.03    3.02    45.75065    58.63354    76.40494
   147  H   1.0    0.34    1.00    1.43    52.15663    51.05640    70.34204
   148  H   1.0    0.11    0.99    1.43    48.01696    47.72713    69.93691
   149  H   1.0    0.14    0.99    1.43    48.76824    53.23893    68.53732
   150  H   1.0    0.12    0.99    1.43    45.83080    51.68576    68.01606
   151  H   1.0    0.10    1.00    1.43    46.01428    48.47773    73.58373
   152  H   1.0    0.23    1.00    1.43    44.77209    50.81097    77.42179
   153  H   1.0    0.12    1.00    1.43    47.47851    57.54061    70.31999
   154  H   1.0    0.11    1.00    1.43    44.61762    55.85100    79.13477
   155  H   1.0    0.13    1.00    1.43    46.86006    61.00478    73.33841
   156  H   1.0    0.13    0.99    1.43    45.52276    60.21865    77.67278
   157  N   5.0   -0.69    3.00    1.93    49.77691    41.45332    65.40097
   158  C   4.0    0.08    3.99    3.60    47.66492    40.07427    66.45230
   159  C   4.0    0.29    3.01    3.02    45.39175    40.25884    64.67172
   160  O   6.0   -0.46    1.00    1.80    44.05984    38.42581    64.17760
   161  C   4.0   -0.09    3.98    3.59    46.97678    41.08494    69.08578
   162  C   4.0   -0.23    3.98    3.59    44.68655    39.67318    70.12130
   163  C   4.0   -0.22    3.98    3.59    49.19475    40.81559    70.91443
   164  H   1.0    0.27    1.00    1.43    50.58300    42.84071    66.44766
   165  H   1.0    0.11    0.99    1.43    48.15945    38.05668    66.55961
   166  H   1.0    0.12    0.99    1.43    46.51220    43.08962    68.86976
   167  H   1.0    0.09    0.99    1.43    44.14125    40.47093    71.92952
   168  H   1.0    0.12    0.99    1.43    43.09860    39.78208    68.82605
   169  H   1.0    0.11    0.99    1.43    45.14754    37.68690    70.38630
   170  H   1.0    0.10    0.99    1.43    48.61127    41.40081    72.79499
   171  H   1.0    0.11    0.99    1.43    49.81171    38.85565    71.00053
   172  H   1.0    0.11    0.99    1.43    50.78653    41.97430    70.33867
   173  N   5.0   -0.48    3.01    1.93    44.89310    42.58213    63.85198
   174  C   4.0    0.07    3.99    3.61    42.64323    43.16131    62.40792
   175  C   4.0    0.10    3.00    3.02    42.37084    41.31079    60.22444
   176  O   6.0   -0.39    1.00    1.80    40.45464    40.05375    59.88793
   177  C   4.0   -0.12    3.99    3.60    42.78024    45.87150    61.38072
   178  C   4.0   -0.02    3.03    3.02    40.34972    46.49959    60.04758
   179  C   4.0   -0.07    3.03    3.02    39.99078    45.86518    57.52386
   180  C   4.0   -0.09    3.03    3.02    38.38210    47.61646    61.37950
   181  C   4.0   -0.08    3.03    3.02    37.66591    46.24029    56.38395
   182  C   4.0   -0.09    3.03    3.02    36.08389    48.06756    60.22001
   183  C   4.0   -0.08    3.03    3.02    35.70843    47.32677    57.74028
   184  H   1.0    0.31    1.00    1.43    45.95598    44.09396    64.39301
   185  H   1.0    0.13    0.99    1.43    40.96291    42.93708    63.60993
   186  H   1.0    0.13    0.99    1.43    43.08618    47.11859    62.99180
   187  H   1.0    0.13    0.99    1.43    44.38453    46.01541    60.09575
   188  H   1.0    0.13    0.99    1.43    41.52190    45.04968    56.44537
   189  H   1.0    0.12    1.00    1.43    38.63973    48.11652    63.34029
   190  H   1.0    0.13    0.99    1.43    37.37672    45.65321    54.44975
   191  H   1.0    0.12    1.00    1.43    34.57972    48.96024    61.26290
   192  H   1.0    0.12    1.00    1.43    33.88135    47.56686    56.87315
   193  N   5.0   -0.69    3.00    1.93    41.50935    34.14474    62.16521
   194  C   4.0    0.06    3.98    3.58    39.03576    33.77096    63.27949
   195  C   4.0    0.08    3.00    3.02    36.94563    33.88934    61.28449
   196  O   6.0   -0.45    1.00    1.80    35.21670    32.34496    61.25240
   197  C   4.0   -0.20    3.99    3.60    38.56479    35.77789    65.28963
   198  H   1.0    0.33    1.00    1.43    42.53982    35.63301    62.80112
   199  H   1.0    0.10    0.99    1.43    38.96147    31.86795    64.10434
   200  H   1.0    0.11    0.99    1.43    36.66171    35.60381    66.03741
   201  H   1.0    0.10    0.99    1.43    39.92282    35.57585    66.81419
   202  H   1.0    0.14    0.99    1.43    38.78037    37.64205    64.45537
   203  N   5.0   -0.71    3.00    1.93    36.66299    27.98855    57.62071
   204  C   4.0    0.08    3.98    3.59    35.64900    26.05504    59.25841
   205  C   4.0    0.28    3.01    3.02    32.75288    26.22179    59.50693
   206  O   6.0   -0.41    1.00    1.80    31.56251    24.46631    60.42062
   207  C   4.0   -0.15    3.99    3.60    36.66534    26.33095    61.95577
   208  C   4.0   -0.16    3.98    3.59    39.53667    26.21891    62.21407
   209  C   4.0   -0.04    3.98    3.59    40.65894    23.56928    62.03280
   210  N   5.0   -0.47    3.02    1.93    43.29580    23.76545    62.74806
   211  C   4.0    0.37    3.00    3.02    44.70666    21.99320    63.79969
   212  N   5.0   -0.64    3.01    1.93    43.86388    19.63939    64.13620
   213  N   5.0   -0.64    3.02    1.93    46.97696    22.65789    64.66938
   214  H   1.0    0.28    1.00    1.43    37.67472    29.41497    58.39870
   215  H   1.0    0.11    0.99    1.43    36.08131    24.19435    58.45899
   216  H   1.0    0.13    0.99    1.43    36.02064    28.17555    62.61870
   217  H   1.0    0.11    0.99    1.43    35.77899    24.84244    63.07456
   218  H   1.0    0.11    0.99    1.43    40.40761    27.41821    60.78763
   219  H   1.0    0.10    0.99    1.43    40.06621    26.99495    64.05110
   220  H   1.0    0.12    0.99    1.43    39.67223    22.31065    63.34024
   221  H   1.0    0.12    0.99    1.43    40.46631    22.83794    60.10618
   222  H   1.0    0.23    1.00    1.43    44.12761    25.50817    62.54655
   223  H   1.0    0.27    1.00    1.43    42.25760    19.06515    63.29615
   224  H   1.0    0.27    1.00    1.43    44.99826    18.31371    64.89446
   225  H   1.0    0.26    1.00    1.43    47.56131    24.44426    64.33137
   226  H   1.0    0.28    1.00    1.43    48.24864    21.36522    65.23911
   227  N   5.0   -0.48    3.01    1.93    31.74963    28.45802    58.90206
   228  C   4.0    0.07    3.99    3.60    29.08801    29.06009    59.13523
   229  C   4.0    0.29    3.01    3.02    28.28664    29.04873    61.91022
   230  O   6.0   -0.46    1.00    1.80    26.09229    28.76410    62.57905
   231  C   4.0   -0.13    3.98    3.59    27.47337    27.27171    57.51421
   232  C   4.0   -0.15    3.98    3.58    24.76032    28.18608    57.17559
   233  C   4.0   -0.04    3.99    3.60    23.33049    26.44341    55.35529
   234  N   5.0   -0.48    3.02    1.93    20.64790    27.00680    55.25754
   235  C   4.0    0.38    3.00    3.02    19.57763    28.87597    53.95757
   236  N   5.0   -0.63    3.02    1.93    20.93963    30.41460    52.51908
   237  N   5.0   -0.64    3.02    1.93    17.07838    29.15639    54.05178
   238  H   1.0    0.28    1.00    1.43    32.83371    29.79262    58.07794
   239  H   1.0    0.11    0.99    1.43    28.87157    30.99689    58.43298
   240  H   1.0    0.12    0.99    1.43    28.41456    27.11811    55.68292
   241  H   1.0    0.15    0.99    1.43    27.49745    25.40422    58.38490
   242  H   1.0    0.15    0.99    1.43    23.83144    28.16864    59.01170
   243  H   1.0    0.12    0.99    1.43    24.78187    30.12550    56.47368
   244  H   1.0    0.12    0.99    1.43    24.14209    26.54876    53.46093
   245  H   1.0    0.12    0.99    1.43    23.52339    24.49450    55.99448
   246  H   1.0    0.24    1.00    1.43    19.53088    25.97683    56.41004
   247  H   1.0    0.26    1.00    1.43    22.84025    30.34867    52.53292
   248  H   1.0    0.28    1.00    1.43    20.10901    31.84276    51.57760
   249  H   1.0    0.27    1.00    1.43    15.97740    27.96447    55.04571
   250  H   1.0    0.28    1.00    1.43    16.22222    30.55547    53.09039
   251  N   5.0   -0.47    3.01    1.93    30.14562    29.42006    63.59697
   252  C   4.0    0.07    4.00    3.61    29.62125    29.19414    66.28795
   253  C   4.0    0.28    3.01    3.02    29.01008    31.85765    67.26258
   254  O   6.0   -0.46    1.00    1.80    30.46743    33.24222    68.40536
   255  C   4.0   -0.14    3.98    3.58    31.69160    27.66867    67.63406
   256  C   4.0   -0.14    3.98    3.58    33.93925    29.19253    68.63178
   257  C   4.0   -0.05    3.98    3.59    36.38427    27.66407    68.82751
   258  N   5.0   -0.48    3.01    1.93    36.07569    25.37961    70.32001
   259  C   4.0    0.36    3.00    3.02    37.85309    24.22569    71.67351
   260  N   5.0   -0.64    3.01    1.93    40.14546    25.21118    71.96721
   261  N   5.0   -0.65    3.02    1.93    37.34702    21.98182    72.70305
   262  H   1.0    0.28    1.00    1.43    31.88587    29.95745    63.01675
   263  H   1.0    0.14    0.99    1.43    27.86007    28.10174    66.38142
   264  H   1.0    0.11    0.99    1.43    30.77922    26.69830    69.20278
   265  H   1.0    0.12    0.99    1.43    32.31965    26.26766    66.25283
   266  H   1.0    0.12    0.99    1.43    34.31776    30.76957    67.36489
   267  H   1.0    0.13    0.99    1.43    33.46070    29.97078    70.47449
   268  H   1.0    0.10    0.99    1.43    36.99930    27.13839    66.92863
   269  H   1.0    0.10    0.99    1.43    37.79648    28.89011    69.69103
   270  H   1.0    0.23    1.00    1.43    34.44425    24.43646    70.00788
   271  H   1.0    0.25    1.00    1.43    40.54218    26.98975    71.41576
   272  H   1.0    0.27    1.00    1.43    41.38897    24.38913    73.15248
   273  H   1.0    0.26    1.00    1.43    35.67188    21.11530    72.45138
   274  H   1.0    0.27    1.00    1.43    38.63194    21.10334    73.79849
   275  N   5.0   -0.49    3.01    1.93    26.64206    32.56820    66.68084
   276  C   4.0    0.07    3.99    3.61    25.78651    35.14779    67.03409
   277  C   4.0    0.29    3.01    3.02    26.42341    36.14267    69.66326
   278  O   6.0   -0.47    1.00    1.80    27.01347    38.36635    69.97240
   279  C   4.0   -0.13    3.99    3.60    22.90975    35.33271    66.61499
   280  C   4.0   -0.03    3.03    3.02    22.25576    35.35769    63.84544
   281  C   4.0   -0.09    3.03    3.02    21.61280    33.15776    62.56440
   282  C   4.0   -0.10    3.03    3.02    22.29467    37.62105    62.51351
   283  C   4.0   -0.07    3.03    3.02    21.00940    33.21895    60.02642
   284  C   4.0   -0.10    3.02    3.02    21.69621    37.70414    59.97246
   285  C   4.0    0.11    3.03    3.02    21.04299    35.49430    58.70912
   286  O   6.0   -0.45    1.99    1.83    20.42780    35.45716    56.21588
   287  H   1.0    0.27    1.00    1.43    25.61686    31.47954    65.47156
   288  H   1.0    0.12    0.99    1.43    26.73432    36.42399    65.69164
   289  H   1.0    0.12    0.99    1.43    21.98414    33.75726    67.56617
   290  H   1.0    0.11    0.99    1.43    22.25329    37.08604    67.48147
   291  H   1.0    0.13    1.00    1.43    21.55426    31.37381    63.54950
   292  H   1.0    0.11    0.99    1.43    22.77941    39.35609    63.47551
   293  H   1.0    0.14    1.00    1.43    20.48038    31.52147    59.03928
   294  H   1.0    0.11    0.99    1.43    21.71830    39.49426    58.98672
   295  H   1.0    0.26    0.99    1.43    20.43479    37.15277    55.53846
   296  N   5.0   -0.47    3.01    1.93    26.24066    34.53816    71.60232
   297  C   4.0    0.08    4.00    3.61    26.69673    35.39730    74.16474
   298  C   4.0    0.30    3.01    3.02    29.29060    36.64601    74.45309
   299  O   6.0   -0.47    1.00    1.80    29.57117    38.43596    75.90605
   300  C   4.0   -0.14    3.98    3.59    26.43537    33.17867    76.02849
   301  C   4.0   -0.02    3.12    3.03    28.31840    31.12870    75.58155
   302  C   4.0    0.02    3.21    3.04    27.97238    28.96928    74.20743
   303  C   4.0    0.03    3.18    3.03    30.83523    31.01781    76.56688
   304  N   5.0   -0.48    3.10    1.94    30.12295    27.53819    74.23577
   305  C   4.0    0.12    3.22    3.04    31.89370    28.72039    75.69799
   306  C   4.0   -0.10    3.02    3.02    32.26072    32.59052    78.13415
   307  C   4.0   -0.10    3.02    3.02    34.34104    28.00012    76.32647
   308  C   4.0   -0.12    3.03    3.02    34.68421    31.86747    78.74955
   309  C   4.0   -0.11    3.03    3.02    35.71380    29.60287    77.85278
   310  H   1.0    0.24    1.00    1.43    25.72845    32.71758    71.34288
   311  H   1.0    0.13    0.99    1.43    25.30695    36.86065    74.65461
   312  H   1.0    0.11    0.99    1.43    26.67037    33.93468    77.93379
   313  H   1.0    0.11    0.99    1.43    24.51888    32.43164    75.86371
   314  H   1.0    0.11    1.00    1.43    26.31357    28.32666    73.23219
   315  H   1.0    0.23    1.00    1.43    30.21415    25.73000    73.65558
   316  H   1.0    0.13    0.99    1.43    31.47342    34.33304    78.85596
   317  H   1.0    0.14    1.00    1.43    35.11237    26.22629    75.69447
   318  H   1.0    0.11    0.99    1.43    35.80904    33.05997    79.96636
   319  H   1.0    0.11    1.00    1.43    37.61408    29.10928    78.40166
   320  N   5.0   -0.47    3.01    1.93    31.19095    35.59963    73.16578
   321  C   4.0    0.07    3.99    3.61    33.74492    36.58633    73.32821
   322  C   4.0    0.29    3.01    3.02    33.94815    39.16278    72.03143
   323  O   6.0   -0.47    1.00    1.80    35.19374    40.89070    72.93692
   324  C   4.0   -0.22    3.98    3.59    35.60731    34.71410    72.18556
   325  H   1.0    0.30    1.00    1.43    30.84456    34.31517    71.77834
   326  H   1.0    0.12    0.99    1.43    34.18322    36.90566    75.32647
   327  H   1.0    0.09    0.99    1.43    37.49304    35.52497    72.22321
   328  H   1.0    0.11    0.99    1.43    35.58912    32.98523    73.29398
   329  H   1.0    0.12    0.99    1.43    35.07927    34.33135    70.24120
   330  N   5.0   -0.48    3.01    1.93    32.69798    39.37324    69.83986
   331  C   4.0    0.07    4.00    3.61    32.36137    41.83047    68.65857
   332  C   4.0    0.30    3.01    3.02    31.40430    43.67910    70.67378
   333  O   6.0   -0.47    1.00    1.80    32.45847    45.69634    71.10946
   334  C   4.0   -0.14    3.99    3.60    30.50698    41.62707    66.45162
   335  C   4.0   -0.10    3.98    3.58    29.53098    44.19172    65.52509
   336  C   4.0   -0.23    3.98    3.59    31.65009    45.76534    64.36878
   337  C   4.0   -0.23    3.98    3.59    27.40985    43.78885    63.61056
   338  H   1.0    0.28    1.00    1.43    31.59206    37.93778    69.23343
   339  H   1.0    0.12    0.99    1.43    34.20424    42.53733    68.02870
   340  H   1.0    0.11    0.99    1.43    31.43478    40.65522    64.88770
   341  H   1.0    0.14    0.99    1.43    28.88970    40.51431    67.08143
   342  H   1.0    0.12    0.99    1.43    28.76164    45.23792    67.13867
   343  H   1.0    0.10    0.99    1.43    30.90391    47.53424    63.63414
   344  H   1.0    0.11    0.99    1.43    33.07625    46.24339    65.77011
   345  H   1.0    0.11    0.99    1.43    32.56070    44.75633    62.82745
   346  H   1.0    0.10    0.99    1.43    26.70481    45.60111    62.95043
   347  H   1.0    0.11    0.99    1.43    28.10211    42.73486    61.99003
   348  H   1.0    0.10    0.99    1.43    25.85306    42.76592    64.47639
   349  N   5.0   -0.47    3.00    1.93    29.37356    42.86558    71.93832
   350  C   4.0    0.02    3.99    3.61    28.25253    44.32514    73.95907
   351  C   4.0    0.31    3.01    3.02    30.25587    45.13942    75.87414
   352  O   6.0   -0.44    1.00    1.80    30.49484    47.34948    76.53993
   353  H   1.0    0.30    1.00    1.43    28.49111    41.25257    71.38771
   354  H   1.0    0.12    0.99    1.43    27.34750    46.03864    73.22883
   355  H   1.0    0.12    0.99    1.43    26.85948    43.14787    74.91748
   356  N   5.0   -0.46    3.01    1.93    31.66460    43.25815    76.76885
   357  C   4.0    0.08    3.99    3.61    33.64410    43.67275    78.62422
   358  C   4.0    0.31    3.01    3.02    35.31597    45.86217    77.77398
   359  O   6.0   -0.48    1.00    1.80    35.84148    47.60733    79.22940
   360  C   4.0   -0.14    3.99    3.60    35.11742    41.20607    78.98522
   361  C   4.0   -0.10    3.97    3.58    37.08291    41.26703    81.12052
   362  C   4.0   -0.23    3.98    3.59    37.45428    38.60553    82.18077
   363  C   4.0   -0.21    3.98    3.59    39.61841    42.29529    80.20492
   364  H   1.0    0.30    1.00    1.43    31.19444    41.43580    76.34544
   365  H   1.0    0.13    0.99    1.43    32.79589    44.26363    80.42865
   366  H   1.0    0.11    0.99    1.43    33.70764    39.76011    79.41378
   367  H   1.0    0.13    0.99    1.43    36.03913    40.72868    77.20519
   368  H   1.0    0.12    0.99    1.43    36.38032    42.49309    82.63253
   369  H   1.0    0.11    0.99    1.43    38.82557    38.64098    83.70799
   370  H   1.0    0.10    0.99    1.43    35.68570    37.85644    82.91239
   371  H   1.0    0.10    0.99    1.43    38.17236    37.36862    80.70761
   372  H   1.0    0.11    0.99    1.43    40.94678    42.41732    81.76624
   373  H   1.0    0.10    0.99    1.43    40.42216    41.05630    78.77757
   374  H   1.0    0.13    0.99    1.43    39.42446    44.17566    79.40640
   375  N   5.0   -0.48    3.01    1.93    36.21092    45.70404    75.43457
   376  C   4.0    0.08    4.00    3.62    37.88898    47.59259    74.37850
   377  C   4.0    0.30    3.01    3.02    36.65593    50.20729    74.38810
   378  O   6.0   -0.45    1.00    1.80    37.71936    52.03297    75.36270
   379  C   4.0   -0.09    3.98    3.59    38.70248    46.82623    71.70322
   380  C   4.0   -0.21    3.98    3.59    40.12322    48.97723    70.40744
   381  C   4.0   -0.23    3.98    3.59    40.35252    44.46399    71.82797
   382  H   1.0    0.30    1.00    1.43    35.67106    44.24968    74.30446
   383  H   1.0    0.12    0.99    1.43    39.56816    47.74965    75.59630
   384  H   1.0    0.14    0.99    1.43    36.98420    46.42084    70.62483
   385  H   1.0    0.11    0.99    1.43    40.88511    48.34641    68.60537
   386  H   1.0    0.15    0.99    1.43    38.91000    50.59773    70.03042
   387  H   1.0    0.12    0.99    1.43    41.68820    49.62955    71.57193
   388  H   1.0    0.10    0.99    1.43    40.96573    43.95815    69.93631
   389  H   1.0    0.10    0.99    1.43    42.01471    44.83164    72.97906
   390  H   1.0    0.13    0.99    1.43    39.30729    42.89059    72.62870
   391  N   5.0   -0.47    3.01    1.93    34.36836    50.33848    73.35629
   392  C   4.0    0.08    4.01    3.63    33.12392    52.76553    73.07193
   393  C   4.0    0.30    3.01    3.02    32.84763    53.95284    75.68972
   394  O   6.0   -0.46    1.00    1.80    33.46977    56.12725    76.19310
   395  C   4.0   -0.09    3.98    3.59    30.54594    52.46837    71.77920
   396  C   4.0   -0.23    3.98    3.59    29.17717    55.00615    71.72156
   397  C   4.0   -0.22    3.98    3.59    30.89761    51.45921    69.09853
   398  H   1.0    0.29    1.00    1.43    33.59823    48.79767    72.52104
   399  H   1.0    0.14    0.99    1.43    34.33743    54.01013    71.93060
   400  H   1.0    0.13    0.99    1.43    29.43491    51.11731    72.88974
   401  H   1.0    0.10    0.99    1.43    27.34817    54.81038    70.81084
   402  H   1.0    0.11    0.99    1.43    28.89944    55.74066    73.61841
   403  H   1.0    0.10    0.99    1.43    30.29733    56.37250    70.66748
   404  H   1.0    0.10    0.99    1.43    29.13541    51.59439    68.05309
   405  H   1.0    0.12    0.99    1.43    32.33981    52.55378    68.11956
   406  H   1.0    0.13    0.99    1.43    31.50254    49.49954    69.12257
   407  N   5.0   -0.48    3.01    1.93    31.80074    52.40061    77.38874
   408  C   4.0    0.02    4.00    3.61    31.44990    53.14493    79.99086
   409  C   4.0    0.30    3.01    3.02    33.89705    54.16159    81.12388
   410  O   6.0   -0.45    1.00    1.80    33.96631    56.16731    82.28095
   411  H   1.0    0.31    1.00    1.43    31.39965    50.59006    76.90440
   412  H   1.0    0.12    0.99    1.43    30.02291    54.63634    80.13496
   413  H   1.0    0.12    0.99    1.43    30.82824    51.49790    81.05836
   414  N   5.0   -0.47    3.01    1.93    35.89455    52.66008    80.82020
   415  C   4.0    0.08    3.99    3.61    38.36543    53.37816    81.73360
   416  C   4.0    0.29    3.02    3.02    39.06940    56.02659    80.83757
   417  O   6.0   -0.48    1.00    1.80    40.07206    57.54279    82.28186
   418  C   4.0   -0.02    3.98    3.59    40.40323    51.52874    80.80481
   419  O   6.0   -0.51    1.99    1.82    40.18429    49.11258    81.84660
   420  H   1.0    0.31    1.00    1.43    35.73470    51.01801    79.83715
   421  H   1.0    0.12    0.99    1.43    38.34571    53.39580    83.81064
   422  H   1.0    0.14    0.99    1.43    40.31645    51.48440    78.73152
   423  H   1.0    0.10    0.99    1.43    42.24364    52.25665    81.40448
   424  H   1.0    0.31    0.99    1.43    38.61627    48.36008    81.24310
   425  N   5.0   -0.47    3.01    1.93    38.60631    56.51446    78.41938
   426  C   4.0    0.09    4.00    3.62    39.25368    58.94388    77.32566
   427  C   4.0    0.31    3.02    3.02    37.94684    61.00424    78.86751
   428  O   6.0   -0.43    1.00    1.80    39.12204    62.63435    80.03021
   429  C   4.0   -0.12    3.98    3.59    38.55766    59.01446    74.51934
   430  C   4.0    0.10    3.34    3.06    40.07596    60.94403    73.13244
   431  N   5.0   -0.39    2.10    1.90    40.32815    63.37296    73.96509
   432  C   4.0    0.04    3.24    3.04    41.47727    60.62742    70.97550
   433  C   4.0    0.18    3.43    3.09    41.85102    64.46720    72.35044
   434  N   5.0   -0.46    3.13    1.94    42.58836    62.89788    70.49001
   435  H   1.0    0.31    1.00    1.43    37.88985    55.16986    77.25774
   436  H   1.0    0.13    0.99    1.43    41.29624    59.24999    77.51199
   437  H   1.0    0.13    0.99    1.43    38.95536    57.16839    73.68241
   438  H   1.0    0.12    0.99    1.43    36.53691    59.37148    74.29640
   439  H   1.0    0.13    1.00    1.43    41.68816    59.01803    69.76365
   440  H   1.0    0.12    1.00    1.43    42.46265    66.39291    72.46631
   441  H   1.0    0.29    1.00    1.43    43.93108    63.26742    69.14003
   442  N   5.0   -0.48    3.01    1.93    35.43441    60.83401    78.95852
   443  C   4.0    0.07    4.00    3.62    33.99555    62.67809    80.38283
   444  C   4.0    0.31    3.01    3.02    35.13418    62.99946    83.02413
   445  O   6.0   -0.46    1.00    1.80    35.48914    65.11572    83.91585
   446  C   4.0   -0.14    3.99    3.60    31.19914    61.98922    80.65453
   447  C   4.0   -0.11    3.98    3.58    29.53542    62.78978    78.40922
   448  C   4.0   -0.22    3.98    3.59    29.46786    60.77862    76.34670
   449  C   4.0   -0.23    3.98    3.59    26.84694    63.33603    79.31422
   450  H   1.0    0.28    1.00    1.43    34.53790    59.36823    78.11589
   451  H   1.0    0.11    0.99    1.43    34.18728    64.52926    79.45745
   452  H   1.0    0.13    0.99    1.43    31.05875    59.95736    80.97349
   453  H   1.0    0.11    0.99    1.43    30.50968    62.94265    82.35076
   454  H   1.0    0.10    0.99    1.43    30.31419    64.52746    77.60270
   455  H   1.0    0.09    0.99    1.43    28.33596    61.42874    74.76112
   456  H   1.0    0.12    0.99    1.43    31.34589    60.33026    75.64883
   457  H   1.0    0.11    0.99    1.43    28.63364    59.04618    77.07500
   458  H   1.0    0.10    0.99    1.43    25.67579    63.91307    77.72907
   459  H   1.0    0.11    0.99    1.43    26.02638    61.65314    80.15879
   460  H   1.0    0.10    0.99    1.43    26.84403    64.83707    80.71597
   461  N   5.0   -0.47    3.01    1.93    35.53841    60.86816    84.28770
   462  C   4.0    0.07    3.99    3.61    36.47120    60.83797    86.86388
   463  C   4.0    0.30    3.02    3.02    38.83905    62.45684    87.13305
   464  O   6.0   -0.47    1.00    1.80    39.07153    63.95811    88.88349
   465  C   4.0   -0.14    3.99    3.60    37.03339    58.11219    87.64929
   466  C   4.0   -0.10    3.98    3.58    38.31475    57.85292    90.23587
   467  C   4.0   -0.22    3.98    3.59    36.67688    58.90890    92.36311
   468  C   4.0   -0.23    3.98    3.59    38.92018    55.07000    90.70927
   469  H   1.0    0.31    1.00    1.43    35.16903    59.17807    83.45902
   470  H   1.0    0.12    0.99    1.43    35.03997    61.67845    88.10939
   471  H   1.0    0.12    0.99    1.43    35.25821    57.06096    87.63969
   472  H   1.0    0.14    0.99    1.43    38.26594    57.30391    86.20744
   473  H   1.0    0.12    0.99    1.43    40.08719    58.92024    90.19270
   474  H   1.0    0.10    0.99    1.43    37.53827    58.50914    94.18453
   475  H   1.0    0.12    0.99    1.43    36.48298    60.94580    92.18530
   476  H   1.0    0.11    0.99    1.43    34.80850    58.05657    92.32342
   477  H   1.0    0.10    0.99    1.43    39.90672    54.84814    92.49524
   478  H   1.0    0.11    0.99    1.43    37.18691    53.96877    90.77974
   479  H   1.0    0.10    0.99    1.43    40.11126    54.32689    89.20890
   480  N   5.0   -0.48    3.01    1.93    40.66004    62.04771    85.43943
   481  C   4.0    0.08    4.00    3.62    43.02022    63.40511    85.66345
   482  C   4.0    0.31    3.01    3.02    42.56865    66.25595    85.60247
   483  O   6.0   -0.48    1.00    1.80    43.64022    67.66682    87.09981
   484  C   4.0    0.03    3.98    3.58    44.97928    62.59571    83.66128
   485  O   6.0   -0.48    1.99    1.82    44.30046    63.28572    81.19451
   486  C   4.0   -0.22    3.98    3.59    45.56139    59.77123    83.91058
   487  H   1.0    0.30    1.00    1.43    40.38980    60.81414    84.00111
   488  H   1.0    0.10    0.99    1.43    43.82227    63.01332    87.54078
   489  H   1.0    0.11    0.99    1.43    46.70818    63.67794    84.04986
   490  H   1.0    0.31    0.99    1.43    42.57985    62.75606    80.80105
   491  H   1.0    0.10    0.99    1.43    47.03657    59.26660    82.57384
   492  H   1.0    0.08    0.99    1.43    46.19584    59.34625    85.81555
   493  H   1.0    0.14    0.99    1.43    43.89049    58.65643    83.48994
   494  N   5.0   -0.45    3.01    1.93    40.94091    67.08244    83.86799
   495  C   4.0    0.10    4.00    3.62    40.26450    69.73562    83.79635
   496  C   4.0    0.29    3.01    3.02    39.08872    70.47712    86.33720
   497  O   6.0   -0.42    1.00    1.80    39.81875    72.33207    87.52883
   498  C   4.0   -0.02    3.98    3.58    38.50580    70.27954    81.57726
   499  O   6.0   -0.47    1.99    1.83    40.00631    70.34547    79.38289
   500  H   1.0    0.30    1.00    1.43    40.22488    65.91882    82.52928
   501  H   1.0    0.14    0.99    1.43    41.97789    70.87773    83.53768
   502  H   1.0    0.13    0.99    1.43    37.06625    68.78999    81.47364
   503  H   1.0    0.11    0.99    1.43    37.57507    72.10380    81.90847
   504  H   1.0    0.25    0.99    1.43    38.96117    70.69006    77.92939
   505  N   5.0   -0.47    3.00    1.93    37.29148    68.93656    87.16524
   506  C   4.0    0.03    4.00    3.61    36.10425    69.29874    89.60180
   507  C   4.0    0.31    3.01    3.02    38.04209    69.93026    91.65329
   508  O   6.0   -0.36    1.00    1.80    37.75748    71.68961    93.12710
   509  H   1.0    0.31    1.00    1.43    36.69915    67.46938    86.07448
   510  H   1.0    0.13    0.99    1.43    34.75041    70.85947    89.51420
   511  H   1.0    0.12    0.99    1.43    35.14050    67.55259    90.11931
   512  N   5.0   -0.47    3.01    1.93    40.01973    68.37013    91.73519
   513  C   4.0    0.08    4.00    3.61    41.97527    68.65791    93.62881
   514  C   4.0    0.29    3.01    3.02    43.19268    71.26921    93.39809
   515  O   6.0   -0.36    1.00    1.80    43.43839    72.66071    95.24041
   516  C   4.0   -0.14    3.99    3.60    43.91514    66.53475    93.36990
   517  C   4.0   -0.10    3.98    3.58    42.86270    63.94223    94.14574
   518  C   4.0   -0.24    3.98    3.59    44.69366    61.86113    93.34105
   519  C   4.0   -0.22    3.98    3.59    42.39205    63.79583    96.98955
   520  H   1.0    0.30    1.00    1.43    40.09956    66.84031    90.58146
   521  H   1.0    0.14    0.99    1.43    41.10872    68.61947    95.51432
   522  H   1.0    0.13    0.99    1.43    44.52399    66.47361    91.40021
   523  H   1.0    0.10    0.99    1.43    45.55848    66.98085    94.53571
   524  H   1.0    0.13    0.99    1.43    41.07177    63.63406    93.15862
   525  H   1.0    0.09    0.99    1.43    43.95736    60.01634    93.86194
   526  H   1.0    0.09    0.99    1.43    44.99249    61.89055    91.30848
   527  H   1.0    0.09    0.99    1.43    46.51505    62.11574    94.25667
   528  H   1.0    0.10    0.99    1.43    41.91114    61.87508    97.53463
   529  H   1.0    0.11    0.99    1.43    44.06382    64.37676    98.03773
   530  H   1.0    0.11    0.99    1.43    40.83642    65.01337    97.55093
   531  N   5.0   -0.47    3.00    1.93    43.91080    71.95441    91.07136
   532  C   4.0    0.09    3.99    3.60    45.13887    74.37330    90.69660
   533  C   4.0    0.14    3.00    3.02    43.54765    76.50968    91.81255
   534  O   6.0   -0.35    1.00    1.80    44.54338    78.41367    92.71042
   535  C   4.0    0.04    3.98    3.59    45.61847    75.09848    87.88741
   536  O   6.0   -0.45    1.99    1.82    43.41731    75.95400    86.68776
   537  C   4.0   -0.21    3.98    3.58    46.92378    73.00587    86.39125
   538  H   1.0    0.29    1.00    1.43    43.74043    70.72454    89.61444
   539  H   1.0    0.13    0.99    1.43    46.95760    74.35476    91.70082
   540  H   1.0    0.14    0.99    1.43    46.86629    76.75648    87.93882
   541  H   1.0    0.32    0.99    1.43    42.13886    74.61941    86.74461
   542  H   1.0    0.12    0.99    1.43    47.24343    73.67386    84.47462
   543  H   1.0    0.09    0.99    1.43    48.72091    72.52548    87.25086
   544  H   1.0    0.14    0.99    1.43    45.77104    71.31087    86.30544
   545  N   5.0   -0.72    3.00    1.93    52.12774    61.38292    94.32365
   546  C   4.0    0.06    3.98    3.59    52.55352    61.31224    91.61430
   547  C   4.0    0.07    3.00    3.02    54.90712    59.76117    91.02174
   548  O   6.0   -0.44    1.00    1.80    54.90036    58.21185    89.28363
   549  C   4.0   -0.09    3.98    3.59    52.75592    63.97959    90.47732
   550  C   4.0   -0.17    3.98    3.59    50.10224    65.12250    90.31934
   551  C   4.0   -0.22    3.98    3.59    54.01451    63.87184    87.88007
   552  C   4.0   -0.23    3.98    3.58    50.07931    67.92810    89.69461
   553  H   1.0    0.26    1.00    1.43    52.17916    63.07774    95.20070
   554  H   1.0    0.10    0.99    1.43    50.96968    60.30216    90.73060
   555  H   1.0    0.12    0.99    1.43    53.92030    65.11626    91.75296
   556  H   1.0    0.10    0.99    1.43    49.03428    64.09354    88.88522
   557  H   1.0    0.10    0.99    1.43    49.17413    64.87845    92.13967
   558  H   1.0    0.10    0.99    1.43    54.01665    65.72290    86.99845
   559  H   1.0    0.12    0.99    1.43    55.96758    63.25164    88.01956
   560  H   1.0    0.11    0.99    1.43    53.02295    62.55973    86.64820
   561  H   1.0    0.11    0.99    1.43    48.13795    68.54800    89.46149
   562  H   1.0    0.11    0.99    1.43    50.91821    68.99561    91.23549
   563  H   1.0    0.10    0.99    1.43    51.10538    68.31709    87.96119
   564  N   5.0   -0.69    3.00    1.93    53.61834    52.92997    91.65275
   565  C   4.0    0.08    3.98    3.59    52.11165    52.07280    89.53377
   566  C   4.0    0.09    3.00    3.02    53.80637    51.70651    87.22548
   567  O   6.0   -0.49    1.00    1.80    53.60038    49.85086    85.84806
   568  C   4.0   -0.09    3.98    3.58    49.96035    53.93562    88.93973
   569  C   4.0   -0.23    3.98    3.59    48.56307    53.10864    86.55337
   570  C   4.0   -0.23    3.98    3.59    48.10656    54.09596    91.14546
   571  H   1.0    0.27    1.00    1.43    53.15928    54.60213    92.47287
   572  H   1.0    0.12    0.99    1.43    51.31810    50.20708    89.98136
   573  H   1.0    0.13    0.99    1.43    50.82517    55.78748    88.61802
   574  H   1.0    0.09    0.99    1.43    47.08525    54.45834    86.10009
   575  H   1.0    0.11    0.99    1.43    49.84471    52.97596    84.95434
   576  H   1.0    0.10    0.99    1.43    47.69825    51.26561    86.83236
   577  H   1.0    0.09    0.99    1.43    46.56288    55.35760    90.65493
   578  H   1.0    0.10    0.99    1.43    47.32147    52.24201    91.54969
   579  H   1.0    0.10    0.99    1.43    49.02181    54.81245    92.83425
   580  N   5.0   -0.71    3.00    1.93    54.14167    45.23072    83.34266
   581  C   4.0    0.07    3.98    3.58    53.45767    45.10681    80.69369
   582  C   4.0    0.08    3.00    3.02    55.64745    43.98725    79.17469
   583  O   6.0   -0.41    1.00    1.80    55.32992    42.32780    77.59208
   584  C   4.0   -0.14    4.00    3.62    52.73696    47.73654    79.72566
   585  C   4.0   -0.14    3.98    3.58    50.78618    47.63028    77.61677
   586  S   6.0   -0.17    2.01    3.10    47.78137    46.20001    78.56426
   587  C   4.0   -0.21    3.98    3.58    46.99310    48.10331    81.32336
   588  H   1.0    0.33    1.00    1.43    54.14233    46.95850    84.17856
   589  H   1.0    0.12    0.99    1.43    51.85139    43.80748    80.47623
   590  H   1.0    0.12    0.99    1.43    51.99504    48.83349    81.30772
   591  H   1.0    0.11    0.99    1.43    54.42897    48.69056    79.03164
   592  H   1.0    0.11    0.99    1.43    50.39107    49.52057    76.90117
   593  H   1.0    0.12    0.99    1.43    51.43872    46.44585    76.06373
   594  H   1.0    0.12    0.99    1.43    44.98285    47.85762    81.65966
   595  H   1.0    0.11    0.99    1.43    48.04363    47.43037    82.95243
   596  H   1.0    0.10    0.99    1.43    47.42443    50.07374    80.95126
   597  N   5.0   -0.68    3.00    1.93    55.89456    37.01962    80.35971
   598  C   4.0    0.08    3.98    3.58    53.79843    35.72196    79.15659
   599  C   4.0    0.10    3.00    3.02    54.38211    35.39207    76.34083
   600  O   6.0   -0.38    1.00    1.80    54.17413    33.34600    75.26450
   601  C   4.0   -0.13    3.98    3.59    51.31288    37.15724    79.61998
   602  C   4.0   -0.03    3.12    3.03    49.09046    35.44015    79.96517
   603  C   4.0    0.02    3.22    3.04    48.96817    33.38576    81.52665
   604  C   4.0    0.02    3.18    3.03    46.64944    35.67190    78.82634
   605  N   5.0   -0.47    3.10    1.94    46.61842    32.32288    81.43265
   606  C   4.0    0.12    3.22    3.04    45.15757    33.66831    79.79338
   607  C   4.0   -0.12    3.02    3.02    45.55828    37.36230    77.12105
   608  C   4.0   -0.10    3.02    3.02    42.65159    33.32715    79.08662
   609  C   4.0   -0.12    3.03    3.02    43.07316    37.01647    76.43319
   610  C   4.0   -0.12    3.03    3.02    41.63291    35.02132    77.39475
   611  H   1.0    0.28    1.00    1.43    55.52753    38.62374    81.35019
   612  H   1.0    0.13    0.99    1.43    53.67439    33.80422    79.93558
   613  H   1.0    0.11    0.99    1.43    51.56336    38.27958    81.34027
   614  H   1.0    0.12    0.99    1.43    50.95719    38.45383    78.05855
   615  H   1.0    0.12    1.00    1.43    50.39508    32.60421    82.73810
   616  H   1.0    0.24    1.00    1.43    46.08367    30.75315    82.35879
   617  H   1.0    0.11    1.00    1.43    46.64756    38.90906    76.35965
   618  H   1.0    0.11    1.00    1.43    41.54876    31.78588    79.84171
   619  H   1.0    0.10    1.00    1.43    42.20011    38.29932    75.10952
   620  H   1.0    0.10    1.00    1.43    39.69669    34.80092    76.78717
   621  H   1.0    0.29    1.00    1.43    31.06911    75.23793    77.23680
   622  H   1.0    0.14    1.00    1.43    26.57536    73.52890    72.91448
   623  H   1.0    0.29    1.00    1.43    34.24945    71.95072    69.13352
   624  H   1.0    0.15    1.00    1.43    29.03831    66.75865    63.78085
   625  H   1.0    0.30    1.00    1.43    33.55716    68.22686    60.51976
   626  H   1.0    0.16    1.00    1.43    31.47006    59.57752    59.47283
   627  H   1.0    0.29    1.00    1.43    57.37650    64.83080    79.58132
   628  H   1.0    0.15    1.00    1.43    58.62110    64.80002    73.34596
   629  H   1.0    0.30    1.00    1.43    58.36099    56.28933    75.70599
   630  H   1.0    0.15    1.00    1.43    56.29099    55.19119    67.12101
   631  H   1.0    0.30    1.00    1.43    51.90798    48.21122    70.70290
   632  H   1.0    0.16    1.00    1.43    49.90289    49.00702    64.79131
   633  H   1.0    0.30    1.00    1.43    51.04807    40.37476    65.06415
   634  H   1.0    0.14    1.00    1.43    43.78849    41.08397    58.99566
   635  H   1.0    0.29    1.00    1.43    42.47242    32.77160    62.44721
   636  H   1.0    0.16    1.00    1.43    36.97027    35.24635    59.96958
   637  H   1.0    0.30    1.00    1.43    37.71774    27.27950    56.49053
   638  H   1.0    0.18    1.00    1.43    41.66257    76.37754    91.82298
   639  H   1.0    0.28    1.00    1.43    50.58599    60.75540    94.67261
   640  H   1.0    0.14    1.00    1.43    56.47656    59.99607    92.04777
   641  H   1.0    0.30    1.00    1.43    53.53283    51.78708    92.90936
   642  H   1.0    0.15    1.00    1.43    55.12274    52.99569    86.80565
   643  H   1.0    0.30    1.00    1.43    53.05518    44.29187    84.25407
   644  H   1.0    0.15    1.00    1.43    57.40939    44.60849    79.45875
   645  H   1.0    0.30    1.00    1.43    56.64024    35.97802    81.47846
   646  H   1.0    0.16    1.00    1.43    54.95416    36.87224    75.31472

           ------------------------------------------------- 
          |        Self-Consistent Charge Iterations        |
           ------------------------------------------------- 

          ...................................................
          :                      SETUP                      :
          :.................................................:
          :  # basis functions                1564          :
          :  # atomic orbitals                1563          :
          :  # shells                          951          :
          :  # electrons                      1702          :
          :  max. iterations                   250          :
          :  Hamiltonian                  GFN2-xTB          :
          :  restarted?                      false          :
          :  GBSA solvation                   true          :
          :  PC potential                    false          :
          :  electronic temp.          500.0000000     K    :
          :  accuracy                    0.1000000          :
          :  -> integral cutoff          0.3500000E+02      :
          :  -> integral neglect         0.1000000E-08      :
          :  -> SCF convergence          0.1000000E-06 Eh   :
          :  -> wf. convergence          0.1000000E-04 e    :
          :  Broyden damping             0.4000000          :
          ...................................................

 iter      E             dE          RMSdq      gap      omega  full diag
   1   -965.3975573 -0.965398E+03  0.401E+00    1.30       0.0  T
   2   -967.5017838 -0.210423E+01  0.215E+00    1.37       1.0  T
   3   -967.5883208 -0.865370E-01  0.114E+00    1.93       1.0  T
   4   -967.6306404 -0.423196E-01  0.330E-01    1.13       1.0  T
   5   -967.6760007 -0.453604E-01  0.130E-01    1.26       1.0  T
   6   -967.6784738 -0.247312E-02  0.723E-02    1.38       1.0  T
   7   -967.6794505 -0.976684E-03  0.327E-02    1.37       1.0  T
   8   -967.6795541 -0.103613E-03  0.140E-02    1.35       1.0  T
   9   -967.6795824 -0.282535E-04  0.743E-03    1.34       1.0  T
  10   -967.6795924 -0.100594E-04  0.370E-03    1.33       1.1  T
  11   -967.6795943 -0.190543E-05  0.164E-03    1.33       2.4  T
  12   -967.6795949 -0.506169E-06  0.700E-04    1.33       5.6  T
  13   -967.6795949 -0.728709E-07  0.373E-04    1.33      10.5  T
  14   -967.6795950 -0.259565E-07  0.159E-04    1.33      24.8  T
  15   -967.6795950 -0.318903E-08  0.736E-05    1.33      53.4  T
  16   -967.6795950 -0.101284E-08  0.332E-05    1.33     118.4  T

   *** convergence criteria satisfied after 16 iterations ***

         #    Occupation            Energy/Eh            Energy/eV
      -------------------------------------------------------------
         1        2.0000           -0.7384663             -20.0947
       ...           ...                  ...                  ...
       845        2.0000           -0.3625040              -9.8642
       846        2.0000           -0.3615432              -9.8381
       847        2.0000           -0.3601243              -9.7995
       848        2.0000           -0.3594030              -9.7799
       849        2.0000           -0.3559344              -9.6855
       850        2.0000           -0.3533039              -9.6139
       851        2.0000           -0.3500109              -9.5243 (HOMO)
       852        0.0000           -0.3011100              -8.1936 (LUMO)
       853                         -0.2946853              -8.0188
       854                         -0.2926267              -7.9628
       855                         -0.2903675              -7.9013
       856                         -0.2897640              -7.8849
       ...                                ...                  ...
      1563                          0.7259750              19.7548
      -------------------------------------------------------------
                  HL-Gap            0.0489009 Eh            1.3307 eV
             Fermi-level           -0.3254659 Eh           -8.8564 eV

 SCC (total)                   0 d,  0 h,  0 min, 51.989 sec
 SCC setup                      ...        0 min,  0.391 sec (  0.752%)
 Dispersion                     ...        0 min,  0.338 sec (  0.650%)
 integral evaluation            ...        0 min,  1.273 sec (  2.448%)
 zeroth order Hamiltonian       ...        0 min,  0.012 sec (  0.024%)
 iterations                     ...        0 min, 42.162 sec ( 81.099%)
 molecular gradient             ...        0 min,  7.477 sec ( 14.382%)
 printout                       ...        0 min,  0.336 sec (  0.646%)

         :::::::::::::::::::::::::::::::::::::::::::::::::::::
         ::                     SUMMARY                     ::
         :::::::::::::::::::::::::::::::::::::::::::::::::::::
         :: total energy             -955.114307456074 Eh   ::
         :: total w/o Gsasa/hb       -955.008871715049 Eh   ::
         :: gradient norm               0.795381335718 Eh/α ::
         :: HOMO-LUMO gap               1.330661749662 eV   ::
         ::.................................................::
         :: SCC energy               -967.717391615285 Eh   ::
         :: -> isotropic ES             2.511714762513 Eh   ::
         :: -> anisotropic ES          -0.091841548456 Eh   ::
         :: -> anisotropic XC           0.379963739985 Eh   ::
         :: -> dispersion              -0.879191654257 Eh   ::
         :: -> Gsolv                   -0.752681963463 Eh   ::
         ::    -> Gborn                -0.647246222438 Eh   ::
         ::    -> Gsasa                -0.039654101329 Eh   ::
         ::    -> Ghb                  -0.067639082823 Eh   ::
         ::    -> Gshift                0.001857443127 Eh   ::
         :: repulsion energy           12.514501819240 Eh   ::
         :: add. restraining            0.000000000000 Eh   ::
         :::::::::::::::::::::::::::::::::::::::::::::::::::::

           -------------------------------------------------
          |                Property Printout                |
           -------------------------------------------------

    * Orbital Energies and Occupations

         #    Occupation            Energy/Eh            Energy/eV
      -------------------------------------------------------------
         1        2.0000           -0.7384663             -20.0947
       ...           ...                  ...                  ...
       839        2.0000           -0.3687849             -10.0351
       840        2.0000           -0.3685014             -10.0274
       841        2.0000           -0.3679138             -10.0114
       842        2.0000           -0.3672359              -9.9930
       843        2.0000           -0.3650119              -9.9325
       844        2.0000           -0.3631903              -9.8829
       845        2.0000           -0.3625040              -9.8642
       846        2.0000           -0.3615432              -9.8381
       847        2.0000           -0.3601243              -9.7995
       848        2.0000           -0.3594030              -9.7799
       849        2.0000           -0.3559344              -9.6855
       850        2.0000           -0.3533039              -9.6139
       851        2.0000           -0.3500109              -9.5243 (HOMO)
       852        0.0000           -0.3011100              -8.1936 (LUMO)
       853                         -0.2946853              -8.0188
       854                         -0.2926267              -7.9628
       855                         -0.2903675              -7.9013
       856                         -0.2897640              -7.8849
       857                         -0.2892394              -7.8706
       858                         -0.2840414              -7.7292
       859                         -0.2834433              -7.7129
       860                         -0.2824694              -7.6864
       861                         -0.2818243              -7.6688
       862                         -0.2811513              -7.6505
       ...                                ...                  ...
      1563                          0.7259750              19.7548
      -------------------------------------------------------------
                  HL-Gap            0.0489009 Eh            1.3307 eV
             Fermi-level           -0.3254659 Eh           -8.8564 eV

   #   Z        covCN         q      C6AA      α(0)
   1   7 N      2.636    -0.392    30.146     8.154
   2   6 C      3.781     0.044    19.859     6.348
   3   6 C      2.765     0.195    23.838     7.996
   4   8 O      0.856    -0.366    21.008     6.145
   5   6 C      3.757    -0.124    22.939     6.829
   6   1 H      0.860     0.172     1.264     1.761
   7   1 H      0.923     0.044     2.395     2.420
   8   1 H      0.925     0.057     2.232     2.337
   9   1 H      0.925     0.065     2.144     2.290
  10   1 H      0.925     0.065     2.142     2.289
  11   7 N      2.635    -0.386    29.974     8.131
  12   6 C      3.792     0.029    20.099     6.384
  13   6 C      2.761     0.271    22.423     7.755
  14   8 O      0.858    -0.509    23.996     6.568
  15   6 C      3.854    -0.023    20.955     6.511
  16   6 C      3.758    -0.102    22.500     6.763
  17   6 C      3.756    -0.116    22.778     6.805
  18   1 H      0.860     0.164     1.311     1.793
  19   1 H      0.923     0.026     2.651     2.546
  20   1 H      0.924     0.060     2.197     2.318
  21   1 H      0.925     0.041     2.435     2.440
  22   1 H      0.925     0.025     2.661     2.551
  23   1 H      0.925     0.025     2.655     2.548
  24   1 H      0.925     0.041     2.438     2.442
  25   1 H      0.925     0.043     2.404     2.425
  26   1 H      0.925     0.050     2.321     2.382
  27   7 N      2.692    -0.175    24.789     7.395
  28   6 C      3.796     0.032    20.039     6.374
  29   6 C      2.768     0.206    23.630     7.961
  30   8 O      0.856    -0.379    21.263     6.182
  31   6 C      3.810    -0.080    22.011     6.678
  32   6 C      3.849    -0.012    20.761     6.481
  33   6 C      3.758    -0.120    22.855     6.816
  34   6 C      3.756    -0.116    22.773     6.804
  35   1 H      0.860     0.245     0.904     1.490
  36   1 H      0.924     0.065     2.138     2.286
  37   1 H      0.924     0.070     2.086     2.258
  38   1 H      0.924     0.064     2.153     2.294
  39   1 H      0.924     0.043     2.406     2.426
  40   1 H      0.925     0.051     2.312     2.378
  41   1 H      0.925     0.044     2.397     2.421
  42   1 H      0.925     0.048     2.343     2.394
  43   1 H      0.925     0.049     2.326     2.385
  44   1 H      0.925     0.047     2.352     2.398
  45   1 H      0.925     0.027     2.629     2.535
  46   7 N      2.635    -0.390    30.096     8.148
  47   6 C      3.786     0.036    19.983     6.367
  48   6 C      2.760     0.273    22.389     7.749
  49   8 O      0.858    -0.526    24.358     6.617
  50   6 C      3.810    -0.052    21.495     6.599
  51   6 C      3.805    -0.093    22.270     6.718
  52   6 C      2.746     0.289    22.100     7.698
  53   8 O      0.859    -0.499    23.757     6.535
  54   7 N      2.638    -0.281    27.250     7.753
  55   1 H      0.860     0.159     1.344     1.816
  56   1 H      0.923     0.034     2.528     2.487
  57   1 H      0.924     0.050     2.315     2.380
  58   1 H      0.924     0.030     2.583     2.513
  59   1 H      0.924     0.073     2.057     2.243
  60   1 H      0.925     0.061     2.190     2.314
  61   1 H      0.860     0.219     1.015     1.578
  62   1 H      0.860     0.226     0.983     1.553
  63   7 N      2.691    -0.171    24.707     7.382
  64   6 C      3.795     0.042    19.877     6.349
  65   6 C      2.765     0.204    23.661     7.966
  66   8 O      0.856    -0.372    21.130     6.163
  67   6 C      3.806    -0.045    21.374     6.582
  68   6 C      3.799    -0.080    22.026     6.682
  69   6 C      2.684     0.372    20.699     7.445
  70   8 O      0.856    -0.658    27.595     7.043
  71   8 O      0.856    -0.629    26.838     6.946
  72   1 H      0.860     0.232     0.955     1.531
  73   1 H      0.923     0.071     2.071     2.250
  74   1 H      0.924     0.065     2.137     2.286
  75   1 H      0.924     0.039     2.468     2.457
  76   1 H      0.924     0.017     2.786     2.610
  77   1 H      0.924     0.017     2.783     2.609
  78   7 N      2.636    -0.384    29.925     8.124
  79   6 C      3.784     0.039    19.940     6.361
  80   6 C      2.767     0.199    23.762     7.983
  81   8 O      0.856    -0.383    21.337     6.193
  82   6 C      3.853    -0.022    20.938     6.508
  83   6 C      3.802    -0.061    21.678     6.629
  84   6 C      3.754    -0.115    22.753     6.802
  85   6 C      3.751    -0.109    22.639     6.786
  86   1 H      0.860     0.169     1.276     1.770
  87   1 H      0.923     0.048     2.345     2.395
  88   1 H      0.924     0.053     2.287     2.365
  89   1 H      0.925     0.042     2.419     2.432
  90   1 H      0.924     0.047     2.362     2.403
  91   1 H      0.925     0.053     2.287     2.365
  92   1 H      0.925     0.035     2.511     2.478
  93   1 H      0.925     0.041     2.432     2.439
  94   1 H      0.925     0.040     2.447     2.446
  95   1 H      0.925     0.038     2.476     2.461
  96   1 H      0.925     0.036     2.506     2.476
  97   7 N      2.635    -0.393    30.188     8.160
  98   6 C      3.787     0.034    20.013     6.372
  99   6 C      2.764     0.271    22.428     7.756
 100   8 O      0.859    -0.491    23.583     6.511
 101   6 C      3.809    -0.071    21.857     6.655
 102   6 C      3.849    -0.009    20.706     6.472
 103   6 C      3.754    -0.104    22.544     6.770
 104   6 C      3.755    -0.110    22.650     6.786
 105   1 H      0.860     0.160     1.332     1.808
 106   1 H      0.924     0.038     2.475     2.460
 107   1 H      0.925     0.053     2.283     2.363
 108   1 H      0.924     0.027     2.629     2.536
 109   1 H      0.924     0.028     2.611     2.527
 110   1 H      0.925     0.035     2.514     2.480
 111   1 H      0.925     0.028     2.617     2.530
 112   1 H      0.925     0.039     2.459     2.452
 113   1 H      0.925     0.046     2.372     2.408
 114   1 H      0.925     0.044     2.399     2.422
 115   1 H      0.925     0.034     2.536     2.490
 116   7 N      2.690    -0.180    24.896     7.411
 117   6 C      3.800     0.037    19.959     6.361
 118   6 C      2.765     0.201    23.717     7.975
 119   8 O      0.856    -0.354    20.782     6.112
 120   6 C      3.807    -0.080    22.025     6.681
 121   6 C      3.086     0.030    27.239     8.555
 122   7 N      2.822    -0.100    23.188     7.152
 123   6 C      3.161     0.010    27.470     8.568
 124   6 C      3.152     0.092    25.690     8.289
 125   7 N      1.917    -0.293    28.430     7.906
 126   1 H      0.860     0.233     0.950     1.527
 127   1 H      0.923     0.066     2.128     2.281
 128   1 H      0.924     0.092     1.860     2.133
 129   1 H      0.924     0.075     2.027     2.227
 130   1 H      0.860     0.221     1.005     1.571
 131   1 H      0.927     0.016     2.788     2.611
 132   1 H      0.926     0.040     2.447     2.446
 133   7 N      2.634    -0.403    30.459     8.197
 134   6 C      3.784     0.049    19.763     6.332
 135   6 C      2.768     0.197    23.806     7.991
 136   8 O      0.856    -0.368    21.058     6.152
 137   6 C      3.809    -0.049    21.444     6.592
 138   6 C      3.052    -0.024    28.542     8.762
 139   6 C      3.038    -0.007    28.167     8.705
 140   6 C      3.119    -0.017    28.255     8.706
 141   7 N      2.779    -0.110    23.399     7.184
 142   6 C      3.087     0.046    26.871     8.497
 143   6 C      2.912    -0.037    28.912     8.817
 144   6 C      2.909    -0.056    29.396     8.890
 145   6 C      2.920    -0.043    29.076     8.842
 146   6 C      2.922    -0.042    29.043     8.838
 147   1 H      0.860     0.188     1.168     1.693
 148   1 H      0.924     0.050     2.323     2.384
 149   1 H      0.925     0.049     2.331     2.387
 150   1 H      0.924     0.026     2.648     2.545
 151   1 H      0.926     0.053     2.279     2.361
 152   1 H      0.860     0.183     1.197     1.714
 153   1 H      0.926     0.004     2.985     2.702
 154   1 H      0.926     0.022     2.707     2.573
 155   1 H      0.926     0.015     2.808     2.620
 156   1 H      0.926     0.039     2.461     2.453
 157   7 N      2.636    -0.396    30.254     8.169
 158   6 C      3.791     0.028    20.108     6.386
 159   6 C      2.757     0.268    22.469     7.762
 160   8 O      0.859    -0.479    23.327     6.476
 161   6 C      3.853    -0.016    20.825     6.490
 162   6 C      3.757    -0.119    22.828     6.812
 163   6 C      3.756    -0.105    22.552     6.771
 164   1 H      0.860     0.142     1.459     1.892
 165   1 H      0.923     0.049     2.330     2.387
 166   1 H      0.924     0.022     2.709     2.574
 167   1 H      0.925     0.049     2.329     2.387
 168   1 H      0.925     0.037     2.483     2.464
 169   1 H      0.925     0.063     2.163     2.300
 170   1 H      0.925     0.040     2.447     2.446
 171   1 H      0.925     0.050     2.315     2.379
 172   1 H      0.925     0.025     2.661     2.551
 173   7 N      2.692    -0.183    24.967     7.421
 174   6 C      3.797     0.040    19.908     6.353
 175   6 C      2.768     0.210    23.548     7.947
 176   8 O      0.856    -0.351    20.722     6.103
 177   6 C      3.813    -0.076    21.946     6.668
 178   6 C      2.973     0.009    27.802     8.649
 179   6 C      2.924    -0.042    29.055     8.840
 180   6 C      2.925    -0.036    28.887     8.814
 181   6 C      2.918    -0.034    28.841     8.807
 182   6 C      2.919    -0.029    28.736     8.791
 183   6 C      2.922    -0.035    28.875     8.812
 184   1 H      0.860     0.236     0.941     1.519
 185   1 H      0.923     0.064     2.151     2.294
 186   1 H      0.924     0.059     2.208     2.324
 187   1 H      0.924     0.063     2.160     2.299
 188   1 H      0.926     0.042     2.428     2.437
 189   1 H      0.926     0.016     2.797     2.616
 190   1 H      0.926     0.051     2.302     2.373
 191   1 H      0.926     0.025     2.662     2.551
 192   1 H      0.926     0.043     2.407     2.426
 193   7 N      2.636    -0.410    30.650     8.222
 194   6 C      3.781     0.042    19.891     6.353
 195   6 C      2.766     0.196    23.815     7.992
 196   8 O      0.856    -0.368    21.043     6.150
 197   6 C      3.758    -0.118    22.815     6.810
 198   1 H      0.860     0.177     1.232     1.739
 199   1 H      0.923     0.068     2.111     2.272
 200   1 H      0.925     0.048     2.339     2.392
 201   1 H      0.925     0.070     2.089     2.260
 202   1 H      0.925     0.041     2.442     2.444
 203   7 N      2.634    -0.394    30.195     8.161
 204   6 C      3.785     0.022    20.224     6.406
 205   6 C      2.757     0.266    22.509     7.769
 206   8 O      0.858    -0.491    23.586     6.511
 207   6 C      3.811    -0.087    22.148     6.699
 208   6 C      3.807    -0.085    22.123     6.696
 209   6 C      3.737    -0.028    21.166     6.565
 210   7 N      2.708    -0.137    23.963     7.270
 211   6 C      2.736     0.230    23.168     7.881
 212   7 N      2.648    -0.247    26.442     7.637
 213   7 N      2.656    -0.261    26.772     7.685
 214   1 H      0.860     0.156     1.362     1.828
 215   1 H      0.924     0.049     2.330     2.387
 216   1 H      0.924     0.067     2.120     2.277
 217   1 H      0.924     0.072     2.062     2.246
 218   1 H      0.925     0.056     2.248     2.345
 219   1 H      0.924     0.076     2.019     2.222
 220   1 H      0.924     0.100     1.787     2.090
 221   1 H      0.924     0.076     2.024     2.225
 222   1 H      0.859     0.227     0.980     1.551
 223   1 H      0.860     0.250     0.882     1.471
 224   1 H      0.860     0.250     0.884     1.473
 225   1 H      0.860     0.242     0.914     1.497
 226   1 H      0.860     0.249     0.886     1.474
 227   7 N      2.689    -0.179    24.882     7.408
 228   6 C      3.793     0.013    20.368     6.427
 229   6 C      2.757     0.270    22.435     7.757
 230   8 O      0.859    -0.470    23.127     6.448
 231   6 C      3.805    -0.070    21.836     6.652
 232   6 C      3.802    -0.088    22.181     6.705
 233   6 C      3.739    -0.028    21.161     6.564
 234   7 N      2.700    -0.141    24.052     7.284
 235   6 C      2.736     0.235    23.086     7.867
 236   7 N      2.651    -0.235    26.162     7.597
 237   7 N      2.654    -0.258    26.690     7.673
 238   1 H      0.860     0.220     1.012     1.576
 239   1 H      0.924     0.076     2.018     2.222
 240   1 H      0.924     0.055     2.262     2.352
 241   1 H      0.924     0.071     2.074     2.252
 242   1 H      0.925     0.087     1.905     2.158
 243   1 H      0.924     0.057     2.231     2.336
 244   1 H      0.924     0.080     1.981     2.201
 245   1 H      0.925     0.089     1.888     2.149
 246   1 H      0.860     0.233     0.954     1.530
 247   1 H      0.860     0.246     0.899     1.486
 248   1 H      0.860     0.244     0.908     1.493
 249   1 H      0.860     0.246     0.900     1.486
 250   1 H      0.860     0.247     0.895     1.482
 251   7 N      2.692    -0.174    24.768     7.392
 252   6 C      3.799     0.003    20.538     6.453
 253   6 C      2.755     0.264    22.541     7.775
 254   8 O      0.858    -0.471    23.158     6.452
 255   6 C      3.801    -0.092    22.255     6.717
 256   6 C      3.801    -0.094    22.297     6.723
 257   6 C      3.737    -0.041    21.386     6.599
 258   7 N      2.699    -0.135    23.925     7.265
 259   6 C      2.735     0.226    23.242     7.893
 260   7 N      2.651    -0.244    26.369     7.627
 261   7 N      2.655    -0.256    26.654     7.668
 262   1 H      0.860     0.213     1.042     1.599
 263   1 H      0.924     0.096     1.820     2.110
 264   1 H      0.925     0.077     2.008     2.216
 265   1 H      0.924     0.088     1.899     2.155
 266   1 H      0.925     0.073     2.051     2.240
 267   1 H      0.925     0.079     1.994     2.208
 268   1 H      0.924     0.093     1.851     2.127
 269   1 H      0.925     0.093     1.854     2.130
 270   1 H      0.860     0.230     0.966     1.540
 271   1 H      0.860     0.247     0.895     1.482
 272   1 H      0.860     0.250     0.882     1.471
 273   1 H      0.860     0.246     0.897     1.484
 274   1 H      0.860     0.249     0.886     1.474
 275   7 N      2.692    -0.189    25.090     7.439
 276   6 C      3.795     0.021    20.221     6.403
 277   6 C      2.760     0.275    22.343     7.741
 278   8 O      0.859    -0.506    23.919     6.557
 279   6 C      3.811    -0.079    22.001     6.676
 280   6 C      2.969    -0.006    28.156     8.704
 281   6 C      2.924    -0.044    29.095     8.846
 282   6 C      2.926    -0.041    29.008     8.832
 283   6 C      2.919    -0.064    29.583     8.919
 284   6 C      2.917    -0.075    29.861     8.961
 285   6 C      2.846     0.141    24.930     8.183
 286   8 O      1.660    -0.417    21.187     6.214
 287   1 H      0.860     0.232     0.956     1.532
 288   1 H      0.923     0.071     2.079     2.255
 289   1 H      0.925     0.073     2.050     2.239
 290   1 H      0.924     0.055     2.256     2.349
 291   1 H      0.926     0.065     2.141     2.288
 292   1 H      0.926     0.026     2.639     2.540
 293   1 H      0.926     0.074     2.045     2.236
 294   1 H      0.925     0.032     2.560     2.502
 295   1 H      0.805     0.342     0.608     1.225
 296   7 N      2.688    -0.170    24.675     7.377
 297   6 C      3.798     0.021    20.226     6.404
 298   6 C      2.756     0.279    22.272     7.728
 299   8 O      0.858    -0.511    24.019     6.571
 300   6 C      3.807    -0.072    21.874     6.658
 301   6 C      3.055    -0.045    29.072     8.843
 302   6 C      3.031    -0.019    28.443     8.748
 303   6 C      3.112    -0.025    28.469     8.741
 304   7 N      2.775    -0.101    23.225     7.158
 305   6 C      3.088     0.039    27.019     8.520
 306   6 C      2.911    -0.037    28.919     8.818
 307   6 C      2.908    -0.063    29.576     8.917
 308   6 C      2.919    -0.045    29.125     8.850
 309   6 C      2.924    -0.042    29.048     8.839
 310   1 H      0.860     0.223     0.996     1.563
 311   1 H      0.923     0.063     2.167     2.302
[...]
   306  C   3.993        C  308 1.507    C  303 1.328    H  316 0.969    C  307 0.114
   307  C   3.984        C  309 1.496    C  305 1.334    H  317 0.962    C  306 0.114
   308  C   3.991        C  306 1.507    C  309 1.368    H  318 0.970
   309  C   3.990        C  307 1.496    C  308 1.368    H  319 0.969
   310  H   0.950        N  296 0.913
   311  H   0.995        C  297 0.951
   312  H   0.996        C  300 0.966
   313  H   0.995        C  300 0.966
   314  H   0.997        C  302 0.966
   315  H   0.955        N  304 0.925
   316  H   0.999        C  306 0.969
   317  H   0.995        C  307 0.962
   318  H   0.999        C  308 0.970
   319  H   0.997        C  309 0.969
   320  N   3.475        C  298 1.322    C  321 0.979    H  325 0.877    O  299 0.191
   321  C   3.961        C  324 0.988    N  320 0.979    H  326 0.948    C  322 0.935
   322  C   3.936        O  323 1.616    N  330 1.297    C  321 0.935
   323  O   1.977        C  322 1.616    N  330 0.190
   324  C   3.972        C  321 0.988    H  327 0.979    H  329 0.974    H  328 0.973
   325  H   0.943        N  320 0.877
   326  H   0.993        C  321 0.948
   327  H   0.994        C  324 0.979
   328  H   0.990        C  324 0.973
   329  H   0.992        C  324 0.974
   330  N   3.460        C  322 1.297    C  331 0.978    H  338 0.910    O  323 0.190
   331  C   3.968        C  334 0.983    N  330 0.978    H  339 0.954    C  332 0.933
   332  C   3.938        O  333 1.601    N  349 1.313    C  331 0.933
   333  O   1.968        C  332 1.601    N  349 0.192
   334  C   3.983        C  335 0.994    C  331 0.983    H  340 0.971    H  341 0.955
   335  C   3.994        C  336 1.009    C  337 1.007    C  334 0.994    H  342 0.965
   336  C   3.994        C  335 1.009    H  343 0.984    H  344 0.984    H  345 0.984
   337  C   3.993        C  335 1.007    H  346 0.986    H  347 0.985    H  348 0.984
   338  H   0.951        N  330 0.910
   339  H   0.995        C  331 0.954
   340  H   0.994        C  334 0.971
   341  H   0.993        C  334 0.955
   342  H   1.000        C  335 0.965
   343  H   0.999        C  336 0.984
   344  H   1.000        C  336 0.984
   345  H   0.998        C  336 0.984
   346  H   0.998        C  337 0.986
   347  H   0.996        C  337 0.985
   348  H   0.998        C  337 0.984
   349  N   3.465        C  332 1.313    C  350 0.996    H  353 0.881    O  333 0.192
   350  C   3.971        N  349 0.996    H  354 0.961    H  355 0.957    C  351 0.949
   351  C   3.947        O  352 1.586    N  356 1.338    C  350 0.949
   352  O   1.957        C  351 1.586    N  356 0.197
   353  H   0.941        N  349 0.881
   354  H   0.994        C  350 0.961
   355  H   0.991        C  350 0.957
   356  N   3.475        C  351 1.338    C  357 0.974    H  364 0.865    O  352 0.197
   357  C   3.962        C  360 0.975    N  356 0.974    H  365 0.952    C  358 0.945
   358  C   3.939        O  359 1.547    N  375 1.345    C  357 0.945
   359  O   1.935        C  358 1.547    N  375 0.184
   360  C   3.979        C  361 0.993    C  357 0.975    H  366 0.965    H  367 0.964
   361  C   3.993        C  363 1.010    C  362 1.007    C  360 0.993    H  368 0.969
   362  C   3.992        C  361 1.007    H  369 0.986    H  370 0.986    H  371 0.981
   363  C   3.994        C  361 1.010    H  372 0.985    H  373 0.982    H  374 0.981
   364  H   0.940        N  356 0.865
   365  H   0.996        C  357 0.952
   366  H   0.995        C  360 0.965
   367  H   0.994        C  360 0.964
   368  H   0.999        C  361 0.969
   369  H   0.997        C  362 0.986
   370  H   0.998        C  362 0.986
   371  H   0.996        C  362 0.981
   372  H   0.998        C  363 0.985
   373  H   0.997        C  363 0.982
   374  H   1.000        C  363 0.981
   375  N   3.494        C  358 1.345    C  376 0.982    H  382 0.879    O  359 0.184
   376  C   3.968        N  375 0.982    C  379 0.967    H  383 0.951    C  377 0.936
   377  C   3.940        O  378 1.582    N  391 1.334    C  376 0.936
   378  O   1.940        C  377 1.582    N  391 0.192
   379  C   3.986        C  380 1.008    C  381 1.006    C  376 0.967    H  384 0.960
   380  C   3.993        C  379 1.008    H  385 0.984    H  386 0.983    H  387 0.981
   381  C   3.989        C  379 1.006    H  389 0.984    H  388 0.981    H  390 0.977
   382  H   0.942        N  375 0.879
   383  H   0.996        C  376 0.951
   384  H   0.998        C  379 0.960
   385  H   0.998        C  380 0.984
   386  H   1.000        C  380 0.983
   387  H   0.999        C  380 0.981
   388  H   0.996        C  381 0.981
   389  H   0.998        C  381 0.984
   390  H   0.995        C  381 0.977
   391  N   3.479        C  377 1.334    C  392 0.974    H  398 0.882    O  378 0.192
   392  C   3.963        N  391 0.974    C  395 0.967    H  399 0.950    C  393 0.939
   393  C   3.947        O  394 1.608    N  407 1.311    C  392 0.939
   394  O   1.950        C  393 1.608    N  407 0.193
   395  C   3.989        C  396 1.008    C  397 1.007    C  392 0.967    H  400 0.964
   396  C   3.993        C  395 1.008    H  403 0.984    H  401 0.983    H  402 0.982
   397  C   3.993        C  395 1.007    H  405 0.984    H  404 0.983    H  406 0.976
   398  H   0.945        N  391 0.882
   399  H   0.997        C  392 0.950
   400  H   0.997        C  395 0.964
   401  H   0.995        C  396 0.983
   402  H   0.998        C  396 0.982
   403  H   0.999        C  396 0.984
   404  H   0.996        C  397 0.983
   405  H   0.999        C  397 0.984
   406  H   0.997        C  397 0.976
   407  N   3.463        C  393 1.311    C  408 0.993    H  411 0.877    O  394 0.193
   408  C   3.966        N  407 0.993    H  412 0.960    H  413 0.955    C  409 0.951
   409  C   3.949        O  410 1.599    N  414 1.323    C  408 0.951
   410  O   1.963        C  409 1.599    N  414 0.195
   411  H   0.944        N  407 0.877
   412  H   0.992        C  408 0.960
   413  H   0.990        C  408 0.955
   414  N   3.476        C  409 1.323    C  415 0.983    H  420 0.877    O  410 0.195
   415  C   3.967        N  414 0.983    C  418 0.962    H  421 0.948    C  416 0.940
   416  C   3.949        O  417 1.580    N  425 1.336    C  415 0.940
   417  O   1.942        C  416 1.580    N  425 0.195
   418  C   3.966        O  419 1.023    H  423 0.967    C  415 0.962    H  422 0.958
   419  O   1.958        C  418 1.023    H  424 0.841
   420  H   0.947        N  414 0.877
   421  H   0.993        C  415 0.948
   422  H   0.998        C  418 0.958
   423  H   0.996        C  418 0.967
   424  H   0.889        O  419 0.841
   425  N   3.492        C  416 1.336    C  426 0.972    H  435 0.889    O  417 0.195
   426  C   3.963        C  429 0.978    N  425 0.972    H  436 0.943    C  427 0.939
   427  C   3.950        O  428 1.596    N  442 1.330    C  426 0.939
   428  O   1.972        C  427 1.596    N  442 0.192
   429  C   3.993        C  430 1.010    C  426 0.978    H  437 0.968    H  438 0.959
   430  C   3.972        C  432 1.544    N  431 1.281    C  429 1.010
   431  N   3.006        C  433 1.522    C  430 1.281    N  434 0.104
   432  C   3.950        C  430 1.544    N  434 1.238    H  439 0.971    C  433 0.111
   433  C   3.954        N  431 1.522    N  434 1.288    H  440 0.964    C  432 0.111
   434  N   3.608        C  433 1.288    C  432 1.238    H  441 0.869    N  431 0.104
   435  H   0.950        N  425 0.889
   436  H   0.995        C  426 0.943
   437  H   0.999        C  429 0.968
   438  H   0.998        C  429 0.959
   439  H   1.000        C  432 0.971
   440  H   0.998        C  433 0.964
   441  H   0.955        N  434 0.869
   442  N   3.482        C  427 1.330    C  443 0.973    H  450 0.899    O  428 0.192
   443  C   3.959        C  446 0.980    N  442 0.973    H  451 0.947    C  444 0.935
   444  C   3.948        O  445 1.578    N  461 1.339    C  443 0.935
   445  O   1.950        C  444 1.578    N  461 0.193
   446  C   3.983        C  447 0.990    C  443 0.980    H  453 0.968    H  452 0.968
   447  C   3.993        C  448 1.011    C  449 1.008    C  446 0.990    H  454 0.966
   448  C   3.995        C  447 1.011    H  457 0.984    H  455 0.982    H  456 0.979
   449  C   3.993        C  447 1.008    H  459 0.986    H  460 0.986    H  458 0.984
   450  H   0.950        N  442 0.899
   451  H   0.996        C  443 0.947
   452  H   0.996        C  446 0.968
   453  H   0.996        C  446 0.968
   454  H   0.998        C  447 0.966
   455  H   0.997        C  448 0.982
   456  H   0.999        C  448 0.979
   457  H   0.999        C  448 0.984
   458  H   0.997        C  449 0.984
   459  H   0.998        C  449 0.986
   460  H   0.998        C  449 0.986
   461  N   3.481        C  444 1.339    C  462 0.973    H  469 0.880    O  445 0.193
   462  C   3.961        C  465 0.977    N  461 0.973    H  470 0.951    C  463 0.943
   463  C   3.947        O  464 1.599    N  480 1.316    C  462 0.943
   464  O   1.961        C  463 1.599    N  480 0.193
   465  C   3.983        C  466 0.993    C  462 0.977    H  471 0.970    H  472 0.963
   466  C   3.993        C  467 1.010    C  468 1.008    C  465 0.993    H  473 0.967
   467  C   3.994        C  466 1.010    H  476 0.986    H  475 0.984    H  474 0.984
   468  C   3.994        C  466 1.008    H  479 0.986    H  478 0.986    H  477 0.985
   469  H   0.947        N  461 0.880
   470  H   0.995        C  462 0.951
   471  H   0.996        C  465 0.970
   472  H   0.997        C  465 0.963
   473  H   0.999        C  466 0.967
   474  H   0.997        C  467 0.984
   475  H   0.999        C  467 0.984
   476  H   0.998        C  467 0.986
   477  H   0.997        C  468 0.985
   478  H   0.997        C  468 0.986
   479  H   0.998        C  468 0.986
   480  N   3.477        C  463 1.316    C  481 0.984    H  487 0.890    O  464 0.193
   481  C   3.965        N  480 0.984    C  484 0.952    H  488 0.943    C  482 0.940
   482  C   3.949        O  483 1.599    N  494 1.321    C  481 0.940
   483  O   1.949        C  482 1.599    N  494 0.193
   484  C   3.954        O  485 1.006    C  486 0.992    H  489 0.960    C  481 0.952
   485  O   1.957        C  484 1.006    H  490 0.844
   486  C   3.990        C  484 0.992    H  492 0.983    H  491 0.979    H  493 0.973
   487  H   0.949        N  480 0.890
   488  H   0.995        C  481 0.943
   489  H   0.996        C  484 0.960
   490  H   0.898        O  485 0.844
   491  H   0.996        C  486 0.979
   492  H   0.997        C  486 0.983
   493  H   0.996        C  486 0.973
   494  N   3.487        C  482 1.321    C  495 0.981    H  500 0.908    O  483 0.193
   495  C   3.967        C  498 0.983    N  494 0.981    H  501 0.946    C  496 0.932
   496  C   3.952        O  497 1.594    N  505 1.343    C  495 0.932
   497  O   1.983        C  496 1.594    N  505 0.200
   498  C   3.961        O  499 1.006    C  495 0.983    H  503 0.966    H  502 0.961
   499  O   1.936        C  498 1.006    H  504 0.869
   500  H   0.951        N  494 0.908
   501  H   0.991        C  495 0.946
   502  H   0.997        C  498 0.961
   503  H   0.997        C  498 0.966
   504  H   0.889        O  499 0.869
   505  N   3.493        C  496 1.343    C  506 0.991    H  509 0.876    O  497 0.200
   506  C   3.964        N  505 0.991    H  510 0.960    H  511 0.958    C  507 0.946
   507  C   3.951        O  508 1.627    N  512 1.315    C  506 0.946
   508  O   1.942        C  507 1.627    N  512 0.199
   509  H   0.943        N  505 0.876
   510  H   0.993        C  506 0.960
   511  H   0.992        C  506 0.958
   512  N   3.468        C  507 1.315    C  513 0.978    H  520 0.880    O  508 0.199
   513  C   3.963        C  516 0.981    N  512 0.978    H  521 0.949    C  514 0.936
   514  C   3.943        O  515 1.623    N  531 1.305    C  513 0.936
   515  O   1.953        C  514 1.623    N  531 0.196
   516  C   3.985        C  517 0.992    C  513 0.981    H  523 0.971    H  522 0.963
   517  C   3.993        C  519 1.010    C  518 1.008    C  516 0.992    H  524 0.963
   518  C   3.995        C  517 1.008    H  525 0.984    H  527 0.980    H  526 0.979
   519  C   3.994        C  517 1.010    H  529 0.986    H  528 0.984    H  530 0.984
   520  H   0.945        N  512 0.880
   521  H   0.995        C  513 0.949
   522  H   0.996        C  516 0.963
   523  H   0.996        C  516 0.971
   524  H   0.998        C  517 0.963
   525  H   0.997        C  518 0.984
   526  H   0.999        C  518 0.979
   527  H   0.998        C  518 0.980
   528  H   0.997        C  519 0.984
   529  H   0.998        C  519 0.986
   530  H   0.999        C  519 0.984
   531  N   3.470        C  514 1.305    C  532 0.987    H  538 0.896    O  515 0.196
   532  C   3.967        N  531 0.987    C  533 0.981    H  539 0.945    C  535 0.928
   533  C   3.900        O  534 1.877    C  532 0.981    H  638 0.957
   534  O   2.022        C  533 1.877
   535  C   3.954        O  536 1.008    C  537 0.995    H  540 0.961    C  532 0.928
   536  O   1.938        C  535 1.008    H  541 0.827
   537  C   3.988        C  535 0.995    H  543 0.981    H  542 0.979    H  544 0.970
   538  H   0.950        N  531 0.896
   539  H   0.993        C  532 0.945
   540  H   0.996        C  535 0.961
   541  H   0.890        O  536 0.827
   542  H   0.995        C  537 0.979
   543  H   0.996        C  537 0.981
   544  H   0.996        C  537 0.970
   545  N   3.001        C  546 1.012    H  639 0.955    H  553 0.953
   546  C   3.984        N  545 1.012    C  547 0.981    H  554 0.957    C  549 0.947
   547  C   3.897        O  548 1.887    C  546 0.981    H  640 0.954
   548  O   2.031        C  547 1.887
   549  C   3.992        C  551 1.009    C  550 0.995    H  555 0.964    C  546 0.947
   550  C   3.996        C  552 1.017    C  549 0.995    H  556 0.976    H  557 0.969
   551  C   3.995        C  549 1.009    H  560 0.986    H  559 0.981    H  558 0.980
   552  C   3.994        C  550 1.017    H  562 0.988    H  563 0.982    H  561 0.980
   553  H   0.973        N  545 0.953
   554  H   0.998        C  546 0.957
   555  H   0.998        C  549 0.964
   556  H   0.999        C  550 0.976
   557  H   0.998        C  550 0.969
   558  H   0.997        C  551 0.980
   559  H   0.999        C  551 0.981
   560  H   0.998        C  551 0.986
   561  H   0.997        C  552 0.980
   562  H   0.999        C  552 0.988
   563  H   0.998        C  552 0.982
   564  N   3.004        C  565 1.013    H  641 0.954    H  571 0.953
   565  C   3.984        N  564 1.013    C  566 0.982    H  572 0.957    C  568 0.946
   566  C   3.884        O  567 1.860    C  565 0.982    H  642 0.955
   567  O   2.042        C  566 1.860
   568  C   3.991        C  569 1.008    C  570 1.007    H  573 0.963    C  565 0.946
   569  C   3.995        C  568 1.008    H  576 0.985    H  574 0.985    H  575 0.980
   570  C   3.994        C  568 1.007    H  578 0.985    H  577 0.982    H  579 0.982
   571  H   0.976        N  564 0.953
   572  H   0.997        C  565 0.957
   573  H   0.998        C  568 0.963
   574  H   0.998        C  569 0.985
   575  H   0.999        C  569 0.980
   576  H   0.998        C  569 0.985
   577  H   0.996        C  570 0.982
   578  H   0.997        C  570 0.985
   579  H   0.998        C  570 0.982
   580  N   2.991        C  581 1.015    H  643 0.957    H  588 0.914
   581  C   3.986        N  580 1.015    C  582 0.973    C  584 0.966    H  589 0.957
   582  C   3.896        O  583 1.899    C  581 0.973    H  644 0.954
   583  O   2.037        C  582 1.899
   584  C   3.993        C  585 1.015    H  591 0.968    C  581 0.966    H  590 0.961
   585  C   3.982        C  584 1.015    S  586 0.987    H  592 0.973    H  593 0.972
   586  S   2.088        C  587 1.010    C  585 0.987
   587  C   3.978        S  586 1.010    H  595 0.983    H  596 0.982    H  594 0.977
   588  H   0.963        N  580 0.914
   589  H   0.997        C  581 0.957
   590  H   0.996        C  584 0.961
   591  H   0.998        C  584 0.968
   592  H   0.999        C  585 0.973
   593  H   0.998        C  585 0.972
   594  H   0.995        C  587 0.977
   595  H   0.996        C  587 0.983
   596  H   0.998        C  587 0.982
   597  N   3.001        C  598 1.007    H  645 0.955    H  611 0.955
   598  C   3.980        N  597 1.007    C  599 0.977    H  612 0.960    C  601 0.954
   599  C   3.893        O  600 1.885    C  598 0.977    H  646 0.956
   600  O   2.024        C  599 1.885
   601  C   3.990        C  602 1.014    H  614 0.973    C  598 0.954    H  613 0.954
   602  C   3.974        C  603 1.576    C  604 1.208    C  601 1.014
   603  C   3.958        C  602 1.576    N  605 1.210    H  615 0.968
   604  C   3.986        C  607 1.331    C  606 1.245    C  602 1.208
   605  N   3.548        C  603 1.210    C  606 1.181    H  616 0.932
   606  C   3.957        C  608 1.335    C  604 1.245    N  605 1.181
   607  C   3.993        C  609 1.505    C  604 1.331    H  617 0.967    C  608 0.113
   608  C   3.985        C  610 1.494    C  606 1.335    H  618 0.965    C  607 0.113
   609  C   3.990        C  607 1.505    C  610 1.368    H  619 0.968
   610  C   3.989        C  608 1.494    C  609 1.368    H  620 0.968
   611  H   0.977        N  597 0.955
   612  H   0.997        C  598 0.960
   613  H   0.998        C  601 0.954
   614  H   0.998        C  601 0.973
   615  H   0.998        C  603 0.968
   616  H   0.958        N  605 0.932
   617  H   0.999        C  607 0.967
   618  H   0.997        C  608 0.965
   619  H   0.999        C  609 0.968
   620  H   0.997        C  610 0.968
   621  H   0.968        N    1 0.957
   622  H   0.993        C    3 0.953
   623  H   0.969        N   11 0.957
   624  H   0.994        C   29 0.953
   625  H   0.964        N   46 0.955
   626  H   0.993        C   65 0.952
   627  H   0.968        N   78 0.956
   628  H   0.993        C   80 0.953
   629  H   0.967        N   97 0.956
   630  H   0.992        C  118 0.951
   631  H   0.971        N  133 0.959
   632  H   0.994        C  135 0.953
   633  H   0.965        N  157 0.954
   634  H   0.995        C  175 0.954
   635  H   0.965        N  193 0.954
   636  H   0.996        C  195 0.957
   637  H   0.968        N  203 0.957
   638  H   0.996        C  533 0.957
   639  H   0.969        N  545 0.955
   640  H   0.995        C  547 0.954
   641  H   0.965        N  564 0.954
   642  H   0.995        C  566 0.955
   643  H   0.968        N  580 0.957
   644  H   0.995        C  582 0.954
   645  H   0.966        N  597 0.955
   646  H   0.996        C  599 0.956
 
molecular dipole:
                 x           y           z       tot (Debye)
 q only:       56.376       7.563     120.423
   full:       56.262       9.360     120.577     339.041
molecular quadrupole (traceless):
                xx          xy          yy          xz          yz          zz
 q only:     -370.225    -670.446   -6943.645    5199.202    -419.985    7313.870
  q+dip:     -433.556    -583.355   -6816.357    5171.586    -283.118    7249.913
   full:     -430.054    -588.146   -6820.485    5170.928    -290.564    7250.539


           -------------------------------------------------
          | TOTAL ENERGY             -955.114307456074 Eh   |
          | GRADIENT NORM               0.795381335718 Eh/α |
          | HOMO-LUMO GAP               1.330661749662 eV   |
           -------------------------------------------------

------------------------------------------------------------------------
 * finished run on 2019/05/31 at 07:36:51.259     
------------------------------------------------------------------------
 total:
 * wall-time:     0 d,  0 h,  0 min, 53.712 sec
 *  cpu-time:     0 d,  0 h,  0 min, 26.431 sec
 * ratio c/w:     0.492 speedup
 SCF:
 * wall-time:     0 d,  0 h,  0 min, 51.995 sec
 *  cpu-time:     0 d,  0 h,  0 min, 25.566 sec
 * ratio c/w:     0.492 speedup

