      -----------------------------------------------------------      
     |                   =====================                   |     
     |                           x T B                           |     
     |                   =====================                   |     
     |                         S. Grimme                         |     
     |          Mulliken Center for Theoretical Chemistry        |     
     |                    University of Bonn                     |     
     |                 Version 6.0.1 (SAW181210)                 |     
      -----------------------------------------------------------      

   This program is distributed in the hope that it will be useful,
   but WITHOUT ANY WARRANTY; without even the implied warranty of
   MERCHANTABILITY or FITNESS FOR A PARTICULAR PURPOSE.
   
   FOR NON-COMMERCIAL, ACADEMIA USE ONLY.
   
   Cite this work as:
   S. Grimme, C. Bannwarth, P. Shushkov, J. Comput. Theory Chem., 2017,
   13, 1989-2009.
   C. Bannwarth, S. Ehlert and S. Grimme., ChemRxiv, 2018, preprint.
   http://doi.org/10.26434/chemrxiv.7246238.v1
   
   for sTDA-xTB:
   S. Grimme and C. Bannwarth, J. Chem. Phys., 2016, 145, 054103.
   
   in the mass-spec context:
   V. Asgeirsson, C. Bauer and S. Grimme, Chem. Sci., 2017, 8, 4879.
   
   if GBSA is used:
   P. Shushkov, F. März and S. Grimme, unpublished.
   
   for ANC optimizer:
   S. Grimme, unpublished.
   Rational Function algorithm used in ANCopt:
   F. Eckert, P. Pulay, H.-J. Werner, J. Comput. Chem., 1997, 18, 1473.
   
   with help from (in alphabetical order)
   C. Bannwarth, F. Bohle, G. Brandenburg, E. Caldeweyher, M. Checinski,
   S. Dohm, S. Ehlert, S. Ehrlich, F. März, H. Neugebauer, J. Pisarek,
   P. Pracht, P. Shushkov, and S. Spicher.
   
 * started run on 2019/02/13 at 00:17:04.878     
========================================================================
 # omp threads = 16
========================================================================
number of atoms            : 583
number of electrons        : 1544
charge                     : 0
spin                       : .0
first test random number   : .1765

########################################################################
# WARNING! Please study the warnings concerning your input carefully
#  - Process number higher than OMP_NUM_THREADS, I hope you know what you are doing.
########################################################################

           ------------------------------------------------- 
          |                 G F N 2 - x T B                 |
          | Geometry, Frequencies, Noncovalent interactions |
          |            JCTC 2018 parametrisation            |
           ------------------------------------------------- 
 
      method parameters     
 k(s)        :  1.8500
 k(p)        :  2.2300
 k(d)        :  2.2300
 k(f)        :  2.0000
 kEN (H0ij)  : -2.0000
 D4 a1       :  0.5200
 D4 a2       :  5.0000
 D4 s6       :  1.0000
 D4 s8       :  2.7000
 D4 s9       :  5.0000
 alphaj      :  2.0000

 Solvent             : h2o
 Using internal parameter file: .param_gbsa2_h2o
 Gsolv ref. state (COSMO-RS): gsolv [1 M gas/solution]
 temperature (mdtemp)       :    298.150000000000     
 dielectric constant        :    80.2000000000000     
 rho                        :    1.00000000000000     
 mass                       :    18.0000000000000     
 surface tension            :    15.5689454083859     
 probe radius               :   0.975313790000000     
 vdW radii scaling          :    1.00000000000000     
 Gshift (Eh)                :   1.857443126794793E-003
 c1                         :    1.55243817000000     
 soset                      :   0.130326360000000     
 HB correction              :  T

            Z     q(EN)     CN     RAES       Cart. coordinates
     1  N   5.0   -0.21    3.23    1.96   248.75986   119.59130   258.32869
     2  C   4.0    0.03    4.24    4.08   248.83224   118.43770   255.84453
     3  C   4.0    0.15    3.43    3.09   248.45486   120.44357   253.80065
     4  O   6.0   -0.33    1.33    1.80   249.50712   120.22113   251.74720
     5  C   4.0   -0.07    4.09    3.79   246.89599   116.32521   255.56801
     6  H   1.0    0.08    1.02    1.43   247.76229   118.66225   259.70305
     7  H   1.0    0.05    1.05    1.44   250.73356   117.66476   255.52065
     8  H   1.0    0.05    1.00    1.43   247.37582   115.19217   253.92432
     9  H   1.0    0.05    1.00    1.43   246.95047   115.12206   257.23192
    10  H   1.0    0.05    1.00    1.43   245.00966   117.09072   255.29339
    11  N   5.0   -0.15    3.49    2.07   246.97872   122.39582   254.40761
    12  C   4.0    0.04    4.40    4.38   246.65461   124.52651   252.72236
    13  C   4.0    0.17    3.52    3.13   249.22884   125.76264   252.28080
    14  O   6.0   -0.30    1.35    1.80   250.01938   126.15896   250.14042
    15  C   4.0    0.03    4.16    3.91   244.80159   126.43768   253.86126
    16  O   6.0   -0.25    2.06    1.83   244.62495   128.53944   252.23103
    17  H   1.0    0.07    1.06    1.44   245.72377   122.25829   255.86608
    18  H   1.0    0.06    1.05    1.44   245.97057   123.91490   250.86103
    19  H   1.0    0.04    1.01    1.43   242.96708   125.50100   254.08418
    20  H   1.0    0.04    1.01    1.43   245.52233   127.01985   255.71719
    21  H   1.0    0.12    1.02    1.43   243.24935   129.59189   252.80536
    22  N   5.0   -0.15    3.50    2.08   250.51768   126.36901   254.36180
    23  C   4.0    0.03    4.44    4.44   253.08678   127.30419   254.13980
    24  C   4.0    0.17    3.52    3.12   254.50889   125.64700   252.23088
    25  O   6.0   -0.30    1.32    1.80   255.56014   126.60823   250.40091
    26  C   4.0   -0.05    4.27    4.13   254.48181   127.35821   256.66363
    27  C   4.0   -0.05    4.19    3.98   253.24484   129.15108   258.56616
    28  C   4.0   -0.01    4.21    4.02   254.70305   129.15457   261.05957
    29  N   5.0   -0.14    3.40    2.02   253.14079   130.22832   263.05146
    30  C   4.0    0.09    3.34    3.06   253.81986   130.46086   265.46079
    31  N   5.0   -0.18    3.26    1.97   256.11323   129.76708   266.22422
    32  N   5.0   -0.19    3.24    1.96   252.16152   131.33323   267.13951
    33  H   1.0    0.07    1.06    1.44   249.82180   125.96276   256.10413
    34  H   1.0    0.05    1.05    1.44   253.04546   129.20824   253.31008
    35  H   1.0    0.05    1.03    1.43   254.53322   125.44015   257.41312
    36  H   1.0    0.06    1.03    1.43   256.42603   127.92741   256.26444
    37  H   1.0    0.04    1.02    1.43   253.18214   131.05205   257.77500
    38  H   1.0    0.04    1.03    1.43   251.31502   128.50913   258.90150
    39  H   1.0    0.05    1.02    1.43   255.21061   127.20356   261.53136
    40  H   1.0    0.05    1.02    1.43   256.44117   130.25065   260.82783
    41  H   1.0    0.08    1.07    1.44   251.37702   130.74174   262.53111
    42  H   1.0    0.08    1.04    1.43   257.43844   129.23413   264.96769
    43  H   1.0    0.09    1.03    1.43   256.66083   130.05922   268.02434
    44  H   1.0    0.08    1.03    1.43   250.39499   131.80976   266.61692
    45  H   1.0    0.09    1.03    1.43   252.65165   131.56718   268.96381
    46  N   5.0   -0.12    3.51    2.09   254.39930   123.16840   252.67952
    47  C   4.0    0.05    4.42    4.42   255.82213   121.37110   251.18481
    48  C   4.0    0.16    3.48    3.10   255.08769   121.52740   248.38921
    49  O   6.0   -0.32    1.29    1.80   256.67844   121.37179   246.69895
    50  C   4.0   -0.04    4.34    4.28   255.27418   118.66066   252.01677
    51  C   4.0    0.15    3.21    3.04   256.03869   118.04735   254.72365
    52  O   6.0   -0.29    1.20    1.80   257.06950   119.50786   256.16765
    53  N   5.0   -0.19    3.19    1.95   255.39460   115.67941   255.40541
    54  H   1.0    0.09    1.07    1.44   253.70963   122.55744   254.36556
    55  H   1.0    0.08    1.05    1.44   257.84910   121.81434   251.33333
    56  H   1.0    0.06    1.04    1.43   253.25190   118.30737   251.78827
    57  H   1.0    0.04    1.03    1.43   256.29096   117.39004   250.74865
    58  H   1.0    0.10    1.03    1.43   255.94676   115.02813   257.10691
    59  H   1.0    0.08    1.03    1.43   254.61580   114.47702   254.15405
    60  N   5.0   -0.14    3.56    2.12   252.61899   121.64021   247.94493
    61  C   4.0    0.04    4.36    4.31   251.57291   121.73393   245.41752
    62  C   4.0    0.16    3.46    3.10   252.57233   124.06746   244.04916
    63  O   6.0   -0.32    1.30    1.80   253.26135   123.98361   241.83556
    64  C   4.0   -0.07    4.12    3.85   248.70232   121.85693   245.55291
    65  H   1.0    0.12    1.13    1.45   251.35868   121.57260   249.39946
    66  H   1.0    0.05    1.05    1.44   252.18694   120.07543   244.33072
    67  H   1.0    0.04    1.00    1.43   247.92599   121.80855   243.65446
    68  H   1.0    0.05    1.00    1.43   247.98817   120.25695   246.62270
    69  H   1.0    0.06    1.00    1.43   248.12803   123.60943   246.45821
    70  N   5.0   -0.13    3.61    2.16   252.58665   126.13185   245.47429
    71  C   4.0    0.05    4.46    4.47   253.38996   128.58417   244.59313
    72  C   4.0    0.16    3.46    3.10   256.23370   128.56482   244.08657
    73  O   6.0   -0.32    1.31    1.80   257.11277   129.59669   242.19350
    74  C   4.0   -0.03    4.31    4.21   252.59070   130.56734   246.52424
    75  C   4.0    0.17    3.26    3.05   249.70894   130.47933   246.82903
    76  O   6.0   -0.30    1.23    1.80   248.33302   129.52829   245.25047
    77  N   5.0   -0.18    3.18    1.95   248.83185   131.59078   248.92655
    78  H   1.0    0.12    1.13    1.45   251.89311   126.03502   247.25865
    79  H   1.0    0.06    1.06    1.44   252.46436   128.97655   242.77621
    80  H   1.0    0.06    1.03    1.43   253.52373   130.15917   248.31583
    81  H   1.0    0.05    1.02    1.43   253.16023   132.43917   245.87492
    82  H   1.0    0.11    1.03    1.43   246.99153   131.35268   249.36810
    83  H   1.0    0.09    1.03    1.43   250.01487   132.26825   250.24730
    84  N   5.0   -0.13    3.56    2.13   257.61996   127.27130   245.72819
    85  C   4.0    0.04    4.45    4.46   260.27136   126.80202   245.26832
    86  C   4.0    0.16    3.50    3.12   260.49681   125.48883   242.72114
    87  O   6.0   -0.32    1.32    1.80   262.05634   126.14670   241.13666
    88  C   4.0   -0.03    4.27    4.14   261.41186   125.14528   247.31717
    89  C   4.0    0.26    3.10    3.02   261.42642   126.48564   249.96776
    90  O   6.0   -0.28    1.17    1.80   261.92702   128.77909   249.99616
    91  O   6.0   -0.28    1.17    1.80   260.98147   125.09900   251.81393
    92  H   1.0    0.12    1.13    1.45   256.88386   126.68804   247.40308
    93  H   1.0    0.06    1.05    1.44   261.31342   128.59786   245.17910
    94  H   1.0    0.07    1.03    1.43   260.37954   123.37166   247.47575
    95  H   1.0    0.05    1.03    1.43   263.37668   124.73663   246.83170
    96  N   5.0   -0.13    3.45    2.04   258.87460   123.59274   242.37212
    97  C   4.0    0.02    4.26    4.11   258.73814   122.16930   240.04748
    98  C   4.0    0.16    3.39    3.08   258.34513   123.90072   237.76917
    99  O   6.0   -0.32    1.29    1.80   259.73487   123.81104   235.91269
   100  H   1.0    0.12    1.11    1.45   257.80429   123.00134   243.85128
   101  H   1.0    0.04    1.02    1.43   260.48174   121.09849   239.73767
   102  H   1.0    0.05    1.03    1.43   257.12522   120.89492   240.18489
   103  N   5.0   -0.14    3.53    2.10   256.38277   125.45020   237.97853
   104  C   4.0    0.03    4.51    4.55   255.76659   127.29681   236.05809
   105  C   4.0    0.16    3.52    3.12   258.14115   128.81494   235.43076
   106  O   6.0   -0.32    1.30    1.80   258.80250   129.17415   233.23568
   107  C   4.0   -0.02    4.33    4.25   253.57961   128.99466   236.95136
   108  C   4.0   -0.05    4.18    3.96   251.09571   127.49775   236.87979
   109  C   4.0   -0.06    4.14    3.89   253.42403   131.38392   235.34426
   110  C   4.0   -0.07    4.01    3.63   248.88491   128.83639   238.15442
   111  H   1.0    0.12    1.13    1.45   255.21468   125.27537   239.50068
   112  H   1.0    0.05    1.05    1.44   255.22439   126.32062   234.30234
   113  H   1.0    0.06    1.06    1.44   254.00881   129.54323   238.89945
   114  H   1.0    0.04    1.03    1.43   250.61176   127.14165   234.90373
   115  H   1.0    0.05    1.03    1.43   251.38271   125.67647   237.80655
   116  H   1.0    0.05    1.00    1.43   251.89341   132.57584   236.00575
   117  H   1.0    0.06    1.01    1.43   255.17283   132.45426   235.48429
   118  H   1.0    0.06    1.00    1.43   253.09822   130.93007   233.36519
   119  H   1.0    0.04    1.00    1.43   247.19252   127.69166   237.95647
   120  H   1.0    0.06    1.00    1.43   249.23344   129.10612   240.16147
   121  H   1.0    0.04    1.00    1.43   248.53080   130.66365   237.29467
   122  N   5.0   -0.13    3.53    2.10   259.41295   129.68273   237.42139
   123  C   4.0    0.04    4.38    4.35   261.64939   131.22705   237.17300
   124  C   4.0    0.17    3.47    3.10   263.80940   129.78934   235.90665
   125  O   6.0   -0.32    1.34    1.80   265.16381   130.82425   234.31560
   126  C   4.0    0.04    4.17    3.93   262.47351   132.13321   239.81214
   127  O   6.0   -0.25    2.04    1.83   264.46173   133.86562   239.73496
   128  H   1.0    0.12    1.12    1.45   258.71456   129.41488   239.18847
   129  H   1.0    0.07    1.05    1.44   261.21646   132.87691   235.97672
   130  H   1.0    0.06    1.01    1.43   260.80978   132.92335   240.76756
   131  H   1.0    0.06    1.02    1.43   263.13869   130.50367   240.89415
   132  H   1.0    0.13    1.02    1.43   263.87481   135.40885   238.94750
   133  N   5.0   -0.14    3.54    2.11   264.15174   127.41926   236.63029
   134  C   4.0    0.04    4.53    4.57   266.02766   125.82483   235.42800
   135  C   4.0    0.16    3.57    3.15   265.48968   125.86929   232.59670
   136  O   6.0   -0.32    1.35    1.80   267.11613   126.44112   231.03849
   137  C   4.0   -0.02    4.34    4.27   265.95921   123.11495   236.47008
   138  C   4.0   -0.04    4.19    3.99   267.02103   123.09170   239.16383
   139  C   4.0   -0.08    4.14    3.88   267.45991   121.35764   234.73743
   140  C   4.0   -0.08    4.01    3.64   266.57970   120.61134   240.55764
   141  H   1.0    0.12    1.13    1.45   263.10583   126.68655   238.06201
   142  H   1.0    0.05    1.05    1.44   267.91835   126.63440   235.71448
   143  H   1.0    0.06    1.06    1.44   263.98024   122.51686   236.50810
   144  H   1.0    0.04    1.03    1.43   269.04246   123.47641   239.08297
   145  H   1.0    0.06    1.03    1.43   266.14379   124.61204   240.24583
   146  H   1.0    0.03    1.00    1.43   267.44442   119.44866   235.48686
   147  H   1.0    0.04    1.01    1.43   266.64784   121.31738   232.85029
   148  H   1.0    0.04    1.00    1.43   269.40713   121.99390   234.58327
   149  H   1.0    0.04    1.00    1.43   267.25960   120.78343   242.48838
   150  H   1.0    0.04    1.00    1.43   264.57265   120.17223   240.62592
   151  H   1.0    0.03    1.00    1.43   267.56884   119.05641   239.65676
   152  N   5.0   -0.14    3.52    2.09   263.15168   125.22303   231.94412
   153  C   4.0    0.04    4.36    4.32   262.39690   125.26183   229.31433
   154  C   4.0    0.17    3.50    3.11   263.16315   127.78021   228.11703
   155  O   6.0   -0.32    1.33    1.80   264.51773   127.81706   226.23788
   156  C   4.0   -0.07    4.11    3.83   259.57674   124.81747   229.03478
   157  H   1.0    0.11    1.10    1.44   261.82658   124.84565   233.27780
   158  H   1.0    0.05    1.05    1.44   263.46726   123.79979   228.29247
   159  H   1.0    0.06    1.00    1.43   259.01177   125.10669   227.07895
   160  H   1.0    0.04    1.00    1.43   259.09185   122.90437   229.59915
   161  H   1.0    0.06    1.01    1.43   258.55070   126.14563   230.21593
   162  N   5.0   -0.13    3.51    2.09   262.30033   129.84496   229.25603
   163  C   4.0    0.04    4.43    4.44   262.55544   132.33806   228.14634
   164  C   4.0    0.16    3.48    3.10   265.31085   133.02761   227.69651
   165  O   6.0   -0.31    1.30    1.80   266.01773   133.98958   225.70678
   166  C   4.0   -0.03    4.31    4.21   261.35934   134.31461   229.87371
   167  C   4.0   -0.02    4.25    4.09   258.48825   134.13493   229.82383
   168  C   4.0    0.16    3.22    3.04   257.24401   135.58134   231.96471
   169  O   6.0   -0.29    1.21    1.80   258.38830   136.29745   233.84389
   170  N   5.0   -0.18    3.19    1.95   254.77792   136.02641   231.57877
   171  H   1.0    0.11    1.12    1.45   261.14623   129.67258   230.77729
   172  H   1.0    0.08    1.07    1.44   261.61469   132.36454   226.29216
   173  H   1.0    0.07    1.03    1.43   262.03780   134.02308   231.80001
   174  H   1.0    0.06    1.03    1.43   261.94787   136.19492   229.26641
   175  H   1.0    0.05    1.03    1.43   257.75840   134.80210   228.01782
   176  H   1.0    0.07    1.04    1.43   257.90800   132.16695   230.04944
   177  H   1.0    0.11    1.06    1.44   253.83826   134.94984   230.30119
   178  H   1.0    0.10    1.03    1.43   253.76876   136.76065   233.01809
   179  N   5.0   -0.14    3.54    2.10   266.85360   132.65151   229.64665
   180  C   4.0    0.04    4.47    4.50   269.50619   133.28703   229.48062
   181  C   4.0    0.16    3.47    3.10   270.77353   131.71119   227.41548
   182  O   6.0   -0.31    1.26    1.80   272.23268   132.66370   225.88623
   183  C   4.0    0.05    4.23    4.06   270.84870   132.91872   232.05492
   184  O   6.0   -0.25    2.12    1.84   270.57708   130.43902   232.96231
   185  C   4.0   -0.07    4.07    3.75   269.91102   134.85683   233.97694
   186  H   1.0    0.12    1.12    1.45   266.16857   131.85683   231.24751
   187  H   1.0    0.05    1.05    1.44   269.69352   135.27057   228.90363
   188  H   1.0    0.05    1.04    1.43   272.87950   133.16582   231.72321
   189  H   1.0    0.15    1.05    1.44   268.83464   130.22372   233.49926
   190  H   1.0    0.05    1.00    1.43   270.98201   134.66678   235.71799
   191  H   1.0    0.04    1.00    1.43   270.13460   136.76180   233.25415
   192  H   1.0    0.06    1.00    1.43   267.92871   134.51511   234.39765
   193  N   5.0   -0.13    3.53    2.10   270.17593   129.26842   227.43176
   194  C   4.0    0.04    4.48    4.50   271.18983   127.56041   225.55460
   195  C   4.0    0.15    3.48    3.11   270.42710   128.44187   222.91322
   196  O   6.0   -0.33    1.30    1.80   271.97133   128.50783   221.18528
   197  C   4.0    0.05    4.23    4.07   270.30001   124.82569   226.07302
   198  O   6.0   -0.27    2.13    1.84   271.02531   124.04476   228.50583
   199  C   4.0   -0.07    4.09    3.79   271.48441   123.00531   224.18156
   200  H   1.0    0.12    1.10    1.44   268.98181   128.57519   228.75601
   201  H   1.0    0.05    1.05    1.44   273.26388   127.61753   225.64030
   202  H   1.0    0.05    1.04    1.43   268.22668   124.80630   225.90108
   203  H   1.0    0.15    1.07    1.44   269.93332   124.85080   229.73498
   204  H   1.0    0.04    1.00    1.43   270.77286   121.11307   224.52919
   205  H   1.0    0.04    1.00    1.43   271.03911   123.57096   222.26237
   206  H   1.0    0.04    1.00    1.43   273.51981   122.99454   224.44296
   207  N   5.0   -0.14    3.53    2.10   268.01316   129.08598   222.63926
   208  C   4.0    0.03    4.41    4.41   267.00607   130.02615   220.28032
   209  C   4.0    0.16    3.49    3.11   268.41521   132.40200   219.45384
   210  O   6.0   -0.30    1.32    1.80   268.98695   132.73441   217.23396
   211  C   4.0   -0.03    4.30    4.19   264.20250   130.69001   220.51278
   212  C   4.0   -0.03    4.17    3.94   262.47236   128.43042   220.95625
   213  C   4.0    0.25    3.13    3.03   260.07638   129.17420   222.47865
   214  O   6.0   -0.31    1.22    1.80   259.69488   131.44854   222.93900
   215  O   6.0   -0.32    1.25    1.80   258.66729   127.39037   223.16097
   216  H   1.0    0.12    1.13    1.45   266.79608   128.95204   224.11135
   217  H   1.0    0.05    1.05    1.44   267.29492   128.59884   218.79853
   218  H   1.0    0.08    1.04    1.43   263.97892   131.99859   222.09414
   219  H   1.0    0.05    1.03    1.43   263.61958   131.69100   218.80706
   220  H   1.0    0.04    1.02    1.43   261.85249   127.56194   219.19222
   221  H   1.0    0.06    1.04    1.43   263.42045   126.98650   222.07546
   222  N   5.0   -0.13    3.44    2.04   268.91423   134.07189   221.26997
   223  C   4.0    0.02    4.27    4.13   270.24919   136.39228   220.70658
   224  C   4.0    0.16    3.38    3.07   272.79420   135.78588   219.48056
   225  O   6.0   -0.29    1.24    1.80   273.46855   136.74317   217.47850
   226  H   1.0    0.12    1.11    1.44   268.10907   133.89323   223.00243
   227  H   1.0    0.06    1.02    1.43   269.16286   137.57715   219.40473
   228  H   1.0    0.05    1.03    1.43   270.56071   137.40810   222.46896
   229  N   5.0   -0.13    3.51    2.08   274.17576   134.12370   220.76503
   230  C   4.0    0.04    4.34    4.28   276.63212   133.28113   219.88198
   231  C   4.0    0.16    3.47    3.10   276.41222   132.11058   217.24649
   232  O   6.0   -0.27    1.24    1.80   277.87291   132.70061   215.53954
   233  C   4.0   -0.07    4.12    3.84   277.71245   131.40425   221.76928
   234  H   1.0    0.11    1.09    1.44   273.55588   133.45433   222.45412
   235  H   1.0    0.06    1.05    1.44   277.88589   134.92538   219.69073
   236  H   1.0    0.04    1.00    1.43   279.55409   130.74743   221.15051
   237  H   1.0    0.05    1.00    1.43   277.92557   132.32911   223.58862
   238  H   1.0    0.06    1.00    1.43   276.43191   129.80864   221.96009
   239  N   5.0   -0.14    3.51    2.09   274.57636   130.41810   216.94708
   240  C   4.0    0.04    4.44    4.45   274.14408   129.24812   214.51295
   241  C   4.0    0.17    3.49    3.11   273.66786   131.24871   212.49634
   242  O   6.0   -0.27    1.23    1.80   274.53110   130.99919   210.35678
   243  C   4.0   -0.04    4.36    4.31   271.88630   127.44835   214.55475
   244  C   4.0   -0.02    4.17    3.94   272.33279   125.00139   216.04249
   245  C   4.0   -0.08    4.11    3.82   269.88021   123.47511   216.08234
   246  C   4.0   -0.08    4.10    3.81   274.44821   123.40810   214.89775
   247  H   1.0    0.11    1.11    1.45   273.44631   129.91403   218.41308
   248  H   1.0    0.06    1.06    1.44   275.85771   128.23764   213.92851
   249  H   1.0    0.06    1.03    1.43   270.28236   128.47141   215.35234
   250  H   1.0    0.05    1.03    1.43   271.42517   126.96828   212.60130
   251  H   1.0    0.05    1.06    1.44   272.83551   125.49634   217.98564
   252  H   1.0    0.03    1.00    1.43   270.10832   121.76547   217.19711
   253  H   1.0    0.04    1.00    1.43   268.34728   124.57146   216.90406
   254  H   1.0    0.04    1.00    1.43   269.33356   122.92752   214.17709
   255  H   1.0    0.04    1.00    1.43   274.50161   121.57447   215.81953
   256  H   1.0    0.04    1.00    1.43   274.11324   123.11650   212.89122
   257  H   1.0    0.04    1.00    1.43   276.28289   124.29565   215.14162
   258  N   5.0   -0.12    3.52    2.09   272.23445   133.19262   213.18105
   259  C   4.0    0.06    4.35    4.29   271.67286   135.23273   211.45191
   260  C   4.0    0.11    3.23    3.04   274.11872   136.55882   210.66521
   261  O   6.0   -0.26    1.11    1.80   274.47610   137.14067   208.43750
   262  C   4.0   -0.03    4.31    4.22   269.84163   137.09982   212.66640
   263  C   4.0    0.17    3.23    3.04   267.21096   135.97519   212.99212
   264  O   6.0   -0.31    1.28    1.80   266.54626   134.01490   211.96627
   265  N   5.0   -0.18    3.18    1.95   265.64881   137.37200   214.40010
   266  H   1.0    0.13    1.12    1.45   271.35240   133.20160   214.88487
   267  H   1.0    0.07    1.05    1.44   270.83739   134.44978   209.71854
   268  H   1.0    0.07    1.04    1.43   270.59769   137.66718   214.49863
   269  H   1.0    0.05    1.03    1.43   269.68883   138.77843   211.47616
   270  H   1.0    0.10    1.03    1.43   263.86981   136.76389   214.71185
   271  H   1.0    0.09    1.03    1.43   266.23075   138.99139   215.20716
   272  N   5.0   -0.20    3.23    1.96   278.17045   126.99650   238.78183
   273  C   4.0    0.03    4.25    4.09   276.10786   127.55107   240.48414
   274  C   4.0    0.08    3.27    3.05   276.90080   126.47363   243.04277
   275  O   6.0   -0.29    1.13    1.80   277.35166   124.21733   243.29473
   276  C   4.0   -0.04    4.32    4.23   273.60307   126.34020   239.64478
   277  C   4.0   -0.02    3.59    3.16   271.57886   126.98447   241.53350
   278  C   4.0   -0.04    3.46    3.10   270.13348   129.15577   241.24869
   279  C   4.0   -0.04    3.48    3.11   271.18632   125.47170   243.64532
   280  C   4.0   -0.03    3.37    3.07   268.33809   129.80902   243.03518
   281  C   4.0   -0.04    3.37    3.07   269.38523   126.11581   245.42801
   282  C   4.0   -0.03    3.37    3.07   267.95680   128.28995   245.13258
   283  H   1.0    0.09    1.02    1.43   278.77791   125.17630   238.71929
   284  H   1.0    0.04    1.05    1.44   275.91177   129.60656   240.56552
   285  H   1.0    0.04    1.03    1.43   273.11697   127.06306   237.77628
   286  H   1.0    0.05    1.03    1.43   273.87592   124.29888   239.54171
   287  H   1.0    0.05    1.03    1.43   270.39692   130.34199   239.60814
   288  H   1.0    0.06    1.03    1.43   272.28404   123.76821   243.88547
   289  H   1.0    0.06    1.03    1.43   267.23706   131.50682   242.78184
   290  H   1.0    0.05    1.03    1.43   269.07895   124.92417   247.05970
   291  H   1.0    0.06    1.03    1.43   266.54943   128.78645   246.53143
   292  N   5.0   -0.21    3.24    1.97   280.79930   120.16495   232.03832
   293  C   4.0    0.03    4.38    4.35   278.54091   119.38238   230.70930
   294  C   4.0    0.14    3.39    3.07   278.96385   118.50842   227.98194
   295  O   6.0   -0.32    1.23    1.80   277.39704   117.15092   226.96377
   296  C   4.0   -0.02    4.27    4.14   276.54601   121.51173   230.77878
   297  C   4.0   -0.08    4.10    3.81   275.54748   121.91593   233.45760
   298  C   4.0   -0.07    4.12    3.84   277.58257   123.97755   229.69995
   299  H   1.0    0.08    1.03    1.43   280.61050   121.72062   233.13861
   300  H   1.0    0.04    1.06    1.44   277.74618   117.70887   231.65575
   301  H   1.0    0.05    1.06    1.44   274.96793   120.90014   229.59215
   302  H   1.0    0.04    1.00    1.43   274.16153   123.42880   233.42063
   303  H   1.0    0.04    1.00    1.43   274.63340   120.21199   234.15008
   304  H   1.0    0.04    1.00    1.43   277.04927   122.43914   234.76006
   305  H   1.0    0.05    1.00    1.43   276.08378   125.37952   229.68958
   306  H   1.0    0.04    1.00    1.43   279.15477   124.69863   230.81083
   307  H   1.0    0.04    1.00    1.43   278.22503   123.70967   227.76847
   308  N   5.0   -0.15    3.44    2.04   281.06227   119.31994   226.81084
   309  C   4.0    0.03    4.32    4.24   281.66063   118.63918   224.23334
   310  C   4.0    0.08    3.21    3.04   283.95787   116.91257   223.99817
   311  O   6.0   -0.28    1.13    1.80   284.87163   116.43367   221.91792
   312  C   4.0   -0.04    4.37    4.33   282.11134   120.98715   222.60520
   313  C   4.0   -0.02    4.18    3.95   279.77886   122.64378   222.19061
   314  C   4.0   -0.08    4.11    3.82   280.56039   124.98422   220.69558
   315  C   4.0   -0.08    4.11    3.81   277.68384   121.22734   220.80790
   316  H   1.0    0.08    1.07    1.44   282.23866   120.54095   227.68754
   317  H   1.0    0.06    1.07    1.44   280.06330   117.53953   223.50201
   318  H   1.0    0.04    1.03    1.43   283.60371   122.08978   223.51620
   319  H   1.0    0.06    1.04    1.43   282.81138   120.33613   220.77747
   320  H   1.0    0.04    1.05    1.44   279.05226   123.24835   224.03126
   321  H   1.0    0.04    1.00    1.43   278.92893   126.16369   220.29948
   322  H   1.0    0.04    1.00    1.43   281.92251   126.09608   221.76180
   323  H   1.0    0.05    1.00    1.43   281.40542   124.42223   218.90974
   324  H   1.0    0.04    1.00    1.43   276.12829   122.49996   220.39064
   325  H   1.0    0.04    1.00    1.43   278.38745   120.44936   219.04337
   326  H   1.0    0.05    1.00    1.43   276.95334   119.67933   221.94400
   327  N   5.0   -0.19    3.26    1.97   265.61786   105.77155   236.27065
   328  C   4.0    0.03    4.22    4.04   265.04145   106.65034   238.80384
   329  C   4.0    0.08    3.22    3.04   262.29445   105.94844   239.39541
   330  O   6.0   -0.30    1.16    1.80   260.56368   106.82150   238.12330
   331  C   4.0   -0.04    4.37    4.32   265.29842   109.52561   238.96156
   332  C   4.0   -0.03    4.17    3.93   268.01213   110.52525   239.08579
   333  C   4.0   -0.08    4.12    3.85   269.59359   109.68515   236.82446
   334  C   4.0   -0.08    4.11    3.82   267.93891   113.40949   239.21656
   335  H   1.0    0.12    1.07    1.44   265.32948   107.00897   234.83509
   336  H   1.0    0.03    1.05    1.44   266.31289   105.67700   240.11289
   337  H   1.0    0.05    1.03    1.43   264.33334   110.31429   237.31609
   338  H   1.0    0.04    1.03    1.43   264.27644   110.14618   240.64235
   339  H   1.0    0.04    1.05    1.44   268.89063   109.79497   240.80911
   340  H   1.0    0.04    1.00    1.43   271.42895   110.60511   236.88226
   341  H   1.0    0.04    1.01    1.43   269.87155   107.64982   236.83080
   342  H   1.0    0.05    1.00    1.43   268.66571   110.19124   235.05902
   343  H   1.0    0.04    1.00    1.43   269.84138   114.15924   239.39258
   344  H   1.0    0.03    1.00    1.43   267.09451   114.15968   237.49847
   345  H   1.0    0.03    1.00    1.43   266.83004   114.03370   240.82739
   346  N   5.0   -0.20    3.22    1.96   257.09754   107.24349   243.40174
   347  C   4.0    0.03    4.31    4.21   256.30325   109.22927   245.12308
   348  C   4.0    0.08    3.24    3.04   253.72535   108.55167   246.25273
   349  O   6.0   -0.31    1.14    1.80   251.74077   108.76452   245.08240
   350  C   4.0   -0.02    4.33    4.26   256.12869   111.80897   243.80515
   351  C   4.0   -0.05    4.18    3.96   258.58707   112.50898   242.44112
   352  C   4.0   -0.07    4.13    3.86   255.34613   113.81369   245.73415
   353  C   4.0   -0.08    4.02    3.65   260.86398   112.89918   244.16206
   354  H   1.0    0.10    1.02    1.43   256.48342   107.36771   241.59174
   355  H   1.0    0.03    1.05    1.44   257.70480   109.27824   246.64598
   356  H   1.0    0.05    1.06    1.44   254.65183   111.63495   242.36796
   357  H   1.0    0.05    1.03    1.43   259.01276   111.03930   241.05395
   358  H   1.0    0.03    1.03    1.43   258.24760   114.25433   241.39669
   359  H   1.0    0.04    1.00    1.43   255.35427   115.67364   244.86176
   360  H   1.0    0.05    1.00    1.43   253.45975   113.42597   246.44986
   361  H   1.0    0.04    1.00    1.43   256.64506   113.82980   247.32511
   362  H   1.0    0.03    1.00    1.43   262.48954   113.43781   243.02700
   363  H   1.0    0.04    1.00    1.43   260.51240   114.40168   245.51470
   364  H   1.0    0.04    1.00    1.43   261.33465   111.17359   245.17512
   365  N   5.0   -0.21    3.20    1.96   247.50627   109.23763   249.25251
   366  C   4.0    0.03    4.30    4.19   245.63318   111.21762   249.28165
   367  C   4.0    0.08    3.21    3.04   243.29717   110.58873   250.86699
   368  O   6.0   -0.29    1.12    1.80   242.03385   112.28658   251.78834
   369  C   4.0   -0.02    4.26    4.11   244.76269   112.02275   246.60875
   370  C   4.0   -0.08    4.11    3.83   246.99090   113.07368   245.11488
   371  C   4.0   -0.07    4.11    3.82   243.49734   109.87352   245.16019
   372  H   1.0    0.09    1.02    1.43   247.00921   107.55936   248.48035
   373  H   1.0    0.05    1.06    1.44   246.53368   112.85697   250.17418
   374  H   1.0    0.05    1.06    1.44   243.37032   113.52551   246.90439
   375  H   1.0    0.04    1.00    1.43   246.35577   113.66481   243.25588
   376  H   1.0    0.04    1.00    1.43   247.82048   114.68028   246.09123
   377  H   1.0    0.06    1.01    1.43   248.43696   111.63050   244.88178
   378  H   1.0    0.04    1.00    1.43   242.80729   110.57052   243.35596
   379  H   1.0    0.05    1.00    1.43   244.82608   108.35172   244.78062
   380  H   1.0    0.05    1.00    1.43   241.90851   109.10311   246.21037
   381  N   5.0   -0.19    3.26    1.97   259.10518   109.42400   233.28946
   382  C   4.0    0.03    4.31    4.22   260.44476   111.14001   231.64396
   383  C   4.0    0.08    3.24    3.04   262.75540   109.79162   230.59571
   384  O   6.0   -0.31    1.19    1.80   264.23087   108.69505   232.01642
   385  C   4.0   -0.02    4.34    4.27   261.35256   113.54000   233.04648
   386  C   4.0   -0.05    4.21    4.03   259.34574   114.43440   234.92961
   387  C   4.0   -0.08    4.12    3.83   262.03424   115.56073   231.10326
   388  C   4.0   -0.08    4.02    3.66   260.16228   116.76934   236.40280
   389  H   1.0    0.12    1.04    1.43   260.08718   108.58546   234.70441
   390  H   1.0    0.03    1.05    1.44   259.12834   111.62470   230.12510
   391  H   1.0    0.04    1.06    1.44   263.05956   113.01850   234.09805
   392  H   1.0    0.03    1.03    1.43   257.59005   114.79777   233.91203
   393  H   1.0    0.04    1.04    1.43   258.96648   112.89637   236.25219
   394  H   1.0    0.04    1.00    1.43   262.90708   117.17476   232.01811
   395  H   1.0    0.03    1.00    1.43   263.35792   114.81257   229.71855
   396  H   1.0    0.03    1.00    1.43   260.34632   116.18281   230.10949
   397  H   1.0    0.03    1.00    1.43   258.79882   117.12712   237.89185
   398  H   1.0    0.03    1.00    1.43   262.00589   116.45443   237.25200
   399  H   1.0    0.04    1.00    1.43   260.25635   118.42114   235.18933
   400  N   5.0   -0.19    3.27    1.97   269.46892   110.21911   226.45958
   401  C   4.0    0.03    4.23    4.06   271.61912   111.75704   225.76022
   402  C   4.0    0.08    3.21    3.04   273.36960   110.12208   224.14555
   403  O   6.0   -0.27    1.15    1.80   273.26006   107.80649   224.26823
   404  C   4.0   -0.05    4.34    4.28   273.00026   112.67747   228.14076
   405  C   4.0   -0.02    4.20    4.00   271.22957   113.95845   230.04883
   406  C   4.0   -0.08    4.11    3.81   272.70715   114.61093   232.43719
   407  C   4.0   -0.08    4.11    3.82   270.03898   116.34485   228.94857
   408  H   1.0    0.10    1.03    1.43   269.86240   108.58289   227.37600
   409  H   1.0    0.04    1.05    1.44   270.90394   113.34520   224.64926
   410  H   1.0    0.05    1.03    1.43   273.90063   111.04018   229.02373
   411  H   1.0    0.06    1.03    1.43   274.48784   113.99120   227.58323
   412  H   1.0    0.04    1.06    1.44   269.71792   112.62377   230.53565
   413  H   1.0    0.03    1.00    1.43   271.44861   115.37972   233.86496
   414  H   1.0    0.04    1.00    1.43   273.63645   112.94180   233.19184
   415  H   1.0    0.04    1.00    1.43   274.13660   116.01142   231.98229
   416  H   1.0    0.04    1.00    1.43   268.97632   117.33968   230.39654
   417  H   1.0    0.05    1.00    1.43   271.49898   117.60206   228.23432
   418  H   1.0    0.03    1.00    1.43   268.74795   115.88462   227.41817
   419  N   5.0   -0.21    3.19    1.95   263.73912   119.76507   212.57858
   420  C   4.0    0.02    4.22    4.04   262.45570   122.02327   213.44972
   421  C   4.0    0.07    3.24    3.04   259.63797   121.43491   213.79875
   422  O   6.0   -0.32    1.16    1.80   258.49155   122.03665   215.72294
   423  C   4.0   -0.05    4.24    4.07   262.75658   124.22709   211.59336
   424  C   4.0   -0.05    4.19    3.97   261.52854   126.61605   212.68942
   425  C   4.0   -0.01    4.17    3.94   260.83507   128.62997   210.72544
   426  N   5.0   -0.14    3.40    2.02   262.99994   130.05728   209.85606
   427  C   4.0    0.10    3.34    3.06   264.09264   130.00787   207.59108
   428  N   5.0   -0.18    3.23    1.96   263.15049   128.72395   205.64072
   429  N   5.0   -0.17    3.26    1.97   266.14921   131.41754   207.26216
   430  H   1.0    0.08    1.02    1.43   264.94888   119.89203   211.09644
   431  H   1.0    0.04    1.05    1.44   263.18371   122.55842   215.32106
   432  H   1.0    0.04    1.02    1.43   264.76485   124.52791   211.23942
   433  H   1.0    0.04    1.03    1.43   261.84985   123.68781   209.82132
   434  H   1.0    0.05    1.04    1.43   259.78969   126.07086   213.65242
   435  H   1.0    0.04    1.03    1.43   262.77883   127.44539   214.10306
   436  H   1.0    0.04    1.03    1.43   259.87128   127.73492   209.14189
   437  H   1.0    0.04    1.03    1.43   259.51652   129.95817   211.59716
   438  H   1.0    0.10    1.09    1.44   263.86266   131.16291   211.16752
   439  H   1.0    0.08    1.04    1.43   261.66624   127.57056   205.93524
   440  H   1.0    0.08    1.02    1.43   264.36962   128.13451   204.25079
   441  H   1.0    0.12    1.07    1.44   266.75777   132.50202   208.72095
   442  H   1.0    0.09    1.03    1.43   266.93403   131.59058   205.53239
   443  N   5.0   -0.20    3.26    1.97   257.88176   118.25942   219.90298
   444  C   4.0    0.03    4.33    4.25   258.15558   119.90545   222.07208
   445  C   4.0    0.15    3.43    3.09   255.85938   121.65632   222.27254
   446  O   6.0   -0.32    1.27    1.80   254.76502   122.00190   224.28812
   447  C   4.0   -0.04    4.36    4.30   260.60427   121.40322   221.85188
   448  C   4.0   -0.03    4.18    3.97   262.97377   119.73657   221.96806
   449  C   4.0   -0.08    4.11    3.82   265.29071   121.32185   221.31010
   450  C   4.0   -0.08    4.10    3.81   263.31739   118.51562   224.55742
   451  H   1.0    0.09    1.03    1.43   259.15365   118.40785   218.48417
   452  H   1.0    0.04    1.05    1.44   258.15005   118.74798   223.79417
   453  H   1.0    0.06    1.03    1.43   260.55274   122.40665   220.04941
   454  H   1.0    0.05    1.03    1.43   260.65218   122.82413   223.34618
   455  H   1.0    0.04    1.05    1.44   262.79124   118.22691   220.55986
   456  H   1.0    0.03    1.00    1.43   266.98378   120.16494   221.38671
   457  H   1.0    0.04    1.00    1.43   265.10949   122.10191   219.41969
   458  H   1.0    0.04    1.00    1.43   265.48987   122.87582   222.64089
   459  H   1.0    0.03    1.00    1.43   264.93842   117.25377   224.54302
   460  H   1.0    0.04    1.00    1.43   263.59549   119.95415   225.99877
   461  H   1.0    0.03    1.00    1.43   261.68273   117.38524   225.07824
   462  N   5.0   -0.14    3.49    2.07   255.08806   122.66697   220.10423
   463  C   4.0    0.04    4.25    4.10   252.85788   124.26245   220.01809
   464  C   4.0    0.09    3.26    3.05   250.59544   122.74881   221.00507
   465  O   6.0   -0.28    1.12    1.80   249.20529   123.52052   222.68843
   466  C   4.0   -0.07    4.10    3.80   252.40067   125.17090   217.32982
   467  H   1.0    0.11    1.10    1.44   256.11116   122.42124   218.50627
   468  H   1.0    0.06    1.05    1.44   253.13266   125.86765   221.30636
   469  H   1.0    0.05    1.00    1.43   250.68577   126.29439   217.26138
   470  H   1.0    0.05    1.00    1.43   253.98890   126.32411   216.72888
   471  H   1.0    0.05    1.00    1.43   252.22259   123.55572   216.07167
   472  N   5.0   -0.19    3.24    1.97   250.34620   117.94230   224.50135
   473  C   4.0    0.03    4.40    4.38   250.65758   117.57614   227.19603
   474  C   4.0    0.15    3.49    3.11   249.53619   119.81706   228.62784
   475  O   6.0   -0.31    1.31    1.80   248.00516   119.48454   230.33586
   476  C   4.0   -0.02    4.28    4.15   253.45839   117.21280   227.86222
   477  C   4.0   -0.07    4.14    3.89   253.91246   117.60258   230.68035
   478  C   4.0   -0.08    4.11    3.81   254.36202   114.58932   227.06984
   479  H   1.0    0.09    1.03    1.43   251.90383   117.76920   223.40269
   480  H   1.0    0.05    1.05    1.44   249.58660   115.90106   227.79788
   481  H   1.0    0.06    1.07    1.44   254.52594   118.64258   226.81660
   482  H   1.0    0.03    1.00    1.43   255.89579   117.27613   231.10170
   483  H   1.0    0.05    1.01    1.43   253.44780   119.52050   231.24383
   484  H   1.0    0.05    1.00    1.43   252.78601   116.28798   231.78868
   485  H   1.0    0.03    1.00    1.43   256.40130   114.44517   227.30713
   486  H   1.0    0.04    1.00    1.43   253.51161   113.11965   228.22885
   487  H   1.0    0.04    1.00    1.43   253.94877   114.22385   225.09254
   488  N   5.0   -0.14    3.47    2.06   250.33410   122.10028   227.93598
   489  C   4.0    0.04    4.33    4.26   249.37560   124.32654   229.21641
   490  C   4.0    0.11    3.28    3.05   246.48442   124.23315   229.29883
   491  O   6.0   -0.30    1.18    1.80   245.32478   124.46314   231.29299
   492  C   4.0   -0.03    4.28    4.16   250.22171   126.76479   227.94049
   493  C   4.0   -0.03    4.22    4.05   253.07041   127.20420   228.16750
   494  C   4.0    0.15    3.23    3.04   253.66277   129.93670   227.51403
   495  O   6.0   -0.31    1.24    1.80   252.79306   131.68375   228.77670
   496  N   5.0   -0.17    3.21    1.96   255.07310   130.28935   225.46988
   497  H   1.0    0.11    1.08    1.44   251.60178   122.31560   226.52133
   498  H   1.0    0.05    1.05    1.44   250.03468   124.29708   231.18989
   499  H   1.0    0.07    1.03    1.43   249.68474   126.70962   225.95122
   500  H   1.0    0.06    1.03    1.43   249.23195   128.34322   228.83103
   501  H   1.0    0.04    1.03    1.43   253.66556   126.89060   230.12061
   502  H   1.0    0.06    1.03    1.43   254.12618   125.93134   226.94334
   503  H   1.0    0.13    1.09    1.44   256.16408   128.89228   224.66382
   504  H   1.0    0.11    1.03    1.43   255.64931   132.05170   225.01628
   505  N   5.0   -0.19    3.24    1.96   243.87147   119.61584   233.79391
   506  C   4.0    0.03    4.32    4.23   243.95639   120.59069   236.35074
   507  C   4.0    0.15    3.46    3.10   241.77454   122.44043   236.77424
   508  O   6.0   -0.32    1.31    1.80   240.49017   122.34899   238.69773
   509  C   4.0   -0.03    4.33    4.25   246.44287   121.94946   236.94212
   510  C   4.0   -0.01    3.54    3.13   248.60551   120.21914   237.59625
   511  C   4.0   -0.03    3.47    3.10   250.87279   120.37084   236.28999
   512  C   4.0   -0.04    3.47    3.10   248.42572   118.53838   239.60766
   513  C   4.0   -0.04    3.38    3.07   252.91229   118.87543   236.95869
   514  C   4.0   -0.04    3.38    3.07   250.45195   117.02536   240.26953
   515  C   4.0   -0.04    3.37    3.07   252.70001   117.18438   238.94067
   516  H   1.0    0.13    1.06    1.44   245.32474   119.99383   232.60254
   517  H   1.0    0.05    1.05    1.44   243.65178   119.01774   237.66768
   518  H   1.0    0.06    1.04    1.43   246.93348   123.12836   235.32453
   519  H   1.0    0.04    1.04    1.43   246.10148   123.18458   238.56455
   520  H   1.0    0.05    1.03    1.43   251.05209   121.67329   234.72880
   521  H   1.0    0.05    1.03    1.43   246.69182   118.42346   240.67741
   522  H   1.0    0.05    1.03    1.43   254.66810   119.03351   235.93064
   523  H   1.0    0.05    1.03    1.43   250.29766   115.72199   241.83094
   524  H   1.0    0.04    1.03    1.43   254.27148   115.97863   239.43757
   525  N   5.0   -0.14    3.47    2.06   241.39740   124.15894   234.96687
   526  C   4.0    0.04    4.33    4.26   239.32011   125.93140   235.20619
   527  C   4.0    0.09    3.27    3.05   236.85575   124.47901   235.69356
   528  O   6.0   -0.29    1.11    1.80   235.31970   125.20414   237.27560
   529  C   4.0   -0.03    4.30    4.19   238.98553   127.51568   232.81307
   530  C   4.0    0.16    3.21    3.04   241.24551   129.17987   232.14053
   531  O   6.0   -0.27    1.20    1.80   242.21241   129.11155   230.04928
   532  N   5.0   -0.19    3.19    1.95   242.01722   130.76305   233.95860
   533  H   1.0    0.12    1.10    1.44   242.57762   124.28682   233.45657
   534  H   1.0    0.05    1.05    1.44   239.62786   127.13309   236.87111
   535  H   1.0    0.06    1.03    1.43   238.65291   126.25918   231.21186
   536  H   1.0    0.05    1.03    1.43   237.33730   128.73402   233.04938
   537  H   1.0    0.10    1.03    1.43   243.48767   131.91917   233.60117
   538  H   1.0    0.08    1.03    1.43   241.14129   130.87492   235.64141
   539  N   5.0   -0.19    3.22    1.96   236.58725   121.69390   242.33599
   540  C   4.0    0.04    4.30    4.20   236.04559   123.72715   244.08938
   541  C   4.0    0.09    3.25    3.04   233.22690   124.33608   244.04195
   542  O   6.0   -0.28    1.11    1.80   231.99139   124.56907   245.98490
   543  C   4.0   -0.02    4.33    4.25   237.62538   126.08540   243.44928
   544  C   4.0   -0.04    4.18    3.96   240.41727   125.62894   244.09874
   545  C   4.0   -0.07    4.14    3.88   236.59924   128.37636   244.87633
   546  C   4.0   -0.07    4.01    3.64   242.17734   127.48739   242.77508
   547  H   1.0    0.12    1.07    1.44   237.95260   121.99470   241.02132
   548  H   1.0    0.05    1.05    1.44   236.47374   123.10627   246.02493
   549  H   1.0    0.06    1.06    1.44   237.43948   126.41971   241.41604
   550  H   1.0    0.04    1.03    1.43   240.65326   125.77877   246.14147
   551  H   1.0    0.05    1.03    1.43   240.94742   123.71846   243.53822
   552  H   1.0    0.04    1.00    1.43   237.81998   130.00260   244.60447
   553  H   1.0    0.06    1.00    1.43   234.71480   128.87884   244.22818
   554  H   1.0    0.05    1.00    1.43   236.48939   127.97392   246.88964
   555  H   1.0    0.06    1.00    1.43   244.10693   127.26290   243.44257
   556  H   1.0    0.05    1.00    1.43   242.14510   127.16291   240.74618
   557  H   1.0    0.05    1.00    1.43   241.62139   129.43004   243.13574
   558  H   1.0    0.10    1.07    1.44   250.34270   119.73566   258.93395
   559  H   1.0    0.08    1.04    1.43   275.43609   136.95736   211.96012
   560  H   1.0    0.09    1.08    1.44   277.71212   127.38203   237.19002
   561  H   1.0    0.06    1.04    1.44   277.05786   127.61476   244.54084
   562  H   1.0    0.09    1.07    1.44   281.31688   118.91170   233.06498
   563  H   1.0    0.06    1.05    1.44   284.73518   116.15800   225.54655
   564  H   1.0    0.09    1.08    1.44   267.26045   105.34013   236.17943
   565  H   1.0    0.05    1.04    1.43   261.90597   104.77382   240.82384
   566  H   1.0    0.09    1.07    1.44   258.79554   107.21885   243.30821
   567  H   1.0    0.05    1.05    1.44   253.61104   107.90206   248.02360
   568  H   1.0    0.11    1.08    1.44   248.86371   109.75326   248.36704
   569  H   1.0    0.06    1.04    1.44   242.80402   108.78645   251.14924
   570  H   1.0    0.09    1.09    1.44   257.83702   110.25256   234.06264
   571  H   1.0    0.05    1.04    1.44   263.08615   109.79137   228.73516
   572  H   1.0    0.09    1.08    1.44   268.45106   111.10392   227.49574
   573  H   1.0    0.06    1.04    1.43   274.61418   110.93644   222.97984
   574  H   1.0    0.09    1.07    1.44   264.68156   119.12483   213.84130
   575  H   1.0    0.05    1.05    1.44   258.68438   120.53714   212.43650
   576  H   1.0    0.09    1.07    1.44   257.97707   116.63741   220.40554
   577  H   1.0    0.06    1.05    1.44   250.20070   121.05277   220.27110
   578  H   1.0    0.09    1.07    1.44   249.24007   116.80030   223.89730
   579  H   1.0    0.07    1.05    1.44   245.50141   123.98019   227.70485
   580  H   1.0    0.10    1.07    1.44   243.78877   117.91762   233.83626
   581  H   1.0    0.06    1.04    1.44   236.47489   122.90868   234.71372
   582  H   1.0    0.10    1.07    1.44   237.09263   120.31880   243.19986
   583  H   1.0    0.07    1.05    1.44   232.33561   124.55690   242.39031

  Z AO/shell   Hii/eV     exponent
  1     Wed Apr 25 08:07:45 CEST 2018   EN: 2.200 GM2: 0.406  GM3: 0.0800  RAES: 1.40
     1s    -10.707211    1.230000
  6     Wed Apr 25 08:07:45 CEST 2018   EN: 2.550 GM2: 0.538  GM3: 0.1500  RAES: 3.00
     2s    -13.970922    2.096432
     2p    -10.063292    1.800000
  7     Wed Apr 25 08:07:45 CEST 2018   EN: 3.040 GM2: 0.461  GM3:-0.0640  RAES: 1.90
     2s    -16.686243    2.339881
     2p    -12.523956    2.014332
  8     Wed Apr 25 08:07:45 CEST 2018   EN: 3.440 GM2: 0.452  GM3:-0.0517  RAES: 1.80
     2s    -20.229985    2.439742
     2p    -15.503117    2.137023
 no old-style atom pair restraining (fixing) potential

molecular fragmentation (1/2 indicates fragments):
111111111111111111111111111111111111111111111111111111111111111111111111
111111111111111111111111111111111111111111111111111111111111111111111111
111111111111111111111111111111111111111111111111111111111111111111111111
111111111111111111111111111111111111111111111111111111122222222222222222
222222222222222222222222222222222222222222222222222222222222222222222222
222222222222222222222222222222222222222222222222222222222222222222222222
222222222222222222222222222222222222222222222222222222222222222222222222
222222222222222222222222222222222222222222222222222221122222222222222222
2222222
# atoms in fragment 1/2:   273   310
 fragment masses (1/2) :     1986.10     1878.56
CMA distance (Bohr)    :   9.781
constraining FC (au)   :  0.0500
           ------------------------------------------------- 
          |        Self-Consistent Charge Iterations        |
           ------------------------------------------------- 

 Ncao       : 1396
 Nao        : 1396
 Nshell     : 854
 Nel        : 1544
 T(el)      :   500.0
 intcut     :    35.0
 scfconv/Eh :  0.100E-06
   qconv/e  :  0.100E-04
 intneglect :  0.100E-08
 broydamp   :      0.400
 iter      E             dE          RMSdq      gap      omega  full diag
   1   -882.1823166 -0.882182E+03  0.454E+00    2.98       0.0  T
   2   -884.2815270 -0.209921E+01  0.211E+00    1.65       1.0  T
   3   -884.4159658 -0.134439E+00  0.123E+00    1.94       1.0  T
   4   -884.5604919 -0.144526E+00  0.234E-01    1.45       1.0  T
   5   -884.5675946 -0.710268E-02  0.113E-01    1.58       1.0  T
   6   -884.5688672 -0.127267E-02  0.479E-02    1.54       1.0  T
   7   -884.5692116 -0.344334E-03  0.212E-02    1.52       1.0  T
   8   -884.5692594 -0.477881E-04  0.108E-02    1.51       1.0  T
   9   -884.5692803 -0.209129E-04  0.521E-03    1.50       1.0  T
  10   -884.5692843 -0.398319E-05  0.237E-03    1.50       1.8  T
  11   -884.5692851 -0.810100E-06  0.119E-03    1.50       3.5  T
  12   -884.5692853 -0.193088E-06  0.554E-04    1.49       7.5  T
  13   -884.5692853 -0.641403E-07  0.274E-04    1.49      15.1  T
  14   -884.5692853 -0.891691E-08  0.125E-04    1.49      33.1  T
  15   -884.5692853 -0.275077E-08  0.449E-05    1.49      92.2  T
  16   -884.5692853 -0.233172E-09  0.197E-05    1.49     210.5  T
speedup 15.78
cpu  time for SCC    1 m 14.0 s
wall time for SCC    0 m  4.7 s

   *** convergence criteria satisfied after 16 iterations ***

          eigenvalues
 #    :         760        761        762        763        764        765        766        767
 occ. :        2.000      2.000      2.000      2.000      2.000      2.000      2.000      2.000
 eps  :       -10.249    -10.162    -10.132    -10.059    -10.033    -10.012     -9.986     -9.972
 #    :         768        769        770        771        772        773        774        775
 occ. :        2.000      2.000      2.000      2.000      2.000      0.000      0.000      0.000
 eps  :        -9.965     -9.960     -9.767     -9.639     -9.540     -8.047     -7.998     -7.950
 #    :         776        777        778        779        780        781        782        783
 occ. :        0.000      0.000      0.000      0.000      0.000      0.000      0.000      0.000
 eps  :        -7.936     -7.922     -7.858     -7.814     -7.773     -7.764     -7.745     -7.686


   #   Z            q   n(s)   n(p)   n(d)      C6AA      α(0)
   1   7 N     -0.392  1.311  4.081  0.000    30.139     8.154
   2   6 C      0.028  1.054  2.917  0.000    20.118     6.389
   3   6 C      0.264  1.050  2.685  0.000    22.539     7.774
   4   8 O     -0.495  1.745  4.751  0.000    23.684     6.525
   5   6 C     -0.123  1.043  3.080  0.000    22.905     6.824
   6   1 H      0.179  0.821  0.000  0.000     1.220     1.730
   7   1 H      0.035  0.965  0.000  0.000     2.516     2.481
   8   1 H      0.046  0.954  0.000  0.000     2.367     2.406
   9   1 H      0.072  0.928  0.000  0.000     2.068     2.249
  10   1 H      0.058  0.942  0.000  0.000     2.219     2.329
  11   7 N     -0.176  1.246  3.930  0.000    24.807     7.397
  12   6 C      0.010  1.062  2.929  0.000    20.419     6.434
  13   6 C      0.281  1.039  2.681  0.000    22.252     7.725
  14   8 O     -0.485  1.749  4.736  0.000    23.460     6.494
  15   6 C      0.061  1.044  2.896  0.000    19.773     6.370
  16   8 O     -0.485  1.730  4.755  0.000    22.567     6.413
  17   1 H      0.241  0.759  0.000  0.000     0.918     1.501
  18   1 H      0.085  0.915  0.000  0.000     1.930     2.172
  19   1 H      0.064  0.936  0.000  0.000     2.154     2.295
  20   1 H      0.067  0.933  0.000  0.000     2.122     2.278
  21   1 H      0.360  0.640  0.000  0.000     0.565     1.181
  22   7 N     -0.174  1.242  3.932  0.000    24.763     7.391
  23   6 C      0.014  1.064  2.922  0.000    20.332     6.420
  24   6 C      0.288  1.039  2.673  0.000    22.112     7.701
  25   8 O     -0.498  1.752  4.746  0.000    23.740     6.533
  26   6 C     -0.080  1.053  3.027  0.000    22.031     6.682
  27   6 C     -0.090  1.056  3.034  0.000    22.219     6.711
  28   6 C     -0.027  1.052  2.975  0.000    21.139     6.560
  29   7 N     -0.140  1.207  3.932  0.000    24.029     7.280
  30   6 C      0.233  1.017  2.750  0.000    23.121     7.873
  31   7 N     -0.247  1.227  4.020  0.000    26.438     7.636
  32   7 N     -0.256  1.231  4.024  0.000    26.641     7.666
  33   1 H      0.238  0.762  0.000  0.000     0.931     1.512
  34   1 H      0.079  0.921  0.000  0.000     1.985     2.203
  35   1 H      0.069  0.931  0.000  0.000     2.094     2.263
  36   1 H      0.061  0.939  0.000  0.000     2.184     2.311
  37   1 H      0.082  0.918  0.000  0.000     1.956     2.187
  38   1 H      0.087  0.913  0.000  0.000     1.913     2.163
  39   1 H      0.087  0.913  0.000  0.000     1.905     2.158
  40   1 H      0.081  0.919  0.000  0.000     1.966     2.193
  41   1 H      0.240  0.760  0.000  0.000     0.922     1.504
  42   1 H      0.240  0.760  0.000  0.000     0.925     1.507
  43   1 H      0.254  0.746  0.000  0.000     0.869     1.460
  44   1 H      0.254  0.746  0.000  0.000     0.867     1.459
  45   1 H      0.256  0.744  0.000  0.000     0.861     1.454
  46   7 N     -0.173  1.245  3.929  0.000    24.754     7.389
  47   6 C      0.037  1.052  2.910  0.000    19.949     6.360
  48   6 C      0.276  1.042  2.682  0.000    22.335     7.739
  49   8 O     -0.519  1.748  4.771  0.000    24.211     6.597
  50   6 C     -0.116  1.063  3.053  0.000    22.703     6.781
  51   6 C      0.289  1.033  2.678  0.000    22.104     7.698
  52   8 O     -0.480  1.749  4.731  0.000    23.340     6.477
  53   7 N     -0.292  1.267  4.026  0.000    27.539     7.794
  54   1 H      0.216  0.784  0.000  0.000     1.028     1.588
  55   1 H      0.071  0.929  0.000  0.000     2.078     2.254
  56   1 H      0.102  0.898  0.000  0.000     1.768     2.079
  57   1 H      0.076  0.924  0.000  0.000     2.019     2.222
  58   1 H      0.247  0.753  0.000  0.000     0.895     1.482
  59   1 H      0.230  0.770  0.000  0.000     0.965     1.539
  60   7 N     -0.190  1.255  3.934  0.000    25.110     7.442
  61   6 C      0.030  1.056  2.914  0.000    20.079     6.380
  62   6 C      0.277  1.040  2.683  0.000    22.321     7.737
  63   8 O     -0.502  1.738  4.764  0.000    23.832     6.545
  64   6 C     -0.129  1.042  3.088  0.000    23.037     6.843
  65   1 H      0.253  0.747  0.000  0.000     0.874     1.464
  66   1 H      0.065  0.935  0.000  0.000     2.147     2.292
  67   1 H      0.066  0.934  0.000  0.000     2.130     2.283
  68   1 H      0.083  0.917  0.000  0.000     1.952     2.185
  69   1 H      0.072  0.928  0.000  0.000     2.059     2.244
  70   7 N     -0.182  1.248  3.935  0.000    24.947     7.418
  71   6 C      0.038  1.053  2.909  0.000    19.930     6.356
  72   6 C      0.272  1.044  2.684  0.000    22.407     7.752
  73   8 O     -0.517  1.741  4.776  0.000    24.157     6.590
  74   6 C     -0.110  1.063  3.047  0.000    22.587     6.765
  75   6 C      0.294  1.033  2.673  0.000    22.007     7.681
  76   8 O     -0.475  1.744  4.731  0.000    23.237     6.463
  77   7 N     -0.277  1.262  4.015  0.000    27.169     7.741
  78   1 H      0.242  0.758  0.000  0.000     0.915     1.499
  79   1 H      0.076  0.924  0.000  0.000     2.018     2.222
  80   1 H      0.076  0.924  0.000  0.000     2.022     2.224
  81   1 H      0.082  0.918  0.000  0.000     1.957     2.188
  82   1 H      0.247  0.753  0.000  0.000     0.894     1.481
  83   1 H      0.225  0.775  0.000  0.000     0.988     1.557
  84   7 N     -0.194  1.258  3.936  0.000    25.207     7.457
  85   6 C      0.053  1.050  2.897  0.000    19.693     6.318
  86   6 C      0.277  1.044  2.679  0.000    22.312     7.736
  87   8 O     -0.497  1.731  4.766  0.000    23.729     6.531
  88   6 C     -0.099  1.070  3.029  0.000    22.389     6.737
  89   6 C      0.378  1.020  2.602  0.000    20.596     7.427
  90   8 O     -0.630  1.769  4.862  0.000    26.879     6.951
  91   8 O     -0.624  1.762  4.862  0.000    26.708     6.929
  92   1 H      0.237  0.763  0.000  0.000     0.936     1.515
  93   1 H      0.049  0.951  0.000  0.000     2.338     2.391
  94   1 H      0.042  0.958  0.000  0.000     2.421     2.433
  95   1 H      0.024  0.976  0.000  0.000     2.673     2.557
  96   7 N     -0.183  1.246  3.937  0.000    24.962     7.420
  97   6 C     -0.018  1.048  2.969  0.000    20.961     6.530
  98   6 C      0.281  1.038  2.681  0.000    22.248     7.724
  99   8 O     -0.497  1.731  4.765  0.000    23.713     6.529
 100   1 H      0.226  0.774  0.000  0.000     0.981     1.551
 101   1 H      0.082  0.918  0.000  0.000     1.961     2.190
 102   1 H      0.087  0.913  0.000  0.000     1.911     2.162
 103   7 N     -0.196  1.259  3.937  0.000    25.256     7.464
 104   6 C      0.034  1.062  2.904  0.000    20.002     6.367
 105   6 C      0.289  1.040  2.671  0.000    22.109     7.700
 106   8 O     -0.501  1.733  4.769  0.000    23.816     6.543
 107   6 C     -0.023  1.066  2.957  0.000    20.940     6.508
 108   6 C     -0.062  1.050  3.012  0.000    21.686     6.630
 109   6 C     -0.118  1.038  3.080  0.000    22.811     6.810
 110   6 C     -0.113  1.037  3.076  0.000    22.725     6.798
 111   1 H      0.239  0.761  0.000  0.000     0.929     1.510
 112   1 H      0.051  0.949  0.000  0.000     2.309     2.376
 113   1 H      0.046  0.954  0.000  0.000     2.374     2.410
 114   1 H      0.036  0.964  0.000  0.000     2.505     2.475
 115   1 H      0.042  0.958  0.000  0.000     2.426     2.436
 116   1 H      0.068  0.932  0.000  0.000     2.107     2.270
 117   1 H      0.023  0.977  0.000  0.000     2.686     2.563
 118   1 H      0.056  0.944  0.000  0.000     2.251     2.346
 119   1 H      0.050  0.950  0.000  0.000     2.321     2.383
 120   1 H      0.044  0.956  0.000  0.000     2.394     2.419
 121   1 H      0.053  0.947  0.000  0.000     2.286     2.364
 122   7 N     -0.195  1.253  3.943  0.000    25.239     7.461
 123   6 C      0.023  1.061  2.916  0.000    20.197     6.400
 124   6 C      0.279  1.042  2.679  0.000    22.282     7.730
 125   8 O     -0.510  1.727  4.783  0.000    24.014     6.570
 126   6 C      0.075  1.036  2.889  0.000    19.533     6.330
 127   8 O     -0.458  1.711  4.748  0.000    22.015     6.334
 128   1 H      0.227  0.773  0.000  0.000     0.977     1.548
 129   1 H      0.070  0.930  0.000  0.000     2.089     2.260
 130   1 H      0.042  0.958  0.000  0.000     2.419     2.433
 131   1 H      0.059  0.941  0.000  0.000     2.210     2.325
 132   1 H      0.345  0.655  0.000  0.000     0.601     1.217
 133   7 N     -0.184  1.255  3.929  0.000    24.995     7.425
 134   6 C      0.026  1.063  2.911  0.000    20.140     6.389
 135   6 C      0.284  1.041  2.675  0.000    22.194     7.715
 136   8 O     -0.500  1.730  4.771  0.000    23.792     6.540
 137   6 C     -0.026  1.066  2.960  0.000    20.992     6.517
 138   6 C     -0.064  1.049  3.015  0.000    21.729     6.636
 139   6 C     -0.115  1.038  3.077  0.000    22.755     6.802
 140   6 C     -0.105  1.036  3.070  0.000    22.573     6.775
 141   1 H      0.238  0.762  0.000  0.000     0.931     1.511
 142   1 H      0.070  0.930  0.000  0.000     2.088     2.260
 143   1 H      0.053  0.947  0.000  0.000     2.287     2.365
 144   1 H      0.047  0.953  0.000  0.000     2.356     2.401
 145   1 H      0.033  0.967  0.000  0.000     2.544     2.494
 146   1 H      0.064  0.936  0.000  0.000     2.149     2.293
 147   1 H      0.034  0.966  0.000  0.000     2.536     2.491
 148   1 H      0.057  0.943  0.000  0.000     2.234     2.337
 149   1 H      0.038  0.962  0.000  0.000     2.476     2.461
 150   1 H      0.028  0.972  0.000  0.000     2.616     2.529
 151   1 H      0.057  0.943  0.000  0.000     2.234     2.337
 152   7 N     -0.189  1.254  3.934  0.000    25.087     7.439
 153   6 C      0.045  1.053  2.902  0.000    19.817     6.338
 154   6 C      0.289  1.039  2.672  0.000    22.107     7.700
 155   8 O     -0.496  1.728  4.768  0.000    23.695     6.526
 156   6 C     -0.122  1.038  3.084  0.000    22.882     6.820
 157   1 H      0.231  0.769  0.000  0.000     0.960     1.535
 158   1 H      0.058  0.942  0.000  0.000     2.228     2.334
 159   1 H      0.067  0.933  0.000  0.000     2.123     2.279
 160   1 H      0.065  0.935  0.000  0.000     2.137     2.286
 161   1 H      0.056  0.944  0.000  0.000     2.243     2.342
 162   7 N     -0.198  1.256  3.942  0.000    25.301     7.471
 163   6 C      0.030  1.057  2.912  0.000    20.063     6.377
 164   6 C      0.277  1.043  2.681  0.000    22.323     7.737
 165   8 O     -0.498  1.731  4.766  0.000    23.731     6.531
 166   6 C     -0.061  1.049  3.011  0.000    21.659     6.625
 167   6 C     -0.093  1.054  3.038  0.000    22.258     6.715
 168   6 C      0.291  1.038  2.670  0.000    22.057     7.690
 169   8 O     -0.509  1.747  4.762  0.000    23.989     6.567
 170   7 N     -0.295  1.285  4.010  0.000    27.610     7.804
 171   1 H      0.227  0.773  0.000  0.000     0.978     1.549
 172   1 H      0.082  0.918  0.000  0.000     1.961     2.190
 173   1 H      0.057  0.943  0.000  0.000     2.239     2.340
 174   1 H      0.058  0.942  0.000  0.000     2.221     2.331
 175   1 H      0.066  0.934  0.000  0.000     2.130     2.283
 176   1 H      0.067  0.933  0.000  0.000     2.124     2.279
 177   1 H      0.239  0.761  0.000  0.000     0.926     1.507
 178   1 H      0.227  0.773  0.000  0.000     0.979     1.550
 179   7 N     -0.190  1.248  3.942  0.000    25.123     7.444
 180   6 C      0.009  1.068  2.924  0.000    20.432     6.436
 181   6 C      0.274  1.040  2.685  0.000    22.361     7.744
 182   8 O     -0.493  1.733  4.760  0.000    23.622     6.516
 183   6 C      0.110  1.047  2.843  0.000    18.868     6.202
 184   8 O     -0.464  1.712  4.753  0.000    22.142     6.352
 185   6 C     -0.142  1.046  3.096  0.000    23.289     6.882
 186   1 H      0.230  0.770  0.000  0.000     0.965     1.539
 187   1 H      0.074  0.926  0.000  0.000     2.048     2.238
 188   1 H      0.060  0.940  0.000  0.000     2.201     2.320
 189   1 H      0.314  0.686  0.000  0.000     0.681     1.296
 190   1 H      0.071  0.929  0.000  0.000     2.069     2.249
 191   1 H      0.062  0.938  0.000  0.000     2.174     2.306
 192   1 H      0.058  0.942  0.000  0.000     2.222     2.331
 193   7 N     -0.182  1.247  3.935  0.000    24.933     7.416
 194   6 C      0.014  1.067  2.919  0.000    20.340     6.421
 195   6 C      0.273  1.042  2.685  0.000    22.381     7.747
 196   8 O     -0.483  1.725  4.758  0.000    23.405     6.486
 197   6 C      0.122  1.042  2.836  0.000    18.689     6.172
 198   8 O     -0.454  1.703  4.752  0.000    21.933     6.322
 199   6 C     -0.123  1.040  3.083  0.000    22.921     6.827
 200   1 H      0.223  0.777  0.000  0.000     0.994     1.562
 201   1 H      0.076  0.924  0.000  0.000     2.019     2.222
 202   1 H      0.015  0.985  0.000  0.000     2.813     2.623
 203   1 H      0.315  0.685  0.000  0.000     0.678     1.293
 204   1 H      0.069  0.931  0.000  0.000     2.099     2.266
 205   1 H      0.053  0.947  0.000  0.000     2.286     2.364
 206   1 H      0.070  0.930  0.000  0.000     2.081     2.256
 207   7 N     -0.194  1.252  3.942  0.000    25.208     7.457
 208   6 C      0.031  1.059  2.910  0.000    20.053     6.376
 209   6 C      0.273  1.042  2.685  0.000    22.391     7.749
 210   8 O     -0.479  1.726  4.753  0.000    23.314     6.474
 211   6 C     -0.059  1.050  3.009  0.000    21.630     6.620
 212   6 C     -0.094  1.061  3.032  0.000    22.286     6.722
 213   6 C      0.368  1.027  2.605  0.000    20.757     7.456
 214   8 O     -0.618  1.767  4.851  0.000    26.566     6.910
 215   8 O     -0.620  1.769  4.851  0.000    26.607     6.916
 216   1 H      0.227  0.773  0.000  0.000     0.978     1.550
 217   1 H      0.068  0.932  0.000  0.000     2.111     2.272
 218   1 H      0.052  0.948  0.000  0.000     2.290     2.367
 219   1 H      0.052  0.948  0.000  0.000     2.298     2.370
 220   1 H      0.042  0.958  0.000  0.000     2.427     2.436
 221   1 H      0.042  0.958  0.000  0.000     2.428     2.437
 222   7 N     -0.179  1.247  3.932  0.000    24.883     7.409
 223   6 C     -0.029  1.052  2.977  0.000    21.158     6.560
 224   6 C      0.277  1.036  2.687  0.000    22.312     7.735
 225   8 O     -0.489  1.744  4.745  0.000    23.542     6.505
 226   1 H      0.222  0.778  0.000  0.000     1.001     1.567
 227   1 H      0.084  0.916  0.000  0.000     1.936     2.176
 228   1 H      0.085  0.915  0.000  0.000     1.924     2.169
 229   7 N     -0.183  1.250  3.933  0.000    24.954     7.419
 230   6 C      0.025  1.060  2.915  0.000    20.154     6.393
 231   6 C      0.281  1.039  2.680  0.000    22.250     7.725
 232   8 O     -0.514  1.755  4.759  0.000    24.101     6.582
 233   6 C     -0.133  1.043  3.090  0.000    23.098     6.852
 234   1 H      0.224  0.776  0.000  0.000     0.994     1.561
 235   1 H      0.067  0.933  0.000  0.000     2.120     2.277
 236   1 H      0.072  0.928  0.000  0.000     2.065     2.247
 237   1 H      0.072  0.928  0.000  0.000     2.068     2.249
 238   1 H      0.068  0.932  0.000  0.000     2.112     2.273
 239   7 N     -0.188  1.249  3.939  0.000    25.087     7.439
 240   6 C      0.026  1.058  2.916  0.000    20.140     6.389
 241   6 C      0.280  1.040  2.680  0.000    22.254     7.726
 242   8 O     -0.510  1.748  4.762  0.000    24.000     6.568
 243   6 C     -0.077  1.060  3.017  0.000    21.956     6.670
 244   6 C     -0.014  1.056  2.958  0.000    20.788     6.485
 245   6 C     -0.113  1.042  3.071  0.000    22.720     6.796
 246   6 C     -0.120  1.041  3.079  0.000    22.861     6.817
 247   1 H      0.228  0.772  0.000  0.000     0.972     1.544
 248   1 H      0.070  0.930  0.000  0.000     2.087     2.259
 249   1 H      0.052  0.948  0.000  0.000     2.292     2.368
 250   1 H      0.064  0.936  0.000  0.000     2.147     2.292
 251   1 H      0.036  0.964  0.000  0.000     2.497     2.471
 252   1 H      0.045  0.955  0.000  0.000     2.384     2.414
 253   1 H      0.026  0.974  0.000  0.000     2.649     2.545
 254   1 H      0.053  0.947  0.000  0.000     2.278     2.360
 255   1 H      0.053  0.947  0.000  0.000     2.285     2.364
 256   1 H      0.049  0.951  0.000  0.000     2.335     2.390
 257   1 H      0.035  0.965  0.000  0.000     2.522     2.483
 258   7 N     -0.179  1.245  3.934  0.000    24.874     7.407
 259   6 C      0.041  1.053  2.906  0.000    19.887     6.350
 260   6 C      0.210  1.087  2.703  0.000    23.549     7.947
 261   8 O     -0.362  1.753  4.610  0.000    20.940     6.135
 262   6 C     -0.113  1.062  3.051  0.000    22.658     6.775
 263   6 C      0.293  1.036  2.670  0.000    22.024     7.684
 264   8 O     -0.468  1.718  4.750  0.000    23.080     6.441
 265   7 N     -0.274  1.258  4.017  0.000    27.097     7.731
 266   1 H      0.231  0.769  0.000  0.000     0.962     1.536
 267   1 H      0.098  0.902  0.000  0.000     1.808     2.103
 268   1 H      0.096  0.904  0.000  0.000     1.826     2.113
 269   1 H      0.098  0.902  0.000  0.000     1.805     2.101
 270   1 H      0.237  0.763  0.000  0.000     0.935     1.515
 271   1 H      0.222  0.778  0.000  0.000     1.001     1.567
 272   7 N     -0.376  1.317  4.059  0.000    29.715     8.096
 273   6 C      0.041  1.056  2.903  0.000    19.900     6.354
 274   6 C      0.209  1.087  2.704  0.000    23.575     7.952
 275   8 O     -0.361  1.751  4.609  0.000    20.917     6.132
 276   6 C     -0.073  1.056  3.017  0.000    21.887     6.659
 277   6 C      0.006  1.083  2.910  0.000    27.878     8.661
 278   6 C     -0.041  1.081  2.960  0.000    29.018     8.834
 279   6 C     -0.043  1.080  2.963  0.000    29.059     8.840
 280   6 C     -0.032  1.082  2.950  0.000    28.810     8.802
 281   6 C     -0.031  1.078  2.953  0.000    28.783     8.798
 282   6 C     -0.031  1.078  2.953  0.000    28.769     8.796
 283   1 H      0.162  0.838  0.000  0.000     1.323     1.802
 284   1 H      0.056  0.944  0.000  0.000     2.247     2.344
 285   1 H      0.055  0.945  0.000  0.000     2.262     2.352
 286   1 H      0.059  0.941  0.000  0.000     2.215     2.328
 287   1 H      0.040  0.960  0.000  0.000     2.450     2.448
 288   1 H      0.039  0.961  0.000  0.000     2.465     2.455
 289   1 H      0.039  0.961  0.000  0.000     2.466     2.456
 290   1 H      0.020  0.980  0.000  0.000     2.735     2.586
 291   1 H      0.012  0.988  0.000  0.000     2.864     2.646
 292   7 N     -0.392  1.310  4.081  0.000    30.142     8.154
 293   6 C      0.030  1.060  2.911  0.000    20.089     6.384
 294   6 C      0.267  1.050  2.683  0.000    22.484     7.765
 295   8 O     -0.499  1.746  4.753  0.000    23.759     6.535
 296   6 C     -0.013  1.061  2.953  0.000    20.779     6.483
 297   6 C     -0.109  1.039  3.070  0.000    22.643     6.785
 298   6 C     -0.116  1.039  3.077  0.000    22.771     6.804
 299   1 H      0.164  0.836  0.000  0.000     1.311     1.794
 300   1 H      0.026  0.974  0.000  0.000     2.644     2.543
 301   1 H      0.044  0.956  0.000  0.000     2.401     2.423
 302   1 H      0.042  0.958  0.000  0.000     2.424     2.435
 303   1 H      0.039  0.961  0.000  0.000     2.457     2.451
 304   1 H      0.038  0.962  0.000  0.000     2.478     2.462
 305   1 H      0.045  0.955  0.000  0.000     2.388     2.416
 306   1 H      0.050  0.950  0.000  0.000     2.326     2.385
 307   1 H      0.036  0.964  0.000  0.000     2.504     2.475
 308   7 N     -0.173  1.239  3.935  0.000    24.751     7.389
 309   6 C      0.022  1.057  2.921  0.000    20.215     6.403
 310   6 C      0.196  1.087  2.717  0.000    23.819     7.993
 311   8 O     -0.372  1.759  4.613  0.000    21.131     6.163
 312   6 C     -0.075  1.060  3.015  0.000    21.915     6.663
 313   6 C     -0.008  1.055  2.953  0.000    20.682     6.469
 314   6 C     -0.118  1.042  3.076  0.000    22.802     6.808
 315   6 C     -0.119  1.040  3.080  0.000    22.842     6.814
 316   1 H      0.218  0.782  0.000  0.000     1.019     1.582
 317   1 H      0.113  0.887  0.000  0.000     1.675     2.024
 318   1 H      0.054  0.946  0.000  0.000     2.276     2.359
 319   1 H      0.074  0.926  0.000  0.000     2.047     2.237
 320   1 H      0.028  0.972  0.000  0.000     2.618     2.531
 321   1 H      0.042  0.958  0.000  0.000     2.426     2.436
 322   1 H      0.039  0.961  0.000  0.000     2.459     2.452
 323   1 H      0.045  0.955  0.000  0.000     2.385     2.415
 324   1 H      0.047  0.953  0.000  0.000     2.352     2.398
 325   1 H      0.047  0.953  0.000  0.000     2.354     2.399
 326   1 H      0.038  0.962  0.000  0.000     2.470     2.458
 327   7 N     -0.403  1.320  4.083  0.000    30.448     8.195
 328   6 C      0.043  1.054  2.902  0.000    19.869     6.350
 329   6 C      0.199  1.093  2.708  0.000    23.770     7.985
 330   8 O     -0.363  1.751  4.612  0.000    20.951     6.137
 331   6 C     -0.063  1.058  3.005  0.000    21.707     6.632
 332   6 C     -0.010  1.057  2.952  0.000    20.713     6.473
 333   6 C     -0.108  1.039  3.070  0.000    22.627     6.783
 334   6 C     -0.107  1.040  3.067  0.000    22.599     6.778
 335   1 H      0.190  0.810  0.000  0.000     1.159     1.687
 336   1 H      0.039  0.961  0.000  0.000     2.467     2.456
 337   1 H      0.049  0.951  0.000  0.000     2.332     2.388
 338   1 H      0.030  0.970  0.000  0.000     2.588     2.516
 339   1 H      0.033  0.967  0.000  0.000     2.549     2.497
 340   1 H      0.039  0.961  0.000  0.000     2.463     2.454
 341   1 H      0.038  0.962  0.000  0.000     2.470     2.457
 342   1 H      0.039  0.961  0.000  0.000     2.463     2.454
 343   1 H      0.041  0.959  0.000  0.000     2.437     2.441
 344   1 H      0.032  0.968  0.000  0.000     2.553     2.499
 345   1 H      0.032  0.968  0.000  0.000     2.558     2.501
 346   7 N     -0.372  1.308  4.063  0.000    29.600     8.080
 347   6 C      0.033  1.059  2.908  0.000    20.026     6.374
 348   6 C      0.200  1.093  2.707  0.000    23.734     7.978
 349   8 O     -0.364  1.752  4.613  0.000    20.980     6.141
 350   6 C     -0.022  1.064  2.958  0.000    20.936     6.508
 351   6 C     -0.054  1.047  3.007  0.000    21.544     6.608
 352   6 C     -0.110  1.038  3.072  0.000    22.659     6.787
 353   6 C     -0.107  1.034  3.072  0.000    22.600     6.780
 354   1 H      0.161  0.839  0.000  0.000     1.330     1.807
 355   1 H      0.053  0.947  0.000  0.000     2.285     2.364
 356   1 H      0.043  0.957  0.000  0.000     2.410     2.428
 357   1 H      0.034  0.966  0.000  0.000     2.536     2.490
 358   1 H      0.029  0.971  0.000  0.000     2.599     2.521
 359   1 H      0.035  0.965  0.000  0.000     2.510     2.478
 360   1 H      0.038  0.962  0.000  0.000     2.480     2.463
 361   1 H      0.040  0.960  0.000  0.000     2.449     2.447
 362   1 H      0.033  0.967  0.000  0.000     2.547     2.496
 363   1 H      0.039  0.961  0.000  0.000     2.461     2.453
 364   1 H      0.038  0.962  0.000  0.000     2.470     2.458
 365   7 N     -0.382  1.311  4.072  0.000    29.881     8.119
 366   6 C      0.033  1.061  2.907  0.000    20.038     6.376
 367   6 C      0.200  1.087  2.712  0.000    23.733     7.978
 368   8 O     -0.380  1.754  4.626  0.000    21.280     6.185
 369   6 C     -0.015  1.064  2.951  0.000    20.805     6.488
 370   6 C     -0.113  1.038  3.074  0.000    22.707     6.794
 371   6 C     -0.112  1.037  3.075  0.000    22.705     6.794
 372   1 H      0.160  0.840  0.000  0.000     1.336     1.811
 373   1 H      0.063  0.937  0.000  0.000     2.163     2.300
 374   1 H      0.034  0.966  0.000  0.000     2.530     2.487
 375   1 H      0.044  0.956  0.000  0.000     2.392     2.419
 376   1 H      0.034  0.966  0.000  0.000     2.527     2.486
 377   1 H      0.055  0.945  0.000  0.000     2.257     2.349
 378   1 H      0.044  0.956  0.000  0.000     2.396     2.421
 379   1 H      0.048  0.952  0.000  0.000     2.341     2.393
 380   1 H      0.033  0.967  0.000  0.000     2.542     2.493
 381   7 N     -0.393  1.318  4.075  0.000    30.179     8.159
 382   6 C      0.038  1.058  2.905  0.000    19.953     6.362
 383   6 C      0.202  1.089  2.709  0.000    23.700     7.973
 384   8 O     -0.363  1.746  4.616  0.000    20.949     6.137
 385   6 C     -0.017  1.068  2.949  0.000    20.837     6.492
 386   6 C     -0.056  1.047  3.009  0.000    21.584     6.614
 387   6 C     -0.112  1.039  3.074  0.000    22.703     6.794
 388   6 C     -0.103  1.034  3.069  0.000    22.537     6.770
 389   1 H      0.176  0.824  0.000  0.000     1.239     1.743
 390   1 H      0.048  0.952  0.000  0.000     2.345     2.395
 391   1 H      0.034  0.966  0.000  0.000     2.537     2.491
 392   1 H      0.034  0.966  0.000  0.000     2.528     2.486
 393   1 H      0.043  0.957  0.000  0.000     2.405     2.425
 394   1 H      0.046  0.954  0.000  0.000     2.370     2.407
 395   1 H      0.037  0.963  0.000  0.000     2.484     2.465
 396   1 H      0.036  0.964  0.000  0.000     2.497     2.471
 397   1 H      0.030  0.970  0.000  0.000     2.584     2.514
 398   1 H      0.040  0.960  0.000  0.000     2.445     2.445
 399   1 H      0.034  0.966  0.000  0.000     2.526     2.485
 400   7 N     -0.380  1.313  4.067  0.000    29.828     8.111
 401   6 C      0.038  1.057  2.904  0.000    19.946     6.362
 402   6 C      0.198  1.086  2.715  0.000    23.774     7.985
 403   8 O     -0.376  1.758  4.618  0.000    21.207     6.174
 404   6 C     -0.071  1.059  3.012  0.000    21.856     6.655
 405   6 C     -0.003  1.056  2.947  0.000    20.594     6.455
 406   6 C     -0.110  1.040  3.070  0.000    22.649     6.785
 407   6 C     -0.111  1.038  3.073  0.000    22.685     6.791
 408   1 H      0.160  0.840  0.000  0.000     1.332     1.808
 409   1 H      0.063  0.937  0.000  0.000     2.163     2.300
 410   1 H      0.031  0.969  0.000  0.000     2.567     2.505
 411   1 H      0.062  0.938  0.000  0.000     2.178     2.308
 412   1 H      0.026  0.974  0.000  0.000     2.649     2.545
 413   1 H      0.041  0.959  0.000  0.000     2.438     2.442
 414   1 H      0.036  0.964  0.000  0.000     2.502     2.474
 415   1 H      0.041  0.959  0.000  0.000     2.437     2.441
 416   1 H      0.039  0.961  0.000  0.000     2.465     2.455
 417   1 H      0.046  0.954  0.000  0.000     2.371     2.408
 418   1 H      0.030  0.970  0.000  0.000     2.581     2.512
 419   7 N     -0.385  1.307  4.078  0.000    29.956     8.129
 420   6 C      0.041  1.055  2.904  0.000    19.906     6.355
 421   6 C      0.195  1.099  2.707  0.000    23.840     7.996
 422   8 O     -0.375  1.754  4.621  0.000    21.190     6.172
 423   6 C     -0.082  1.061  3.021  0.000    22.071     6.688
 424   6 C     -0.079  1.052  3.028  0.000    22.016     6.680
 425   6 C     -0.025  1.052  2.973  0.000    21.100     6.555
 426   7 N     -0.139  1.209  3.930  0.000    24.017     7.278
 427   6 C      0.232  1.020  2.748  0.000    23.134     7.875
 428   7 N     -0.257  1.252  4.005  0.000    26.681     7.671
 429   7 N     -0.261  1.243  4.018  0.000    26.767     7.684
 430   1 H      0.179  0.821  0.000  0.000     1.220     1.730
 431   1 H      0.034  0.966  0.000  0.000     2.525     2.485
 432   1 H      0.071  0.929  0.000  0.000     2.078     2.254
 433   1 H      0.075  0.925  0.000  0.000     2.030     2.228
 434   1 H      0.053  0.947  0.000  0.000     2.283     2.363
 435   1 H      0.052  0.948  0.000  0.000     2.300     2.372
 436   1 H      0.091  0.909  0.000  0.000     1.872     2.139
 437   1 H      0.083  0.917  0.000  0.000     1.947     2.182
 438   1 H      0.231  0.769  0.000  0.000     0.959     1.534
 439   1 H      0.238  0.762  0.000  0.000     0.932     1.513
 440   1 H      0.255  0.745  0.000  0.000     0.864     1.456
 441   1 H      0.242  0.758  0.000  0.000     0.913     1.497
 442   1 H      0.251  0.749  0.000  0.000     0.880     1.470
 443   7 N     -0.391  1.309  4.082  0.000    30.125     8.152
 444   6 C      0.036  1.056  2.907  0.000    19.977     6.366
 445   6 C      0.269  1.049  2.682  0.000    22.452     7.759
 446   8 O     -0.512  1.745  4.767  0.000    24.055     6.576
 447   6 C     -0.064  1.054  3.009  0.000    21.714     6.633
 448   6 C     -0.010  1.057  2.953  0.000    20.722     6.475
 449   6 C     -0.109  1.041  3.068  0.000    22.630     6.782
 450   6 C     -0.107  1.038  3.069  0.000    22.600     6.778
 451   1 H      0.162  0.838  0.000  0.000     1.320     1.800
 452   1 H      0.030  0.970  0.000  0.000     2.591     2.517
 453   1 H      0.049  0.951  0.000  0.000     2.338     2.391
 454   1 H      0.025  0.975  0.000  0.000     2.659     2.550
 455   1 H      0.040  0.960  0.000  0.000     2.451     2.448
 456   1 H      0.049  0.951  0.000  0.000     2.327     2.386
 457   1 H      0.039  0.961  0.000  0.000     2.464     2.455
 458   1 H      0.022  0.978  0.000  0.000     2.699     2.569
 459   1 H      0.043  0.957  0.000  0.000     2.403     2.424
 460   1 H      0.024  0.976  0.000  0.000     2.678     2.559
 461   1 H      0.035  0.965  0.000  0.000     2.518     2.482
 462   7 N     -0.171  1.247  3.924  0.000    24.705     7.382
 463   6 C      0.035  1.054  2.911  0.000    19.995     6.368
 464   6 C      0.203  1.088  2.709  0.000    23.679     7.969
 465   8 O     -0.364  1.755  4.608  0.000    20.968     6.139
 466   6 C     -0.136  1.044  3.092  0.000    23.170     6.863
 467   1 H      0.242  0.758  0.000  0.000     0.916     1.500
 468   1 H      0.066  0.934  0.000  0.000     2.135     2.285
 469   1 H      0.075  0.925  0.000  0.000     2.036     2.232
 470   1 H      0.078  0.922  0.000  0.000     2.001     2.212
 471   1 H      0.084  0.916  0.000  0.000     1.937     2.177
 472   7 N     -0.389  1.316  4.074  0.000    30.078     8.145
 473   6 C      0.033  1.060  2.907  0.000    20.031     6.374
 474   6 C      0.274  1.048  2.678  0.000    22.363     7.744
 475   8 O     -0.498  1.741  4.757  0.000    23.737     6.532
 476   6 C     -0.023  1.063  2.960  0.000    20.943     6.509
 477   6 C     -0.104  1.038  3.066  0.000    22.531     6.768
 478   6 C     -0.110  1.039  3.070  0.000    22.649     6.786
 479   1 H      0.152  0.848  0.000  0.000     1.386     1.844
 480   1 H      0.035  0.965  0.000  0.000     2.517     2.481
 481   1 H      0.050  0.950  0.000  0.000     2.314     2.379
 482   1 H      0.041  0.959  0.000  0.000     2.431     2.438
 483   1 H      0.021  0.979  0.000  0.000     2.720     2.579
 484   1 H      0.040  0.960  0.000  0.000     2.450     2.448
 485   1 H      0.037  0.963  0.000  0.000     2.494     2.470
 486   1 H      0.047  0.953  0.000  0.000     2.363     2.404
 487   1 H      0.044  0.956  0.000  0.000     2.398     2.422
 488   7 N     -0.167  1.244  3.923  0.000    24.619     7.369
 489   6 C      0.043  1.055  2.902  0.000    19.852     6.344
 490   6 C      0.211  1.087  2.702  0.000    23.537     7.945
 491   8 O     -0.348  1.734  4.614  0.000    20.673     6.096
 492   6 C     -0.064  1.050  3.014  0.000    21.721     6.634
 493   6 C     -0.086  1.055  3.031  0.000    22.139     6.698
 494   6 C      0.288  1.039  2.673  0.000    22.120     7.701
 495   8 O     -0.516  1.738  4.778  0.000    24.133     6.586
 496   7 N     -0.292  1.290  4.002  0.000    27.535     7.793
 497   1 H      0.230  0.770  0.000  0.000     0.966     1.539
 498   1 H      0.056  0.944  0.000  0.000     2.247     2.344
 499   1 H      0.078  0.922  0.000  0.000     1.997     2.210
 500   1 H      0.069  0.931  0.000  0.000     2.096     2.264
 501   1 H      0.046  0.954  0.000  0.000     2.370     2.408
 502   1 H      0.062  0.938  0.000  0.000     2.172     2.305
 503   1 H      0.235  0.765  0.000  0.000     0.944     1.522
 504   1 H      0.206  0.794  0.000  0.000     1.078     1.626
 505   7 N     -0.407  1.312  4.094  0.000    30.564     8.211
 506   6 C      0.040  1.057  2.902  0.000    19.912     6.356
 507   6 C      0.267  1.052  2.681  0.000    22.488     7.766
 508   8 O     -0.491  1.737  4.754  0.000    23.580     6.511
 509   6 C     -0.071  1.055  3.016  0.000    21.848     6.653
 510   6 C      0.019  1.084  2.898  0.000    27.592     8.616
 511   6 C     -0.031  1.079  2.952  0.000    28.774     8.797
 512   6 C     -0.043  1.079  2.964  0.000    29.064     8.841
 513   6 C     -0.035  1.079  2.956  0.000    28.877     8.812
 514   6 C     -0.038  1.080  2.958  0.000    28.936     8.821
 515   6 C     -0.039  1.077  2.962  0.000    28.979     8.828
 516   1 H      0.180  0.820  0.000  0.000     1.212     1.724
 517   1 H      0.039  0.961  0.000  0.000     2.468     2.457
 518   1 H      0.056  0.944  0.000  0.000     2.243     2.342
 519   1 H      0.043  0.957  0.000  0.000     2.415     2.430
 520   1 H      0.013  0.987  0.000  0.000     2.836     2.633
 521   1 H      0.041  0.959  0.000  0.000     2.437     2.441
 522   1 H      0.023  0.977  0.000  0.000     2.683     2.562
 523   1 H      0.048  0.952  0.000  0.000     2.345     2.395
 524   1 H      0.030  0.970  0.000  0.000     2.588     2.516
 525   7 N     -0.179  1.247  3.932  0.000    24.874     7.407
 526   6 C      0.035  1.058  2.908  0.000    19.998     6.368
 527   6 C      0.206  1.084  2.710  0.000    23.624     7.960
 528   8 O     -0.352  1.752  4.601  0.000    20.754     6.108
 529   6 C     -0.111  1.064  3.047  0.000    22.615     6.769
 530   6 C      0.294  1.032  2.674  0.000    22.018     7.683
 531   8 O     -0.488  1.754  4.733  0.000    23.515     6.502
 532   7 N     -0.279  1.258  4.021  0.000    27.205     7.746
 533   1 H      0.235  0.765  0.000  0.000     0.942     1.521
 534   1 H      0.081  0.919  0.000  0.000     1.966     2.193
 535   1 H      0.088  0.912  0.000  0.000     1.894     2.152
 536   1 H      0.096  0.904  0.000  0.000     1.820     2.110
 537   1 H      0.230  0.770  0.000  0.000     0.965     1.539
 538   1 H      0.229  0.771  0.000  0.000     0.968     1.541
 539   7 N     -0.408  1.318  4.090  0.000    30.594     8.215
 540   6 C      0.041  1.059  2.900  0.000    19.895     6.353
 541   6 C      0.207  1.092  2.701  0.000    23.610     7.958
 542   8 O     -0.390  1.753  4.637  0.000    21.487     6.215
 543   6 C     -0.019  1.068  2.951  0.000    20.882     6.499
 544   6 C     -0.058  1.050  3.008  0.000    21.623     6.620
 545   6 C     -0.115  1.040  3.074  0.000    22.752     6.801
 546   6 C     -0.106  1.036  3.070  0.000    22.591     6.778
 547   1 H      0.186  0.814  0.000  0.000     1.179     1.701
 548   1 H      0.037  0.963  0.000  0.000     2.487     2.466
 549   1 H      0.048  0.952  0.000  0.000     2.339     2.392
 550   1 H      0.042  0.958  0.000  0.000     2.426     2.436
 551   1 H      0.037  0.963  0.000  0.000     2.488     2.467
 552   1 H      0.055  0.945  0.000  0.000     2.261     2.351
 553   1 H      0.029  0.971  0.000  0.000     2.596     2.520
 554   1 H      0.045  0.955  0.000  0.000     2.387     2.416
 555   1 H      0.045  0.955  0.000  0.000     2.386     2.415
 556   1 H      0.022  0.978  0.000  0.000     2.702     2.570
 557   1 H      0.044  0.956  0.000  0.000     2.392     2.418
 558   1 H      0.182  0.818  0.000  0.000     1.205     1.719
 559   1 H      0.068  0.932  0.000  0.000     2.107     2.270
 560   1 H      0.190  0.810  0.000  0.000     1.159     1.686
 561   1 H      0.066  0.934  0.000  0.000     2.135     2.285
 562   1 H      0.178  0.822  0.000  0.000     1.224     1.733
 563   1 H      0.077  0.923  0.000  0.000     2.008     2.216
 564   1 H      0.177  0.823  0.000  0.000     1.231     1.738
 565   1 H      0.068  0.932  0.000  0.000     2.103     2.267
 566   1 H      0.176  0.824  0.000  0.000     1.234     1.740
 567   1 H      0.078  0.922  0.000  0.000     1.996     2.209
 568   1 H      0.181  0.819  0.000  0.000     1.209     1.722
 569   1 H      0.070  0.930  0.000  0.000     2.081     2.256
 570   1 H      0.182  0.818  0.000  0.000     1.200     1.716
 571   1 H      0.069  0.931  0.000  0.000     2.097     2.264
 572   1 H      0.171  0.829  0.000  0.000     1.267     1.763
 573   1 H      0.064  0.936  0.000  0.000     2.152     2.294
 574   1 H      0.176  0.824  0.000  0.000     1.238     1.742
 575   1 H      0.091  0.909  0.000  0.000     1.866     2.136
 576   1 H      0.180  0.820  0.000  0.000     1.212     1.724
 577   1 H      0.082  0.918  0.000  0.000     1.956     2.187
 578   1 H      0.187  0.813  0.000  0.000     1.174     1.697
 579   1 H      0.080  0.920  0.000  0.000     1.973     2.197
 580   1 H      0.175  0.825  0.000  0.000     1.240     1.745
 581   1 H      0.076  0.924  0.000  0.000     2.023     2.224
 582   1 H      0.174  0.826  0.000  0.000     1.247     1.749
 583   1 H      0.065  0.935  0.000  0.000     2.141     2.288

 Mol. C6AA /au·bohr⁶  :    3005768.471665
 Mol. C8AA /au·bohr⁸  :   65929151.928316
 Mol. α(0) /au        :       2591.944970

 
molecular dipole:
                 x           y           z       tot (Debye)
 q only:      -13.525       1.962      20.961
   full:      -13.330       1.124      25.080      72.248
molecular quadrupole (traceless):
                xx          xy          yy          xz          yz          zz
 q only:   -13110.843   -1928.121   -1495.451    3159.703    4803.099   14606.294
  q+dip:   -13906.638   -2223.589   -2664.253    4892.457    5280.004   16570.891
   full:   -13907.073   -2223.801   -2656.183    4898.239    5282.344   16563.256
speedup 15.79
cpu  time for grad    1 m 21.5 s
wall time for grad    0 m  5.2 s

SCC energy    :    -884.5977128
rep           :      10.9076417
ES            :       2.4413036
AES           :      -0.0981380
AXC           :       0.3055750
disp          :      -0.7872481
XB            :       0.0000000
fix           :       0.0000000
Gborn         :       0.0000000
Gsasa         :       0.0000000
Ghb           :       0.0000000
Gshift        :       0.0000000
Gsolv         :      -0.5011791     -314.49
Etot ala COSMO:    -884.5977128
grad norm     :       0.8058463
total E       :    -873.6058619
atomizationE  :     160.3189839   100601.68
(atE without considering molecular charge,
 total energy contains solvation terms)
H-L gap (eV)  :          1.4933

------------------------------------------------------------------------
 * finished run on 2019/02/13 at 00:17:10.708     
------------------------------------------------------------------------
 total:
 * wall-time:     0 d,  0 h,  0 min,  5.829 sec
 *  cpu-time:     0 d,  0 h,  1 min, 30.344 sec
 * ratio c/w:    15.500 speedup
 SCF:
 * wall-time:     0 d,  0 h,  0 min,  5.494 sec
 *  cpu-time:     0 d,  0 h,  1 min, 26.036 sec
 * ratio c/w:    15.661 speedup

