      -----------------------------------------------------------      
     |                   =====================                   |     
     |                           x T B                           |     
     |                   =====================                   |     
     |                         S. Grimme                         |     
     |          Mulliken Center for Theoretical Chemistry        |     
     |                    University of Bonn                     |     
     |                Version 6.1 RC1 (SAW190329)                |     
      -----------------------------------------------------------      

   This program is distributed in the hope that it will be useful,
   but WITHOUT ANY WARRANTY; without even the implied warranty of
   MERCHANTABILITY or FITNESS FOR A PARTICULAR PURPOSE.
   
   FOR NON-COMMERCIAL, ACADEMIA USE ONLY.
   
   Cite this work as:
   S. Grimme, C. Bannwarth, P. Shushkov, J. Comput. Theory Chem., 2017,
   13, 1989-2009. DOI: 10.1021/acs.jctc.7b00118
   C. Bannwarth, S. Ehlert and S. Grimme., J. Comput. Theory Chem., 2019,
   just accepted. DOI: 10.1021/acs.jctc.8b01176
   
   for sTDA-xTB:
   S. Grimme and C. Bannwarth, J. Chem. Phys., 2016, 145, 054103.
   DOI: 10.1063/1.4959605
   
   in the mass-spec context:
   V. Asgeirsson, C. Bauer and S. Grimme, Chem. Sci., 2017, 8, 4879.
   DOI: 10.1039/c7sc00601b
   
   for metadynamics refer to:
   S. Grimme, ChemRxiv, Preprint. DOI: 10.26434/chemrxiv.7660532.v1
   
   with help from (in alphabetical order)
   C. Bannwarth, F. Bohle, G. Brandenburg, E. Caldeweyher, M. Checinski,
   S. Dohm, S. Ehlert, S. Ehrlich, F. März, H. Neugebauer, J. Pisarek,
   P. Pracht, P. Shushkov, and S. Spicher.
   
 * started run on 2019/05/31 at 02:07:10.992     

           -------------------------------------------------
          |                Calculation Setup                |
           -------------------------------------------------

          program call               : /home/lum/qr/xtb-190329/bin/xtb xtb_tmp.xyz --chrg -1 --grad --gfn 2 --etemp 500 --acc 0.1 --gbsa h2o --parallel 4
          hostname                   : cu39
          coordinate file            : xtb_tmp.xyz
          omp threads                :                     4
          number of atoms            :                   357
          number of electrons        :                   946
          charge                     :                    -1
          spin                       :                   0.0
          first test random number   :      0.95457274938872


molecular fragmentation (1/2 indicates fragments):
111111111111111111111111111111111111111111111111111111111111111111111111
111111111111111111111111111111111111111111111111111111111111111111111111
111111111111111111111111111111112222222222222222222222222222222222222222
222222222222222222222222222222222222222222222222222222222222222222222222
222222222222222222222222222222222222222222222222222222211222222222222
# atoms in fragment 1/2:   178   179
 fragment masses (1/2) :     1268.49     1133.50
CMA distance (Bohr)    :   8.907
constraining FC (au)   :  0.0500

########################################################################
# WARNING! Please study the warnings concerning your input carefully
#  - XTBPATH is not set, using XTBHOME instead
#  - Process number higher than OMP_NUM_THREADS, I hope you know what you are doing.
########################################################################

           ------------------------------------------------- 
          |                 G F N 2 - x T B                 |
          | Geometry, Frequencies, Noncovalent interactions |
          |            JCTC 2018 parametrisation            |
           ------------------------------------------------- 
 
             k(s)              :                1.8500
             k(p)              :                2.2300
             k(d)              :                2.2300
             k(f)              :                2.0000
             kEN (H0ij)        :               -2.0000
             D4 a1             :                0.5200
             D4 a2             :                5.0000
             D4 s6             :                1.0000
             D4 s8             :                2.7000
             D4 s9             :                5.0000
             alphaj            :                2.0000

  Z AO/shell   Hii/eV     exponent
  1     Wed Apr 25 08:07:45 CEST 2018   EN: 2.200 GM2: 0.406  GM3: 0.0800  RAES: 1.40
     1s    -10.707211    1.230000
  6     Wed Apr 25 08:07:45 CEST 2018   EN: 2.550 GM2: 0.538  GM3: 0.1500  RAES: 3.00
     2s    -13.970922    2.096432
     2p    -10.063292    1.800000
  7     Wed Apr 25 08:07:45 CEST 2018   EN: 3.040 GM2: 0.461  GM3:-0.0640  RAES: 1.90
     2s    -16.686243    2.339881
     2p    -12.523956    2.014332
  8     Wed Apr 25 08:07:45 CEST 2018   EN: 3.440 GM2: 0.452  GM3:-0.0517  RAES: 1.80
     2s    -20.229985    2.439742
     2p    -15.503117    2.137023
 16     Tue Apr 24 11:44:34 CEST 2018   EN: 2.580 GM2: 0.340  GM3:-0.0502  RAES: 3.10
     3s    -20.029654    1.981333
     3p    -11.377694    2.025643
     3d     -0.420282    1.702555

 Solvent             : h2o
 Using internal parameter file: .param_gbsa2_h2o
 Gsolv ref. state (COSMO-RS): gsolv [1 M gas/solution]
 temperature (mdtemp)       :    298.150000000000     
 dielectric constant        :    80.2000000000000     
 rho                        :    1.00000000000000     
 mass                       :    18.0000000000000     
 surface tension            :    15.5689454083859     
 probe radius               :   0.975313790000000     
 vdW radii scaling          :    1.00000000000000     
 Gshift (Eh)                :   1.857443126794793E-003
 c1                         :    1.55243817000000     
 soset                      :   0.130326360000000     
 HB correction              :  T
 Number of grid points      :          230

            Z     q(EN)     CN     RAES       Cart. coordinates
     1  N   5.0   -0.71    3.00    1.93    42.49266    43.41667    44.74118
     2  C   4.0    0.08    3.99    3.60    44.57674    41.76188    45.39892
     3  C   4.0    0.27    3.01    3.02    46.89263    42.24747    43.73833
     4  O   6.0   -0.40    1.00    1.80    46.71646    42.49410    41.44848
     5  C   4.0   -0.13    3.99    3.60    43.69169    39.00363    45.02533
     6  C   4.0   -0.04    3.12    3.03    41.53236    38.45007    46.75449
     7  C   4.0    0.00    3.22    3.04    39.00711    38.52228    46.20092
     8  C   4.0    0.01    3.18    3.03    41.71798    37.83732    49.37632
     9  N   5.0   -0.48    3.10    1.94    37.61431    37.96564    48.30164
    10  C   4.0    0.11    3.23    3.04    39.21545    37.51626    50.26482
    11  C   4.0   -0.10    3.02    3.02    43.72741    37.51730    51.04965
    12  C   4.0   -0.11    3.02    3.02    38.71555    36.85547    52.75545
    13  C   4.0   -0.10    3.03    3.02    43.22007    36.80748    53.49858
    14  C   4.0   -0.11    3.03    3.02    40.73793    36.48030    54.34975
    15  H   1.0    0.27    1.00    1.43    41.70881    43.13444    43.00622
    16  H   1.0    0.15    0.99    1.43    45.01922    42.10166    47.38661
    17  H   1.0    0.11    0.99    1.43    43.10246    38.78652    43.06066
    18  H   1.0    0.10    0.99    1.43    45.26438    37.74199    45.44379
    19  H   1.0    0.10    1.00    1.43    38.10681    38.93101    44.42812
    20  H   1.0    0.22    1.00    1.43    35.71564    37.81851    48.40479
    21  H   1.0    0.13    1.00    1.43    45.64295    37.85157    50.45349
    22  H   1.0    0.11    1.00    1.43    36.79051    36.65088    53.38744
    23  H   1.0    0.13    0.99    1.43    44.77254    36.49971    54.79144
    24  H   1.0    0.11    0.99    1.43    40.41671    35.96375    56.29891
    25  N   5.0   -0.49    3.01    1.93    49.11375    42.18902    44.97968
    26  C   4.0    0.08    3.99    3.61    51.49028    42.62986    43.70762
    27  C   4.0    0.27    3.01    3.02    53.31948    40.46970    44.25716
    28  O   6.0   -0.47    1.00    1.80    53.13524    39.14597    46.14851
    29  C   4.0   -0.21    3.98    3.59    52.70692    45.11755    44.55390
    30  H   1.0    0.28    1.00    1.43    49.09568    42.18758    46.89631
    31  H   1.0    0.16    0.99    1.43    51.07882    42.73918    41.68031
    32  H   1.0    0.10    0.99    1.43    54.49782    45.39430    43.58320
    33  H   1.0    0.12    0.99    1.43    51.46380    46.67961    44.07294
    34  H   1.0    0.11    0.99    1.43    53.05039    45.10740    46.58123
    35  N   5.0   -0.50    3.01    1.93    55.09086    40.07497    42.48226
    36  C   4.0    0.08    3.99    3.61    57.24356    38.42814    42.94937
    37  C   4.0    0.29    3.02    3.02    59.11125    39.79592    44.70707
    38  O   6.0   -0.43    1.00    1.80    60.11153    41.79774    44.02611
    39  C   4.0   -0.10    3.98    3.59    58.62114    37.76963    40.49894
    40  C   4.0    0.31    2.99    3.02    61.42197    37.10081    41.06938
    41  O   6.0   -0.46    1.00    1.80    61.88692    36.06115    43.13690
    42  O   6.0   -0.47    1.00    1.80    63.03407    37.68100    39.45073
    43  H   1.0    0.24    1.00    1.43    55.29135    41.33975    41.06468
    44  H   1.0    0.13    0.99    1.43    56.55213    36.72345    43.87897
    45  H   1.0    0.10    0.99    1.43    57.75533    36.16667    39.53879
    46  H   1.0    0.13    0.99    1.43    58.62810    39.37547    39.20113
    47  N   5.0   -0.34    3.02    1.93    59.50134    38.83857    46.99601
    48  C   4.0    0.07    4.03    3.67    61.34313    40.00730    48.67091
    49  C   4.0    0.29    3.01    3.02    63.68055    40.99986    47.30854
    50  O   6.0   -0.47    1.00    1.80    64.47007    43.13715    47.74476
    51  C   4.0   -0.15    4.01    3.63    62.02139    37.92178    50.55917
    52  C   4.0   -0.15    4.01    3.63    59.62760    36.31600    50.67278
    53  C   4.0   -0.03    4.01    3.64    58.62997    36.41440    47.96770
    54  H   1.0    0.11    0.99    1.43    60.47381    41.63584    49.61447
    55  H   1.0    0.11    0.99    1.43    63.59011    36.81974    49.80687
    56  H   1.0    0.09    0.99    1.43    62.56042    38.70348    52.37935
    57  H   1.0    0.10    0.99    1.43    60.01999    34.38605    51.24961
    58  H   1.0    0.11    0.99    1.43    58.26895    37.13329    51.98424
    59  H   1.0    0.14    0.99    1.43    59.43018    34.89737    46.81605
    60  H   1.0    0.13    0.99    1.43    56.57379    36.32066    47.90201
    61  N   5.0   -0.49    3.01    1.93    64.94047    39.28162    45.93975
    62  C   4.0    0.08    4.00    3.62    67.35636    39.90392    44.80852
    63  C   4.0    0.30    3.01    3.02    67.10518    42.19327    43.07767
    64  O   6.0   -0.42    1.00    1.80    68.27979    44.15662    43.47357
    65  C   4.0   -0.09    3.98    3.59    68.45750    37.61756    43.41409
    66  C   4.0   -0.16    3.98    3.58    68.93828    35.39536    45.21914
    67  C   4.0   -0.22    3.98    3.59    70.83398    38.40403    41.97457
    68  C   4.0   -0.24    3.98    3.58    70.93269    35.87140    47.24406
    69  H   1.0    0.30    1.00    1.43    63.96030    37.82582    45.12049
    70  H   1.0    0.12    0.99    1.43    68.63036    40.50671    46.33110
    71  H   1.0    0.14    0.99    1.43    67.03813    36.99617    42.03696
    72  H   1.0    0.12    0.99    1.43    67.14940    34.89161    46.11469
    73  H   1.0    0.10    0.99    1.43    69.51548    33.78349    44.06925
    74  H   1.0    0.10    0.99    1.43    71.79807    36.74467    41.24610
    75  H   1.0    0.13    0.99    1.43    70.32844    39.61389    40.38937
    76  H   1.0    0.12    0.99    1.43    72.10850    39.46472    43.18925
    77  H   1.0    0.09    0.99    1.43    71.15431    34.18316    48.39117
    78  H   1.0    0.10    0.99    1.43    72.74761    36.32064    46.39960
    79  H   1.0    0.10    0.99    1.43    70.39163    37.42353    48.47525
    80  N   5.0   -0.48    3.01    1.93    65.49354    41.94387    41.16286
    81  C   4.0    0.07    4.00    3.62    65.01431    44.01475    39.45029
    82  C   4.0    0.30    3.01    3.02    64.74485    46.49515    40.89047
    83  O   6.0   -0.47    1.00    1.80    65.85729    48.41342    40.19732
    84  C   4.0   -0.13    3.99    3.60    62.60133    43.46958    37.96939
    85  C   4.0   -0.12    3.97    3.58    61.89539    45.50956    36.07656
    86  C   4.0    0.31    2.99    3.02    59.50009    44.58905    34.60496
    87  O   6.0   -0.41    1.00    1.80    57.60610    44.08431    35.91079
    88  O   6.0   -0.39    1.00    1.80    59.70050    44.39276    32.27073
    89  H   1.0    0.29    1.00    1.43    64.66873    40.25295    40.71879
    90  H   1.0    0.12    0.99    1.43    66.61024    44.24273    38.13199
    91  H   1.0    0.14    0.99    1.43    62.84341    41.67156    36.97837
    92  H   1.0    0.15    0.99    1.43    61.04250    43.23734    39.30282
    93  H   1.0    0.12    0.99    1.43    61.45252    47.28099    37.04303
    94  H   1.0    0.12    0.99    1.43    63.42122    45.84719    34.73133
    95  N   5.0   -0.47    3.01    1.93    63.13534    46.46398    42.82331
    96  C   4.0    0.07    4.00    3.61    62.51441    48.75045    44.19818
    97  C   4.0    0.30    3.01    3.02    64.87192    49.87182    45.44599
    98  O   6.0   -0.45    1.00    1.80    65.42255    52.10803    45.16307
    99  C   4.0   -0.14    3.99    3.60    60.45537    48.18578    46.13694
   100  C   4.0   -0.10    3.98    3.58    59.70408    50.46517    47.76414
   101  C   4.0   -0.23    3.98    3.59    58.80015    52.68886    46.16473
   102  C   4.0   -0.24    3.99    3.59    57.63792    49.65809    49.61010
   103  H   1.0    0.30    1.00    1.43    62.25694    44.83884    43.31504
   104  H   1.0    0.12    0.99    1.43    61.86440    50.15992    42.81847
   105  H   1.0    0.11    0.99    1.43    58.80598    47.48428    45.10946
   106  H   1.0    0.13    0.99    1.43    61.14188    46.65726    47.34405
   107  H   1.0    0.12    0.99    1.43    61.37029    51.07968    48.82408
   108  H   1.0    0.09    0.99    1.43    58.02967    54.15806    47.37402
   109  H   1.0    0.11    0.99    1.43    60.35654    53.50056    45.09801
   110  H   1.0    0.09    0.99    1.43    57.33817    52.08807    44.85025
   111  H   1.0    0.09    0.99    1.43    57.11904    51.23104    50.82140
   112  H   1.0    0.10    0.99    1.43    55.97581    49.04509    48.57001
   113  H   1.0    0.09    0.99    1.43    58.29700    48.10626    50.78125
   114  N   5.0   -0.48    3.01    1.93    66.19864    48.29887    46.89134
   115  C   4.0    0.07    4.00    3.62    68.48145    49.12760    48.16395
   116  C   4.0    0.30    3.01    3.02    70.26973    50.33180    46.24684
   117  O   6.0   -0.41    1.00    1.80    71.33974    52.36183    46.65202
   118  C   4.0   -0.08    3.98    3.59    69.72584    46.88496    49.53154
   119  C   4.0   -0.16    3.98    3.59    68.12788    46.15515    51.84058
   120  C   4.0   -0.22    3.98    3.59    72.43212    47.53310    50.29101
   121  C   4.0   -0.23    3.98    3.58    68.67802    43.49159    52.78662
   122  H   1.0    0.30    1.00    1.43    65.72005    46.44755    47.03264
   123  H   1.0    0.12    0.99    1.43    67.99204    50.60488    49.54050
   124  H   1.0    0.14    0.99    1.43    69.76770    45.30218    48.19937
   125  H   1.0    0.10    0.99    1.43    68.47327    47.51561    53.35233
   126  H   1.0    0.12    0.99    1.43    66.12984    46.25833    51.33830
   127  H   1.0    0.10    0.99    1.43    73.22624    46.02925    51.43711
   128  H   1.0    0.13    0.99    1.43    73.62581    47.76082    48.63387
   129  H   1.0    0.11    0.99    1.43    72.47519    49.27989    51.37214
   130  H   1.0    0.10    0.99    1.43    67.59723    43.11382    54.49309
   131  H   1.0    0.12    0.99    1.43    68.14559    42.11778    51.35392
   132  H   1.0    0.10    0.99    1.43    70.66660    43.24208    53.22734
   133  N   5.0   -0.46    3.01    1.93    70.56538    49.02578    44.12609
   134  C   4.0    0.09    4.00    3.62    72.23537    49.86219    42.13478
   135  C   4.0    0.29    3.01    3.02    71.43792    52.47953    41.19611
   136  O   6.0   -0.38    1.00    1.80    72.99004    54.18213    40.91028
   137  C   4.0   -0.10    3.99    3.60    72.22365    47.96989    39.96148
   138  C   4.0    0.28    3.00    3.02    73.44548    45.47164    40.73406
   139  O   6.0   -0.40    1.00    1.80    74.13988    45.00827    42.87455
   140  N   5.0   -0.66    3.00    1.93    73.71602    43.83254    38.81449
   141  H   1.0    0.31    1.00    1.43    69.75581    47.30138    43.93898
   142  H   1.0    0.15    0.99    1.43    74.16226    50.04684    42.89262
   143  H   1.0    0.14    0.99    1.43    70.27061    47.62638    39.38407
   144  H   1.0    0.10    0.99    1.43    73.27700    48.76129    38.37786
   145  H   1.0    0.27    1.00    1.43    74.54784    42.15234    39.14960
   146  H   1.0    0.25    1.00    1.43    73.17535    44.26695    37.04643
   147  N   5.0   -0.47    3.01    1.93    68.99374    52.75975    40.68485
   148  C   4.0    0.08    4.00    3.62    68.01488    55.16800    39.81373
   149  C   4.0    0.30    3.01    3.02    68.80402    57.25092    41.65283
   150  O   6.0   -0.39    1.00    1.80    69.93144    59.14319    40.93898
   151  C   4.0   -0.14    3.99    3.60    65.13974    55.06798    39.56726
   152  C   4.0   -0.10    3.98    3.58    63.93940    57.66086    39.06198
   153  C   4.0   -0.22    3.98    3.59    65.02075    58.90388    36.69389
   154  C   4.0   -0.23    3.98    3.59    61.07844    57.37536    38.83362
   155  H   1.0    0.31    1.00    1.43    67.76198    51.30108    40.86518
   156  H   1.0    0.13    0.99    1.43    68.89521    55.61451    37.99030
   157  H   1.0    0.11    0.99    1.43    64.65602    53.75887    38.04657
   158  H   1.0    0.13    0.99    1.43    64.37789    54.29507    41.32195
   159  H   1.0    0.13    0.99    1.43    64.32476    58.89206    40.68050
   160  H   1.0    0.10    0.99    1.43    64.01142    60.64480    36.28476
   161  H   1.0    0.12    0.99    1.43    67.00147    59.37659    36.95343
   162  H   1.0    0.10    0.99    1.43    64.83354    57.64340    35.08137
   163  H   1.0    0.10    0.99    1.43    60.21198    59.21370    38.54476
   164  H   1.0    0.09    0.99    1.43    60.58297    56.16059    37.24886
   165  H   1.0    0.10    0.99    1.43    60.29886    56.54963    40.54602
   166  N   5.0   -0.47    3.01    1.93    68.12618    56.84848    44.04122
   167  C   4.0    0.08    4.01    3.65    68.67998    58.64055    46.02871
   168  C   4.0    0.10    3.00    3.02    71.46099    59.47665    45.92475
   169  O   6.0   -0.40    1.00    1.80    72.08203    61.69186    46.03620
   170  C   4.0   -0.12    3.98    3.59    68.15602    57.43721    48.59007
   171  S   6.0   -0.22    2.02    3.10    64.80784    56.77852    49.08812
   172  H   1.0    0.30    1.00    1.43    67.19049    55.24463    44.52255
   173  H   1.0    0.13    0.99    1.43    67.51914    60.34310    45.76948
   174  H   1.0    0.15    0.99    1.43    69.09930    55.60911    48.69730
   175  H   1.0    0.10    0.99    1.43    68.80335    58.65143    50.11467
   176  H   1.0    0.10    1.00    1.43    64.19894    59.12321    49.78942
   177  N   5.0   -0.72    3.00    1.93    55.67740    61.24328    36.36633
   178  C   4.0    0.06    3.98    3.59    54.57020    60.23628    38.66183
   179  C   4.0    0.06    3.00    3.02    51.86058    59.36663    38.18013
   180  O   6.0   -0.49    1.00    1.80    51.16787    57.21180    38.66400
   181  C   4.0   -0.14    3.99    3.60    54.61249    62.17973    40.81304
   182  C   4.0   -0.04    3.03    3.02    57.10028    62.16255    42.18817
   183  C   4.0   -0.11    3.03    3.02    57.63118    60.24333    43.90211
   184  C   4.0   -0.11    3.03    3.02    58.90181    64.01628    41.75320
   185  C   4.0   -0.11    3.03    3.02    59.92013    60.18048    45.16073
   186  C   4.0   -0.11    3.03    3.02    61.19363    63.96138    43.01591
   187  C   4.0   -0.10    3.03    3.02    61.70072    62.04637    44.72135
   188  H   1.0    0.25    1.00    1.43    56.26135    63.06717    36.32828
   189  H   1.0    0.11    0.99    1.43    55.61859    58.52852    39.20496
   190  H   1.0    0.10    0.99    1.43    54.22085    64.03752    40.00952
   191  H   1.0    0.10    0.99    1.43    53.10397    61.69009    42.13388
   192  H   1.0    0.10    0.99    1.43    56.24114    58.78453    44.23053
   193  H   1.0    0.10    1.00    1.43    58.50480    65.48715    40.39638
   194  H   1.0    0.11    1.00    1.43    60.31691    58.67544    46.47632
   195  H   1.0    0.11    1.00    1.43    62.59012    65.40488    42.66293
   196  H   1.0    0.11    1.00    1.43    63.48578    62.01306    45.70805
   197  N   5.0   -0.72    3.00    1.92    50.17763    52.69530    35.59984
   198  C   4.0    0.09    3.98    3.59    51.01087    50.29992    36.62111
   199  C   4.0    0.27    3.01    3.02    48.92598    48.84112    37.98773
   200  O   6.0   -0.40    1.00    1.80    49.16776    46.58717    38.45636
   201  C   4.0   -0.08    3.98    3.59    53.29358    50.51780    38.41568
   202  C   4.0   -0.22    3.98    3.59    55.49689    51.83699    37.10703
   203  C   4.0   -0.21    3.98    3.59    52.59603    51.82368    40.88803
   204  H   1.0    0.31    1.00    1.43    50.58997    54.29283    36.57264
   205  H   1.0    0.12    0.99    1.43    51.58836    49.11802    35.01494
   206  H   1.0    0.12    0.99    1.43    53.86248    48.56462    38.81432
   207  H   1.0    0.09    0.99    1.43    57.08454    52.00741    38.39988
   208  H   1.0    0.11    0.99    1.43    56.12195    50.74462    35.47816
   209  H   1.0    0.11    0.99    1.43    54.97698    53.71882    36.46509
   210  H   1.0    0.09    0.99    1.43    54.22680    51.85364    42.13396
   211  H   1.0    0.15    0.99    1.43    51.99837    53.75585    40.55694
   212  H   1.0    0.13    0.99    1.43    51.06991    50.82617    41.83052
   213  N   5.0   -0.46    3.01    1.93    46.88674    50.14971    38.71339
   214  C   4.0    0.07    4.00    3.61    44.91987    48.94390    40.19816
   215  C   4.0    0.08    3.00    3.02    42.96595    47.75286    38.42353
   216  O   6.0   -0.41    1.00    1.80    41.30929    49.00736    37.38205
   217  C   4.0   -0.12    3.98    3.59    43.74489    50.84476    42.03190
   218  C   4.0   -0.03    3.12    3.03    45.60164    51.44629    44.07117
   219  C   4.0    0.02    3.21    3.04    46.40909    49.85139    45.94011
   220  C   4.0    0.01    3.18    3.03    47.02377    53.72547    44.34321
   221  N   5.0   -0.49    3.10    1.94    48.23951    50.99835    47.35976
   222  C   4.0    0.11    3.22    3.04    48.66173    53.36421    46.43179
   223  C   4.0   -0.10    3.02    3.02    47.05785    56.02646    43.05374
   224  C   4.0   -0.12    3.02    3.02    50.35183    55.22096    47.19880
   225  C   4.0   -0.09    3.03    3.02    48.70298    57.87138    43.85944
   226  C   4.0   -0.12    3.03    3.02    50.35108    57.46609    45.88427
   227  H   1.0    0.26    1.00    1.43    46.65026    51.97421    38.20659
   228  H   1.0    0.16    0.99    1.43    45.83964    47.41481    41.24949
   229  H   1.0    0.12    0.99    1.43    43.21742    52.54441    40.99244
   230  H   1.0    0.11    0.99    1.43    42.01511    50.02656    42.80126
   231  H   1.0    0.13    1.00    1.43    45.80831    47.96070    46.36156
   232  H   1.0    0.23    1.00    1.43    49.11363    50.23511    48.86435
   233  H   1.0    0.12    1.00    1.43    45.83534    56.33787    41.44987
   234  H   1.0    0.10    1.00    1.43    51.61592    54.91704    48.76754
   235  H   1.0    0.11    0.99    1.43    48.74979    59.67865    42.90796
   236  H   1.0    0.10    1.00    1.43    51.64449    58.95074    46.42178
   237  N   5.0   -0.71    3.00    1.93    55.76358    26.50994    50.89029
   238  C   4.0    0.07    3.99    3.60    54.90029    28.59046    52.43094
   239  C   4.0    0.26    3.01    3.02    54.17218    30.79210    50.69498
   240  O   6.0   -0.44    1.00    1.80    55.26030    31.17774    48.69068
   241  C   4.0   -0.14    3.99    3.60    56.96604    29.50579    54.26133
   242  C   4.0   -0.04    3.03    3.02    57.29789    27.72892    56.44830
   243  C   4.0   -0.10    3.03    3.02    58.59017    25.46265    56.14838
   244  C   4.0   -0.10    3.03    3.02    56.30313    28.31930    58.80605
   245  C   4.0   -0.11    3.03    3.02    58.92087    23.84291    58.17391
   246  C   4.0   -0.10    3.03    3.02    56.64477    26.71047    60.83934
   247  C   4.0   -0.11    3.03    3.02    57.96932    24.47373    60.53019
   248  H   1.0    0.27    1.00    1.43    57.22631    26.90789    49.73040
   249  H   1.0    0.11    0.99    1.43    53.24844    27.93736    53.48320
   250  H   1.0    0.11    0.99    1.43    58.73490    29.69234    53.21218
   251  H   1.0    0.10    0.99    1.43    56.41298    31.36567    54.95713
   252  H   1.0    0.10    1.00    1.43    59.35042    24.95808    54.32298
   253  H   1.0    0.11    0.99    1.43    55.26866    30.06140    59.05997
   254  H   1.0    0.10    1.00    1.43    59.94295    22.09901    57.90088
   255  H   1.0    0.11    1.00    1.43    55.90432    27.22037    62.66932
   256  H   1.0    0.10    1.00    1.43    58.30226    23.24903    62.12714
   257  N   5.0   -0.50    3.01    1.93    52.28427    32.20949    51.58292
   258  C   4.0    0.07    3.99    3.61    51.35629    34.43926    50.30379
   259  C   4.0    0.26    3.01    3.02    51.00228    36.54277    52.26884
   260  O   6.0   -0.45    1.00    1.80    50.42314    36.04483    54.45684
   261  C   4.0   -0.14    3.98    3.59    48.80704    33.92276    48.99439
   262  C   4.0   -0.16    3.98    3.58    48.82928    31.62532    47.24025
   263  C   4.0   -0.14    3.98    3.58    50.41883    31.92512    44.84444
   264  C   4.0   -0.06    3.98    3.58    49.42263    34.00626    43.10845
   265  N   5.0   -0.73    3.98    2.82    50.52057    33.73516    40.52870
   266  H   1.0    0.24    1.00    1.43    51.46210    31.74365    53.25401
   267  H   1.0    0.14    0.99    1.43    52.77788    34.99696    48.91479
   268  H   1.0    0.11    0.99    1.43    47.39401    33.58961    50.45792
   269  H   1.0    0.10    0.99    1.43    48.28036    35.61997    47.95683
   270  H   1.0    0.13    0.99    1.43    49.54357    29.99552    48.28164
   271  H   1.0    0.09    0.99    1.43    46.87701    31.21372    46.72098
   272  H   1.0    0.14    0.99    1.43    52.37932    32.28627    45.36512
   273  H   1.0    0.11    0.99    1.43    50.37911    30.11828    43.84763
   274  H   1.0    0.10    0.99    1.43    47.36792    33.88785    42.96158
   275  H   1.0    0.13    0.99    1.43    49.93033    35.86611    43.83848
   276  H   1.0    0.25    1.00    1.43    49.88469    35.14733    39.34845
   277  H   1.0    0.24    1.00    1.43    52.46365    33.83575    40.61938
   278  H   1.0    0.23    1.00    1.43    50.03573    32.00690    39.75877
   279  N   5.0   -0.49    3.01    1.93    51.32158    38.88379    51.39415
   280  C   4.0    0.07    3.99    3.61    51.05200    41.11817    52.96441
   281  C   4.0    0.06    3.00    3.02    48.45345    42.29065    52.46812
   282  O   6.0   -0.47    1.00    1.80    47.66866    42.54769    50.30592
   283  C   4.0   -0.09    3.98    3.59    53.09586    43.09402    52.36126
   284  C   4.0   -0.24    3.98    3.59    52.86396    45.32804    54.16536
   285  C   4.0   -0.22    3.98    3.59    55.71962    41.92064    52.53566
   286  H   1.0    0.28    1.00    1.43    51.81603    39.15399    49.55726
   287  H   1.0    0.12    0.99    1.43    51.20033    40.52998    54.93854
   288  H   1.0    0.12    0.99    1.43    52.78559    43.75722    50.42411
   289  H   1.0    0.09    0.99    1.43    54.34709    46.69452    53.78365
   290  H   1.0    0.10    0.99    1.43    51.05421    46.27515    53.95703
   291  H   1.0    0.10    0.99    1.43    53.05768    44.68914    56.10689
   292  H   1.0    0.09    0.99    1.43    57.14660    43.38128    52.31337
   293  H   1.0    0.13    0.99    1.43    55.98421    41.02214    54.36531
   294  H   1.0    0.13    0.99    1.43    55.98422    40.53072    51.04936
   295  N   5.0   -0.72    3.00    1.93    62.33626    62.59804    60.59254
   296  C   4.0    0.06    3.98    3.58    61.35187    60.28933    59.49082
   297  C   4.0    0.07    3.00    3.02    63.35629    58.20928    59.64260
   298  O   6.0   -0.48    1.00    1.80    62.87347    56.11086    60.51810
   299  C   4.0   -0.15    3.99    3.60    60.51367    60.80597    56.77852
   300  C   4.0   -0.10    3.98    3.58    59.46288    58.48556    55.39554
   301  C   4.0   -0.23    3.98    3.59    57.23697    57.30891    56.80823
   302  C   4.0   -0.24    3.98    3.59    58.64551    59.25404    52.73586
   303  H   1.0    0.25    1.00    1.43    62.40563    64.17530    59.50560
   304  H   1.0    0.11    0.99    1.43    59.75635    59.63897    60.64812
   305  H   1.0    0.09    0.99    1.43    59.07201    62.28296    56.84072
   306  H   1.0    0.10    0.99    1.43    62.14127    61.54484    55.74753
   307  H   1.0    0.11    0.99    1.43    60.96607    57.07110    55.25225
   308  H   1.0    0.09    0.99    1.43    56.36906    55.84344    55.66003
   309  H   1.0    0.11    0.99    1.43    57.85052    56.44686    58.57053
   310  H   1.0    0.09    0.99    1.43    55.81400    58.73090    57.23298
   311  H   1.0    0.09    0.99    1.43    58.03978    57.60826    51.66884
   312  H   1.0    0.10    0.99    1.43    57.08379    60.58410    52.83456
   313  H   1.0    0.09    0.99    1.43    60.19214    60.14460    51.72212
   314  N   5.0   -0.71    3.00    1.93    63.27582    50.77213    62.25618
   315  C   4.0    0.07    3.98    3.58    63.69409    48.64645    60.58609
   316  C   4.0    0.07    3.00    3.02    65.81224    46.96615    61.62615
   317  O   6.0   -0.43    1.00    1.80    65.57579    44.65364    61.68602
   318  C   4.0   -0.14    3.99    3.60    64.30729    49.52868    57.91220
   319  C   4.0   -0.10    3.98    3.58    62.16658    51.03738    56.66177
   320  C   4.0   -0.23    3.98    3.59    63.00958    51.84134    54.02049
   321  C   4.0   -0.24    3.98    3.59    59.71779    49.51947    56.50940
   322  H   1.0    0.31    1.00    1.43    63.44820    52.55483    61.58034
   323  H   1.0    0.12    0.99    1.43    61.99865    47.44925    60.59109
   324  H   1.0    0.11    0.99    1.43    66.00960    50.69177    58.00540
   325  H   1.0    0.10    0.99    1.43    64.71996    47.85047    56.78522
   326  H   1.0    0.13    0.99    1.43    61.80944    52.73599    57.78572
   327  H   1.0    0.10    0.99    1.43    61.55339    52.96392    53.10751
   328  H   1.0    0.10    0.99    1.43    64.72326    52.97101    54.11555
   329  H   1.0    0.10    0.99    1.43    63.38041    50.18675    52.86154
   330  H   1.0    0.09    0.99    1.43    58.31783    50.55894    55.42669
   331  H   1.0    0.09    0.99    1.43    60.04320    47.70828    55.59600
   332  H   1.0    0.10    0.99    1.43    58.92905    49.16517    58.37326
   333  N   5.0   -0.68    3.00    1.93    52.81992    39.24622    61.54690
   334  C   4.0    0.09    3.98    3.58    53.13346    37.09216    59.89671
   335  C   4.0    0.06    3.00    3.02    51.73997    34.79284    61.01121
   336  O   6.0   -0.40    1.00    1.80    51.78833    34.31246    63.27028
   337  C   4.0   -0.02    3.98    3.58    55.93616    36.47360    59.54767
   338  O   6.0   -0.52    1.99    1.82    56.96479    38.18649    57.78591
   339  H   1.0    0.27    1.00    1.43    53.95177    39.31461    63.08877
   340  H   1.0    0.14    0.99    1.43    52.31732    37.57112    58.05910
   341  H   1.0    0.11    0.99    1.43    56.88257    36.61658    61.38554
   342  H   1.0    0.10    0.99    1.43    56.12607    34.52876    58.84201
   343  H   1.0    0.25    0.99    1.43    58.78224    38.07218    57.83621
   344  H   1.0    0.30    1.00    1.43    41.23313    43.21820    45.86668
   345  H   1.0    0.16    1.00    1.43    72.83048    58.18491    45.76046
   346  H   1.0    0.28    1.00    1.43    57.06697    60.34804    35.96610
   347  H   1.0    0.13    1.00    1.43    50.59798    60.56871    37.45080
   348  H   1.0    0.30    1.00    1.43    50.87040    52.92962    34.06435
   349  H   1.0    0.14    1.00    1.43    43.01094    45.89538    38.07883
   350  H   1.0    0.29    1.00    1.43    56.27542    25.23512    51.89300
   351  H   1.0    0.12    1.00    1.43    47.37928    42.85510    53.91679
   352  H   1.0    0.29    1.00    1.43    61.38592    63.03774    61.93271
   353  H   1.0    0.13    1.00    1.43    65.10994    58.53982    59.02089
   354  H   1.0    0.30    1.00    1.43    61.68992    50.71037    62.86748
   355  H   1.0    0.13    1.00    1.43    67.40958    47.74702    62.26632
   356  H   1.0    0.29    1.00    1.43    53.13137    40.67578    60.67976
   357  H   1.0    0.12    1.00    1.43    50.75913    33.64194    59.87788

           ------------------------------------------------- 
          |        Self-Consistent Charge Iterations        |
           ------------------------------------------------- 

          ...................................................
          :                      SETUP                      :
          :.................................................:
          :  # basis functions                 873          :
          :  # atomic orbitals                 872          :
          :  # shells                          528          :
          :  # electrons                       946          :
          :  max. iterations                   250          :
          :  Hamiltonian                  GFN2-xTB          :
          :  restarted?                      false          :
          :  GBSA solvation                   true          :
          :  PC potential                    false          :
          :  electronic temp.          500.0000000     K    :
          :  accuracy                    0.1000000          :
          :  -> integral cutoff          0.3500000E+02      :
          :  -> integral neglect         0.1000000E-08      :
          :  -> SCF convergence          0.1000000E-06 Eh   :
          :  -> wf. convergence          0.1000000E-04 e    :
          :  Broyden damping             0.4000000          :
          ...................................................

 iter      E             dE          RMSdq      gap      omega  full diag
   1   -535.4208705 -0.535421E+03  0.414E+00    1.73       0.0  T
   2   -536.7652365 -0.134437E+01  0.218E+00    1.48       1.0  T
   3   -536.8180288 -0.527923E-01  0.119E+00    1.86       1.0  T
   4   -536.8423500 -0.243211E-01  0.328E-01    1.27       1.0  T
   5   -536.8647311 -0.223811E-01  0.134E-01    1.45       1.0  T
   6   -536.8663769 -0.164580E-02  0.740E-02    1.45       1.0  T
   7   -536.8668826 -0.505705E-03  0.341E-02    1.46       1.0  T
   8   -536.8669579 -0.753496E-04  0.137E-02    1.47       1.0  T
   9   -536.8669685 -0.105528E-04  0.703E-03    1.46       1.0  T
  10   -536.8669720 -0.358687E-05  0.319E-03    1.46       1.7  T
  11   -536.8669727 -0.620439E-06  0.152E-03    1.46       3.5  T
  12   -536.8669729 -0.189149E-06  0.627E-04    1.46       8.4  T
  13   -536.8669729 -0.267760E-07  0.312E-04    1.46      17.0  T
  14   -536.8669729 -0.859313E-08  0.163E-04    1.46      32.4  T
  15   -536.8669729 -0.211594E-08  0.702E-05    1.46      75.4  T
  16   -536.8669729 -0.460545E-09  0.306E-05    1.46     173.1  T

   *** convergence criteria satisfied after 16 iterations ***

         #    Occupation            Energy/Eh            Energy/eV
      -------------------------------------------------------------
         1        2.0000           -0.7404967             -20.1499
       ...           ...                  ...                  ...
       467        2.0000           -0.3657004              -9.9512
       468        2.0000           -0.3652494              -9.9389
       469        2.0000           -0.3642023              -9.9104
       470        2.0000           -0.3624091              -9.8617
       471        2.0000           -0.3536916              -9.6244
       472        2.0000           -0.3536866              -9.6243
       473        2.0000           -0.3533891              -9.6162 (HOMO)
       474        0.0000           -0.2996128              -8.1529 (LUMO)
       475                         -0.2911408              -7.9223
       476                         -0.2873074              -7.8180
       477                         -0.2860564              -7.7840
       478                         -0.2848960              -7.7524
       ...                                ...                  ...
       872                          0.7262807              19.7631
      -------------------------------------------------------------
                  HL-Gap            0.0537764 Eh            1.4633 eV
             Fermi-level           -0.3257305 Eh           -8.8636 eV

 SCC (total)                   0 d,  0 h,  0 min,  5.608 sec
 SCC setup                      ...        0 min,  0.065 sec (  1.159%)
 Dispersion                     ...        0 min,  0.043 sec (  0.772%)
 integral evaluation            ...        0 min,  0.163 sec (  2.900%)
 zeroth order Hamiltonian       ...        0 min,  0.007 sec (  0.126%)
 iterations                     ...        0 min,  4.694 sec ( 83.706%)
 molecular gradient             ...        0 min,  0.612 sec ( 10.919%)
 printout                       ...        0 min,  0.023 sec (  0.415%)

         :::::::::::::::::::::::::::::::::::::::::::::::::::::
         ::                     SUMMARY                     ::
         :::::::::::::::::::::::::::::::::::::::::::::::::::::
         :: total energy             -529.862653539757 Eh   ::
         :: total w/o Gsasa/hb       -529.808930758297 Eh   ::
         :: gradient norm               0.588744116952 Eh/α ::
         :: HOMO-LUMO gap               1.463329340198 eV   ::
         ::.................................................::
         :: SCC energy               -536.885113970168 Eh   ::
         :: -> isotropic ES             1.426760165183 Eh   ::
         :: -> anisotropic ES          -0.045184559653 Eh   ::
         :: -> anisotropic XC           0.201790626294 Eh   ::
         :: -> dispersion              -0.479293589880 Eh   ::
         :: -> Gsolv                   -0.363052056019 Eh   ::
         ::    -> Gborn                -0.309329274559 Eh   ::
         ::    -> Gsasa                -0.019998517707 Eh   ::
         ::    -> Ghb                  -0.035581706879 Eh   ::
         ::    -> Gshift                0.001857443127 Eh   ::
         :: repulsion energy            6.977867290103 Eh   ::
         :: add. restraining            0.000000000000 Eh   ::
         :::::::::::::::::::::::::::::::::::::::::::::::::::::

           -------------------------------------------------
          |                Property Printout                |
           -------------------------------------------------

    * Orbital Energies and Occupations

         #    Occupation            Energy/Eh            Energy/eV
      -------------------------------------------------------------
         1        2.0000           -0.7404967             -20.1499
       ...           ...                  ...                  ...
       461        2.0000           -0.3774037             -10.2697
       462        2.0000           -0.3769153             -10.2564
       463        2.0000           -0.3729821             -10.1494
       464        2.0000           -0.3687848             -10.0351
       465        2.0000           -0.3678312             -10.0092
       466        2.0000           -0.3659353              -9.9576
       467        2.0000           -0.3657004              -9.9512
       468        2.0000           -0.3652494              -9.9389
       469        2.0000           -0.3642023              -9.9104
       470        2.0000           -0.3624091              -9.8617
       471        2.0000           -0.3536916              -9.6244
       472        2.0000           -0.3536866              -9.6243
       473        2.0000           -0.3533891              -9.6162 (HOMO)
       474        0.0000           -0.2996128              -8.1529 (LUMO)
       475                         -0.2911408              -7.9223
       476                         -0.2873074              -7.8180
       477                         -0.2860564              -7.7840
       478                         -0.2848960              -7.7524
       479                         -0.2827378              -7.6937
       480                         -0.2786230              -7.5817
       481                         -0.2493643              -6.7855
       482                         -0.2444619              -6.6521
       483                         -0.2386911              -6.4951
       484                         -0.2339397              -6.3658
       ...                                ...                  ...
       872                          0.7262807              19.7631
      -------------------------------------------------------------
                  HL-Gap            0.0537764 Eh            1.4633 eV
             Fermi-level           -0.3257305 Eh           -8.8636 eV

   #   Z        covCN         q      C6AA      α(0)
   1   7 N      2.636    -0.380    29.820     8.110
   2   6 C      3.789     0.019    20.266     6.412
   3   6 C      2.755     0.270    22.440     7.757
   4   8 O      0.858    -0.483    23.414     6.488
   5   6 C      3.809    -0.070    21.829     6.651
   6   6 C      3.059    -0.033    28.773     8.797
   7   6 C      3.040    -0.009    28.202     8.710
   8   6 C      3.117    -0.022    28.377     8.725
   9   7 N      2.776    -0.113    23.466     7.195
  10   6 C      3.095     0.044    26.910     8.502
  11   6 C      2.912    -0.043    29.068     8.841
  12   6 C      2.910    -0.057    29.407     8.892
  13   6 C      2.920    -0.047    29.163     8.856
  14   6 C      2.923    -0.040    29.002     8.832
  15   1 H      0.860     0.142     1.454     1.889
  16   1 H      0.924     0.070     2.089     2.260
  17   1 H      0.924     0.046     2.371     2.408
  18   1 H      0.925     0.043     2.407     2.426
  19   1 H      0.926     0.039     2.465     2.455
  20   1 H      0.860     0.193     1.143     1.675
  21   1 H      0.926     0.022     2.697     2.568
  22   1 H      0.926     0.029     2.606     2.525
  23   1 H      0.925     0.022     2.710     2.575
  24   1 H      0.926     0.025     2.664     2.552
  25   7 N      2.690    -0.190    25.112     7.443
  26   6 C      3.795     0.023    20.194     6.399
  27   6 C      2.758     0.265    22.529     7.773
  28   8 O      0.858    -0.456    22.824     6.405
  29   6 C      3.756    -0.107    22.602     6.778
  30   1 H      0.860     0.223     0.995     1.563
  31   1 H      0.924     0.080     1.977     2.199
  32   1 H      0.925     0.030     2.590     2.517
  33   1 H      0.925     0.064     2.155     2.296
  34   1 H      0.925     0.061     2.182     2.310
  35   7 N      2.690    -0.176    24.814     7.398
  36   6 C      3.795     0.035    19.987     6.366
  37   6 C      2.767     0.275    22.354     7.743
  38   8 O      0.859    -0.552    24.966     6.699
  39   6 C      3.804    -0.097    22.339     6.729
  40   6 C      2.686     0.373    20.675     7.441
  41   8 O      0.856    -0.592    25.919     6.826
  42   8 O      0.856    -0.620    26.616     6.917
  43   1 H      0.860     0.185     1.184     1.705
  44   1 H      0.924     0.085     1.931     2.173
  45   1 H      0.925     0.056     2.241     2.341
  46   1 H      0.924     0.027     2.626     2.534
  47   7 N      2.753    -0.078    22.746     7.083
  48   6 C      3.831     0.024    20.147     6.386
  49   6 C      2.757     0.286    22.148     7.707
  50   8 O      0.858    -0.502    23.823     6.544
  51   6 C      3.830    -0.075    21.900     6.659
  52   6 C      3.827    -0.072    21.852     6.652
  53   6 C      3.767    -0.013    20.843     6.507
  54   1 H      0.924     0.069     2.098     2.265
  55   1 H      0.925     0.057     2.238     2.339
  56   1 H      0.925     0.078     1.997     2.210
  57   1 H      0.925     0.076     2.022     2.224
  58   1 H      0.925     0.078     2.005     2.214
  59   1 H      0.924     0.079     1.989     2.205
  60   1 H      0.925     0.083     1.945     2.181
  61   7 N      2.689    -0.209    25.554     7.508
  62   6 C      3.804     0.038    19.931     6.356
  63   6 C      2.759     0.287    22.139     7.705
  64   8 O      0.859    -0.509    23.975     6.565
  65   6 C      3.853    -0.020    20.893     6.501
  66   6 C      3.802    -0.063    21.702     6.632
  67   6 C      3.755    -0.114    22.736     6.799
  68   6 C      3.751    -0.115    22.773     6.805
  69   1 H      0.859     0.226     0.984     1.554
  70   1 H      0.923     0.062     2.174     2.306
  71   1 H      0.924     0.036     2.506     2.476
  72   1 H      0.924     0.041     2.437     2.441
  73   1 H      0.924     0.051     2.310     2.377
  74   1 H      0.925     0.066     2.126     2.280
  75   1 H      0.925     0.017     2.774     2.605
  76   1 H      0.925     0.050     2.318     2.381
  77   1 H      0.925     0.059     2.214     2.327
  78   1 H      0.925     0.049     2.333     2.389
  79   1 H      0.925     0.034     2.528     2.486
  80   7 N      2.692    -0.210    25.571     7.510
  81   6 C      3.801     0.047    19.791     6.334
  82   6 C      2.760     0.290    22.082     7.695
  83   8 O      0.859    -0.512    24.053     6.575
  84   6 C      3.812    -0.036    21.208     6.555
  85   6 C      3.797    -0.085    22.121     6.697
  86   6 C      2.686     0.373    20.684     7.443
  87   8 O      0.856    -0.636    27.016     6.969
  88   8 O      0.856    -0.641    27.143     6.985
  89   1 H      0.859     0.224     0.992     1.560
  90   1 H      0.923     0.032     2.565     2.504
  91   1 H      0.924     0.035     2.516     2.481
  92   1 H      0.924     0.037     2.483     2.464
  93   1 H      0.924     0.006     2.953     2.687
  94   1 H      0.924     0.012     2.855     2.643
  95   7 N      2.691    -0.187    25.053     7.434
  96   6 C      3.798     0.040    19.898     6.351
  97   6 C      2.757     0.283    22.209     7.717
  98   8 O      0.859    -0.496    23.686     6.525
  99   6 C      3.810    -0.067    21.767     6.641
 100   6 C      3.849    -0.010    20.721     6.475
 101   6 C      3.755    -0.107    22.609     6.780
 102   6 C      3.758    -0.115    22.762     6.802
 103   1 H      0.860     0.214     1.039     1.597
 104   1 H      0.923     0.051     2.302     2.373
 105   1 H      0.924     0.044     2.393     2.419
 106   1 H      0.924     0.049     2.333     2.389
 107   1 H      0.924     0.036     2.506     2.475
 108   1 H      0.925     0.061     2.192     2.315
 109   1 H      0.925     0.026     2.640     2.541
 110   1 H      0.925     0.033     2.538     2.491
 111   1 H      0.925     0.061     2.192     2.316
 112   1 H      0.925     0.048     2.348     2.396
 113   1 H      0.925     0.045     2.384     2.414
 114   7 N      2.691    -0.185    25.006     7.427
 115   6 C      3.804     0.032    20.032     6.372
 116   6 C      2.758     0.286    22.153     7.708
 117   8 O      0.858    -0.514    24.092     6.581
 118   6 C      3.854    -0.018    20.867     6.497
 119   6 C      3.804    -0.062    21.683     6.629
 120   6 C      3.755    -0.113    22.712     6.795
 121   6 C      3.752    -0.106    22.583     6.777
 122   1 H      0.860     0.228     0.976     1.547
 123   1 H      0.923     0.063     2.163     2.300
 124   1 H      0.924     0.040     2.448     2.447
 125   1 H      0.924     0.050     2.324     2.384
 126   1 H      0.924     0.042     2.425     2.435
 127   1 H      0.925     0.065     2.139     2.287
 128   1 H      0.925     0.027     2.630     2.536
 129   1 H      0.925     0.048     2.342     2.393
 130   1 H      0.925     0.051     2.303     2.373
 131   1 H      0.925     0.029     2.605     2.524
 132   1 H      0.925     0.045     2.379     2.412
 133   7 N      2.693    -0.186    25.036     7.431
 134   6 C      3.800     0.043    19.849     6.343
 135   6 C      2.760     0.280    22.258     7.726
 136   8 O      0.859    -0.507    23.943     6.560
 137   6 C      3.812    -0.106    22.511     6.753
 138   6 C      2.743     0.294    22.017     7.683
 139   8 O      0.859    -0.474    23.212     6.460
 140   7 N      2.639    -0.290    27.491     7.787
 141   1 H      0.860     0.225     0.985     1.555
 142   1 H      0.923     0.065     2.142     2.289
 143   1 H      0.924     0.072     2.059     2.244
 144   1 H      0.925     0.077     2.013     2.219
 145   1 H      0.860     0.236     0.939     1.518
 146   1 H      0.860     0.224     0.992     1.560
 147   7 N      2.691    -0.190    25.116     7.443
 148   6 C      3.801     0.033    20.022     6.371
 149   6 C      2.758     0.292    22.056     7.691
 150   8 O      0.858    -0.495    23.684     6.525
 151   6 C      3.809    -0.071    21.842     6.653
 152   6 C      3.849    -0.006    20.653     6.464
 153   6 C      3.755    -0.117    22.802     6.809
 154   6 C      3.757    -0.107    22.599     6.778
 155   1 H      0.860     0.222     1.002     1.568
 156   1 H      0.924     0.059     2.205     2.322
 157   1 H      0.924     0.044     2.402     2.424
 158   1 H      0.924     0.052     2.299     2.371
 159   1 H      0.924     0.028     2.609     2.526
 160   1 H      0.925     0.056     2.248     2.345
 161   1 H      0.925     0.037     2.491     2.468
 162   1 H      0.925     0.040     2.445     2.445
 163   1 H      0.925     0.052     2.296     2.370
 164   1 H      0.925     0.035     2.515     2.480
 165   1 H      0.925     0.038     2.469     2.457
 166   7 N      2.692    -0.180    24.898     7.411
 167   6 C      3.817     0.044    19.828     6.337
 168   6 C      2.766     0.214    23.471     7.934
 169   8 O      0.856    -0.353    20.758     6.109
 170   6 C      3.802    -0.016    20.867     6.504
 171  16 S      1.917    -0.259   152.203    20.764
 172   1 H      0.860     0.227     0.976     1.548
 173   1 H      0.923     0.079     1.987     2.204
 174   1 H      0.925     0.067     2.119     2.277
 175   1 H      0.925     0.078     2.001     2.212
 176   1 H      0.923     0.197     1.114     1.650
 177   7 N      2.635    -0.385    29.962     8.130
 178   6 C      3.784     0.044    19.859     6.348
 179   6 C      2.766     0.197    23.791     7.988
 180   8 O      0.856    -0.369    21.066     6.154
 181   6 C      3.812    -0.073    21.877     6.658
 182   6 C      2.971     0.013    27.731     8.638
 183   6 C      2.926    -0.038    28.952     8.824
 184   6 C      2.924    -0.041    29.023     8.835
 185   6 C      2.919    -0.032    28.793     8.799
 186   6 C      2.919    -0.033    28.813     8.802
 187   6 C      2.921    -0.032    28.802     8.801
 188   1 H      0.860     0.172     1.261     1.759
 189   1 H      0.923     0.046     2.365     2.405
 190   1 H      0.924     0.064     2.157     2.297
 191   1 H      0.924     0.055     2.261     2.351
 192   1 H      0.926     0.039     2.456     2.451
 193   1 H      0.926     0.036     2.505     2.475
 194   1 H      0.926     0.045     2.377     2.411
 195   1 H      0.926     0.031     2.570     2.507
 196   1 H      0.926     0.021     2.723     2.580
 197   7 N      2.632    -0.397    30.282     8.173
 198   6 C      3.788     0.037    19.974     6.365
 199   6 C      2.759     0.269    22.450     7.759
 200   8 O      0.859    -0.503    23.857     6.549
 201   6 C      3.853    -0.004    20.608     6.457
 202   6 C      3.755    -0.095    22.364     6.743
 203   6 C      3.755    -0.115    22.747     6.801
 204   1 H      0.860     0.183     1.198     1.714
 205   1 H      0.923     0.019     2.752     2.594
 206   1 H      0.924     0.011     2.872     2.650
 207   1 H      0.925     0.028     2.616     2.529
 208   1 H      0.925     0.008     2.922     2.673
 209   1 H      0.925     0.048     2.339     2.392
 210   1 H      0.925     0.034     2.526     2.486
 211   1 H      0.925     0.074     2.037     2.232
 212   1 H      0.925     0.033     2.537     2.491
 213   7 N      2.690    -0.162    24.511     7.353
 214   6 C      3.799     0.031    20.060     6.377
 215   6 C      2.765     0.204    23.661     7.966
 216   8 O      0.856    -0.363    20.952     6.137
 217   6 C      3.808    -0.069    21.809     6.648
 218   6 C      3.058    -0.033    28.757     8.794
 219   6 C      3.032    -0.012    28.292     8.725
 220   6 C      3.115    -0.019    28.320     8.717
 221   7 N      2.776    -0.106    23.320     7.172
 222   6 C      3.088     0.043    26.938     8.508
 223   6 C      2.911    -0.037    28.917     8.818
 224   6 C      2.909    -0.057    29.413     8.893
 225   6 C      2.920    -0.041    29.021     8.834
 226   6 C      2.925    -0.042    29.042     8.838
 227   1 H      0.860     0.219     1.014     1.577
 228   1 H      0.924     0.084     1.937     2.176
 229   1 H      0.924     0.067     2.124     2.279
 230   1 H      0.924     0.067     2.123     2.279
 231   1 H      0.926     0.050     2.317     2.380
 232   1 H      0.860     0.190     1.158     1.686
 233   1 H      0.926     0.025     2.664     2.552
 234   1 H      0.926     0.038     2.479     2.462
 235   1 H      0.926     0.011     2.870     2.649
 236   1 H      0.926     0.027     2.631     2.537
 237   7 N      2.637    -0.383    29.908     8.122
 238   6 C      3.789     0.031    20.071     6.381
 239   6 C      2.758     0.267    22.495     7.767
 240   8 O      0.858    -0.478    23.293     6.471
 241   6 C      3.812    -0.073    21.879     6.658
 242   6 C      2.970     0.010    27.786     8.646
 243   6 C      2.924    -0.042    29.051     8.839
 244   6 C      2.925    -0.040    28.997     8.831
 245   6 C      2.919    -0.034    28.844     8.807
 246   6 C      2.918    -0.032    28.807     8.801
 247   6 C      2.920    -0.035    28.870     8.811
 248   1 H      0.860     0.161     1.331     1.807
 249   1 H      0.924     0.044     2.397     2.421
 250   1 H      0.924     0.045     2.380     2.413
 251   1 H      0.924     0.035     2.515     2.480
 252   1 H      0.926     0.035     2.515     2.480
 253   1 H      0.926     0.023     2.684     2.562
 254   1 H      0.926     0.036     2.498     2.471
 255   1 H      0.926     0.035     2.519     2.482
 256   1 H      0.926     0.035     2.510     2.477
 257   7 N      2.692    -0.164    24.543     7.358
 258   6 C      3.794     0.009    20.436     6.437
 259   6 C      2.756     0.266    22.502     7.768
 260   8 O      0.858    -0.483    23.419     6.488
 261   6 C      3.804    -0.077    21.960     6.671
 262   6 C      3.801    -0.074    21.915     6.665
 263   6 C      3.801    -0.094    22.289     6.722
 264   6 C      3.730    -0.045    21.482     6.616
 265   7 N      3.483    -0.142    24.057     7.285
 266   1 H      0.860     0.202     1.094     1.639
 267   1 H      0.924     0.080     1.983     2.202
 268   1 H      0.924     0.063     2.161     2.299
 269   1 H      0.925     0.058     2.227     2.334
 270   1 H      0.924     0.061     2.190     2.314
 271   1 H      0.924     0.073     2.058     2.243
 272   1 H      0.924     0.076     2.021     2.223
 273   1 H      0.924     0.084     1.942     2.179
 274   1 H      0.924     0.124     1.583     1.967
 275   1 H      0.924     0.094     1.838     2.120
 276   1 H      0.859     0.295     0.729     1.337
 277   1 H      0.859     0.272     0.804     1.405
 278   1 H      0.859     0.308     0.689     1.300
 279   7 N      2.690    -0.170    24.673     7.377
 280   6 C      3.795     0.021    20.232     6.405
 281   6 C      2.768     0.201    23.725     7.977
 282   8 O      0.856    -0.351    20.722     6.103
 283   6 C      3.854    -0.013    20.766     6.481
 284   6 C      3.757    -0.127    22.988     6.836
 285   6 C      3.756    -0.124    22.937     6.828
 286   1 H      0.860     0.223     0.997     1.564
 287   1 H      0.924     0.088     1.894     2.152
 288   1 H      0.924     0.039     2.463     2.454
 289   1 H      0.925     0.062     2.176     2.307
 290   1 H      0.925     0.046     2.367     2.406
 291   1 H      0.925     0.060     2.198     2.318
 292   1 H      0.925     0.044     2.396     2.421
 293   1 H      0.925     0.071     2.072     2.251
 294   1 H      0.925     0.042     2.417     2.431
 295   7 N      2.637    -0.395    30.236     8.167
 296   6 C      3.782     0.041    19.901     6.355
 297   6 C      2.765     0.202    23.706     7.974
 298   8 O      0.856    -0.376    21.214     6.175
 299   6 C      3.810    -0.073    21.887     6.659
 300   6 C      3.849    -0.013    20.767     6.482
 301   6 C      3.755    -0.114    22.735     6.799
 302   6 C      3.758    -0.115    22.752     6.801
 303   1 H      0.860     0.168     1.286     1.776
 304   1 H      0.923     0.053     2.281     2.362
 305   1 H      0.924     0.056     2.248     2.344
 306   1 H      0.924     0.047     2.362     2.403
 307   1 H      0.924     0.029     2.597     2.520
 308   1 H      0.925     0.043     2.415     2.430
 309   1 H      0.925     0.039     2.465     2.455
 310   1 H      0.925     0.043     2.406     2.426
 311   1 H      0.925     0.039     2.468     2.457
 312   1 H      0.925     0.047     2.352     2.398
 313   1 H      0.925     0.035     2.511     2.478
 314   7 N      2.636    -0.401    30.392     8.188
 315   6 C      3.782     0.042    19.887     6.353
 316   6 C      2.765     0.198    23.779     7.986
 317   8 O      0.856    -0.390    21.489     6.215
 318   6 C      3.810    -0.065    21.735     6.636
 319   6 C      3.849    -0.008    20.686     6.469
 320   6 C      3.758    -0.107    22.598     6.778
 321   6 C      3.755    -0.114    22.741     6.800
 322   1 H      0.860     0.184     1.194     1.711
 323   1 H      0.923     0.052     2.300     2.372
 324   1 H      0.924     0.040     2.444     2.445
 325   1 H      0.924     0.035     2.521     2.483
 326   1 H      0.924     0.047     2.353     2.399
 327   1 H      0.925     0.050     2.323     2.383
 328   1 H      0.925     0.029     2.608     2.525
 329   1 H      0.925     0.026     2.642     2.542
 330   1 H      0.925     0.049     2.338     2.391
 331   1 H      0.925     0.036     2.499     2.472
 332   1 H      0.925     0.043     2.416     2.431
 333   7 N      2.636    -0.380    29.816     8.110
 334   6 C      3.781     0.032    20.057     6.380
 335   6 C      2.765     0.199    23.765     7.984
 336   8 O      0.856    -0.360    20.899     6.129
 337   6 C      3.678     0.085    19.380     6.306
 338   8 O      1.656    -0.471    22.276     6.371
 339   1 H      0.860     0.162     1.321     1.800
 340   1 H      0.924     0.084     1.934     2.175
 341   1 H      0.924     0.033     2.550     2.497
 342   1 H      0.923     0.016     2.794     2.614
 343   1 H      0.805     0.334     0.626     1.243
 344   1 H      0.862     0.184     1.192     1.710
 345   1 H      0.930     0.060     2.193     2.316
 346   1 H      0.862     0.172     1.263     1.760
 347   1 H      0.930     0.078     2.002     2.213
 348   1 H      0.862     0.172     1.259     1.757
 349   1 H      0.930     0.072     2.067     2.248
 350   1 H      0.862     0.182     1.204     1.718
 351   1 H      0.930     0.088     1.897     2.154
 352   1 H      0.862     0.185     1.184     1.704
 353   1 H      0.930     0.069     2.092     2.261
 354   1 H      0.862     0.179     1.222     1.731
 355   1 H      0.930     0.069     2.096     2.264
 356   1 H      0.862     0.187     1.172     1.696
 357   1 H      0.930     0.075     2.033     2.229

 Mol. C6AA /au·bohr⁶  :    1210365.385652
 Mol. C8AA /au·bohr⁸  :   27383142.609476
 Mol. α(0) /au        :       1664.088235


Wiberg/Mayer (AO) data.
largest (>0.10) Wiberg bond orders for each atom
          total WBO             WBO to atom ...
     1  N   2.999        C    2 1.019    H   15 0.961    H  344 0.950
     2  C   3.981        N    1 1.019    H   16 0.951    C    3 0.946    C    5 0.944
     3  C   3.938        O    4 1.659    N   25 1.264    C    2 0.946
     4  O   1.971        C    3 1.659    N   25 0.192
     5  C   3.995        C    6 1.018    H   17 0.973    H   18 0.966    C    2 0.944
     6  C   3.975        C    7 1.571    C    8 1.206    C    5 1.018
     7  C   3.950        C    6 1.571    N    9 1.203    H   19 0.969
     8  C   3.984        C   11 1.330    C   10 1.245    C    6 1.206
     9  N   3.547        C    7 1.203    C   10 1.186    H   20 0.935
    10  C   3.962        C   12 1.335    C    8 1.245    N    9 1.186
    11  C   3.992        C   13 1.506    C    8 1.330    H   21 0.964    C   12 0.112
    12  C   3.989        C   14 1.497    C   10 1.335    H   22 0.968    C   11 0.112
    13  C   3.991        C   11 1.506    C   14 1.368    H   23 0.972
    14  C   3.991        C   12 1.497    C   13 1.368    H   24 0.972
    15  H   0.979        N    1 0.961
    16  H   0.995        C    2 0.951
    17  H   0.997        C    5 0.973
    18  H   0.998        C    5 0.966
    19  H   0.998        C    7 0.969
    20  H   0.962        N    9 0.935
    21  H   0.999        C   11 0.964
    22  H   0.999        C   12 0.968
    23  H   0.999        C   13 0.972
    24  H   0.999        C   14 0.972
    25  N   3.438        C    3 1.264    C   26 0.998    H   30 0.893    O    4 0.192
    26  C   3.976        N   25 0.998    C   29 0.976    C   27 0.947    H   31 0.946
    27  C   3.944        O   28 1.622    N   35 1.286    C   26 0.947
    28  O   1.973        C   27 1.622    N   35 0.187
    29  C   3.990        H   32 0.983    H   33 0.979    H   34 0.977    C   26 0.976
    30  H   0.950        N   25 0.893
    31  H   0.993        C   26 0.946
    32  H   0.999        C   29 0.983
    33  H   0.995        C   29 0.979
    34  H   0.996        C   29 0.977
    35  N   3.459        C   27 1.286    C   36 0.973    H   43 0.932    O   28 0.187
    36  C   3.965        C   39 0.989    N   35 0.973    H   44 0.953    C   37 0.927
    37  C   3.945        O   38 1.554    N   47 1.342    C   36 0.927
    38  O   1.916        C   37 1.554    N   47 0.189
    39  C   3.987        C   36 0.989    H   46 0.971    H   45 0.963    C   40 0.922
    40  C   3.931        O   42 1.480    O   41 1.480    C   39 0.922
    41  O   1.855        C   40 1.480    O   42 0.200
    42  O   1.846        C   40 1.480    O   41 0.200
    43  H   0.965        N   35 0.932
    44  H   0.993        C   36 0.953
    45  H   0.996        C   39 0.963
    46  H   0.999        C   39 0.971
    47  N   3.539        C   37 1.342    C   48 0.961    C   53 0.960    O   38 0.189
    48  C   3.965        C   51 0.976    N   47 0.961    H   54 0.952    C   49 0.945
    49  C   3.942        O   50 1.605    N   61 1.295    C   48 0.945
    50  O   1.951        C   49 1.605    N   61 0.181
    51  C   3.985        C   52 1.002    C   48 0.976    H   55 0.975    H   56 0.974
    52  C   3.987        C   53 1.004    C   51 1.002    H   57 0.973    H   58 0.972
    53  C   3.947        C   52 1.004    N   47 0.960    H   59 0.960    H   60 0.955
    54  H   0.995        C   48 0.952
    55  H   0.997        C   51 0.975
    56  H   0.993        C   51 0.974
    57  H   0.993        C   52 0.973
    58  H   0.994        C   52 0.972
    59  H   0.994        C   53 0.960
    60  H   0.993        C   53 0.955
    61  N   3.435        C   49 1.295    C   62 0.979    H   69 0.859    O   50 0.181
    62  C   3.967        N   61 0.979    C   65 0.970    H   70 0.951    C   63 0.936
    63  C   3.936        O   64 1.588    N   80 1.321    C   62 0.936
    64  O   1.953        C   63 1.588    N   80 0.192
    65  C   3.987        C   67 1.007    C   66 0.992    C   62 0.970    H   71 0.960
    66  C   3.993        C   68 1.021    C   65 0.992    H   73 0.975    H   72 0.974
    67  C   3.993        C   65 1.007    H   75 0.985    H   76 0.984    H   74 0.983
    68  C   3.994        C   66 1.021    H   78 0.985    H   77 0.984    H   79 0.984
    69  H   0.949        N   61 0.859
    70  H   0.996        C   62 0.951
    71  H   0.999        C   65 0.960
    72  H   0.998        C   66 0.974
    73  H   0.997        C   66 0.975
    74  H   0.995        C   67 0.983
    75  H   1.000        C   67 0.985
    76  H   0.997        C   67 0.984
    77  H   0.996        C   68 0.984
    78  H   0.998        C   68 0.985
    79  H   0.999        C   68 0.984
    80  N   3.465        C   63 1.321    C   81 0.981    H   89 0.857    O   64 0.192
    81  C   3.973        N   80 0.981    C   84 0.975    H   90 0.954    C   82 0.943
    82  C   3.948        O   83 1.582    N   95 1.329    C   81 0.943
    83  O   1.935        C   82 1.582    N   95 0.189
    84  C   3.992        C   85 1.005    C   81 0.975    H   91 0.970    H   92 0.970
    85  C   3.985        C   84 1.005    H   94 0.982    H   93 0.973    C   86 0.904
    86  C   3.937        O   88 1.509    O   87 1.504    C   85 0.904
    87  O   1.796        C   86 1.504    O   88 0.219
    88  O   1.800        C   86 1.509    O   87 0.219
    89  H   0.949        N   80 0.857
    90  H   0.999        C   81 0.954
    91  H   0.998        C   84 0.970
    92  H   0.999        C   84 0.970
    93  H   1.000        C   85 0.973
    94  H   1.000        C   85 0.982
    95  N   3.477        C   82 1.329    C   96 0.966    H  103 0.902    O   83 0.189
    96  C   3.954        C   99 0.980    N   95 0.966    H  104 0.953    C   97 0.935
    97  C   3.948        O   98 1.595    N  114 1.332    C   96 0.935
    98  O   1.953        C   97 1.595    N  114 0.196
    99  C   3.983        C  100 0.990    C   96 0.980    H  105 0.971    H  106 0.969
   100  C   3.990        C  101 1.009    C  102 1.007    C   99 0.990    H  107 0.964
   101  C   3.995        C  100 1.009    H  109 0.984    H  108 0.982    H  110 0.981
   102  C   3.993        C  100 1.007    H  112 0.985    H  113 0.984    H  111 0.983
   103  H   0.954        N   95 0.902
   104  H   0.997        C   96 0.953
   105  H   0.998        C   99 0.971
   106  H   0.998        C   99 0.969
   107  H   0.998        C  100 0.964
   108  H   0.996        C  101 0.982
   109  H   0.999        C  101 0.984
   110  H   0.999        C  101 0.981
   111  H   0.996        C  102 0.983
   112  H   0.998        C  102 0.985
   113  H   0.998        C  102 0.984
   114  N   3.482        C   97 1.332    C  115 0.974    H  122 0.886    O   98 0.196
   115  C   3.961        N  114 0.974    C  118 0.965    H  123 0.952    C  116 0.938
   116  C   3.944        O  117 1.604    N  133 1.320    C  115 0.938
   117  O   1.924        C  116 1.604    N  133 0.193
   118  C   3.985        C  120 1.009    C  119 0.993    C  115 0.965    H  124 0.962
   119  C   3.994        C  121 1.019    C  118 0.993    H  125 0.975    H  126 0.973
   120  C   3.993        C  118 1.009    H  129 0.986    H  128 0.985    H  127 0.979
   121  C   3.995        C  119 1.019    H  131 0.987    H  130 0.985    H  132 0.984
   122  H   0.948        N  114 0.886
   123  H   0.996        C  115 0.952
   124  H   0.998        C  118 0.962
   125  H   0.997        C  119 0.975
   126  H   0.998        C  119 0.973
   127  H   0.995        C  120 0.979
   128  H   0.999        C  120 0.985
   129  H   0.998        C  120 0.986
   130  H   0.997        C  121 0.985
   131  H   0.999        C  121 0.987
   132  H   0.998        C  121 0.984
   133  N   3.477        C  116 1.320    C  134 0.984    H  141 0.887    O  117 0.193
   134  C   3.971        C  137 0.989    N  133 0.984    H  142 0.952    C  135 0.931
   135  C   3.949        O  136 1.617    N  147 1.324    C  134 0.931
   136  O   1.934        C  135 1.617    N  147 0.201
   137  C   3.992        C  134 0.989    C  138 0.960    H  144 0.959    H  143 0.951
   138  C   3.951        O  139 1.668    N  140 1.295    C  137 0.960
   139  O   1.972        C  138 1.668    N  140 0.200
   140  N   3.382        C  138 1.295    H  146 0.932    H  145 0.922    O  139 0.200
   141  H   0.949        N  133 0.887
   142  H   0.995        C  134 0.952
   143  H   0.995        C  137 0.951
   144  H   0.994        C  137 0.959
   145  H   0.943        N  140 0.922
   146  H   0.950        N  140 0.932
   147  N   3.475        C  135 1.324    C  148 0.971    H  155 0.887    O  136 0.201
   148  C   3.961        C  151 0.983    N  147 0.971    H  156 0.954    C  149 0.933
   149  C   3.948        O  150 1.627    N  166 1.309    C  148 0.933
   150  O   1.957        C  149 1.627    N  166 0.196
   151  C   3.986        C  152 0.992    C  148 0.983    H  157 0.973    H  158 0.966
   152  C   3.993        C  153 1.010    C  154 1.008    C  151 0.992    H  159 0.966
   153  C   3.995        C  152 1.010    H  162 0.987    H  161 0.984    H  160 0.984
   154  C   3.995        C  152 1.008    H  164 0.987    H  165 0.985    H  163 0.980
   155  H   0.951        N  147 0.887
   156  H   0.996        C  148 0.954
   157  H   0.998        C  151 0.973
   158  H   0.997        C  151 0.966
   159  H   0.999        C  152 0.966
   160  H   0.997        C  153 0.984
   161  H   0.999        C  153 0.984
   162  H   0.998        C  153 0.987
   163  H   0.997        C  154 0.980
   164  H   0.999        C  154 0.987
   165  H   0.999        C  154 0.985
   166  N   3.468        C  149 1.309    C  167 0.979    H  172 0.891    O  150 0.196
   167  C   3.967        N  166 0.979    C  170 0.979    C  168 0.960    H  173 0.945
   168  C   3.905        O  169 1.900    C  167 0.960    H  345 0.956
   169  O   2.049        C  168 1.900
   170  C   3.975        S  171 0.995    C  167 0.979    H  175 0.973    H  174 0.967
   171  S   2.028        C  170 0.995    H  176 0.948
   172  H   0.948        N  166 0.891
   173  H   0.994        C  167 0.945
   174  H   0.995        C  170 0.967
   175  H   0.993        C  170 0.973
   176  H   0.961        S  171 0.948
   177  N   3.003        C  178 1.011    H  346 0.955    H  188 0.949
   178  C   3.983        N  177 1.011    C  179 0.973    H  189 0.960    C  181 0.949
   179  C   3.889        O  180 1.870    C  178 0.973    H  347 0.953
   180  O   2.051        C  179 1.870
   181  C   3.991        C  182 1.009    H  190 0.969    H  191 0.962    C  178 0.949
   182  C   3.988        C  184 1.418    C  183 1.405    C  181 1.009    C  187 0.108
   183  C   3.992        C  185 1.451    C  182 1.405    H  192 0.968    C  186 0.113
   184  C   3.990        C  186 1.437    C  182 1.418    H  193 0.968    C  185 0.110
   185  C   3.991        C  183 1.451    C  187 1.432    H  194 0.966    C  184 0.110
   186  C   3.992        C  187 1.444    C  184 1.437    H  195 0.971    C  183 0.113
   187  C   3.990        C  186 1.444    C  185 1.432    H  196 0.967    C  182 0.108
   188  H   0.970        N  177 0.949
   189  H   0.998        C  178 0.960
   190  H   0.996        C  181 0.969
   191  H   0.997        C  181 0.962
   192  H   0.998        C  183 0.968
   193  H   0.999        C  184 0.968
   194  H   0.998        C  185 0.966
   195  H   0.999        C  186 0.971
   196  H   0.999        C  187 0.967
   197  N   3.002        C  198 1.025    H  348 0.959    H  204 0.923
   198  C   3.986        N  197 1.025    H  205 0.957    C  201 0.953    C  199 0.942
   199  C   3.947        O  200 1.629    N  213 1.296    C  198 0.942
   200  O   1.941        C  199 1.629    N  213 0.191
   201  C   3.992        C  203 1.010    C  202 1.008    H  206 0.968    C  198 0.953
   202  C   3.996        C  201 1.008    H  208 0.988    H  207 0.985    H  209 0.982
   203  C   3.992        C  201 1.010    H  212 0.982    H  210 0.980    H  211 0.971
   204  H   0.967        N  197 0.923
   205  H   0.999        C  198 0.957
   206  H   1.000        C  201 0.968
   207  H   0.999        C  202 0.985
   208  H   1.000        C  202 0.988
   209  H   0.998        C  202 0.982
   210  H   0.999        C  203 0.980
   211  H   0.994        C  203 0.971
   212  H   0.999        C  203 0.982
   213  N   3.475        C  199 1.296    C  214 0.966    H  227 0.915    O  200 0.191
   214  C   3.957        N  213 0.966    C  217 0.966    C  215 0.963    H  228 0.952
   215  C   3.895        O  216 1.902    C  214 0.963    H  349 0.955
   216  O   2.036        C  215 1.902
   217  C   3.986        C  218 1.013    H  229 0.968    C  214 0.966    H  230 0.964
   218  C   3.974        C  219 1.573    C  220 1.210    C  217 1.013
   219  C   3.954        C  218 1.573    N  221 1.207    H  231 0.968
   220  C   3.984        C  223 1.329    C  222 1.244    C  218 1.210
   221  N   3.548        C  219 1.207    C  222 1.183    H  232 0.936
   222  C   3.961        C  224 1.337    C  220 1.244    N  221 1.183
   223  C   3.992        C  225 1.505    C  220 1.329    H  233 0.968    C  224 0.113
   224  C   3.988        C  226 1.495    C  222 1.337    H  234 0.968    C  223 0.113
   225  C   3.990        C  223 1.505    C  226 1.369    H  235 0.971
   226  C   3.991        C  224 1.495    C  225 1.369    H  236 0.971
   227  H   0.952        N  213 0.915
   228  H   0.993        C  214 0.952
   229  H   0.995        C  217 0.968
   230  H   0.994        C  217 0.964
   231  H   0.997        C  219 0.968
   232  H   0.963        N  221 0.936
   233  H   0.999        C  223 0.968
   234  H   0.998        C  224 0.968
   235  H   1.000        C  225 0.971
   236  H   0.999        C  226 0.971
   237  N   3.003        C  238 1.028    H  248 0.955    H  350 0.947
   238  C   3.987        N  237 1.028    H  249 0.959    C  241 0.946    C  239 0.940
   239  C   3.948        O  240 1.642    N  257 1.294    C  238 0.940
   240  O   1.963        C  239 1.642    N  257 0.197
   241  C   3.995        C  242 1.013    H  251 0.971    H  250 0.968    C  238 0.946
   242  C   3.988        C  244 1.410    C  243 1.409    C  241 1.013    C  247 0.109
   243  C   3.991        C  245 1.445    C  242 1.409    H  252 0.965    C  246 0.110
   244  C   3.991        C  246 1.446    C  242 1.410    H  253 0.967    C  245 0.111
   245  C   3.992        C  243 1.445    C  247 1.438    H  254 0.971    C  244 0.111
   246  C   3.992        C  244 1.446    C  247 1.438    H  255 0.971    C  243 0.110
   247  C   3.989        C  245 1.438    C  246 1.438    H  256 0.971    C  242 0.109
   248  H   0.974        N  237 0.955
   249  H   0.998        C  238 0.959
   250  H   0.998        C  241 0.968
   251  H   0.998        C  241 0.971
   252  H   0.999        C  243 0.965
   253  H   0.999        C  244 0.967
   254  H   0.998        C  245 0.971
   255  H   0.998        C  246 0.971
   256  H   0.998        C  247 0.971
   257  N   3.474        C  239 1.294    C  258 0.986    H  266 0.923    O  240 0.197
   258  C   3.964        N  257 0.986    C  261 0.962    H  267 0.946    C  259 0.936
   259  C   3.951        O  260 1.631    N  279 1.308    C  258 0.936
   260  O   1.960        C  259 1.631    N  279 0.198
   261  C   3.987        C  262 1.005    H  268 0.972    H  269 0.965    C  258 0.962
   262  C   3.991        C  263 1.006    C  261 1.005    H  270 0.972    H  271 0.970
   263  C   3.983        C  264 1.008    C  262 1.006    H  272 0.967    H  273 0.967
   264  C   3.906        C  263 1.008    H  275 0.967    H  274 0.961    N  265 0.948
   265  N   3.667        C  264 0.948    H  277 0.911    H  276 0.899    H  278 0.889
   266  H   0.959        N  257 0.923
   267  H   0.994        C  258 0.946
   268  H   0.996        C  261 0.972
   269  H   0.996        C  261 0.965
   270  H   0.996        C  262 0.972
   271  H   0.994        C  262 0.970
   272  H   0.994        C  263 0.967
   273  H   0.993        C  263 0.967
   274  H   0.985        C  264 0.961
   275  H   0.991        C  264 0.967
   276  H   0.913        N  265 0.899
   277  H   0.926        N  265 0.911
   278  H   0.905        N  265 0.889
   279  N   3.479        C  259 1.308    C  280 0.980    H  286 0.892    O  260 0.198
   280  C   3.965        N  279 0.980    C  281 0.974    H  287 0.950    C  283 0.944
   281  C   3.892        O  282 1.883    C  280 0.974    H  351 0.952
   282  O   2.078        C  281 1.883
   283  C   3.988        C  284 1.007    C  285 1.006    H  288 0.959    C  280 0.944
   284  C   3.990        C  283 1.007    H  291 0.984    H  290 0.983    H  289 0.982
   285  C   3.991        C  283 1.006    H  294 0.980    H  292 0.979    H  293 0.979
   286  H   0.950        N  279 0.892
   287  H   0.992        C  280 0.950
   288  H   0.998        C  283 0.959
   289  H   0.995        C  284 0.982
   290  H   0.998        C  284 0.983
   291  H   0.996        C  284 0.984
   292  H   0.998        C  285 0.979
   293  H   0.995        C  285 0.979
   294  H   0.998        C  285 0.980
   295  N   2.997        C  296 1.007    H  352 0.955    H  303 0.953
   296  C   3.982        N  295 1.007    C  297 0.976    C  299 0.966    H  304 0.959
   297  C   3.886        O  298 1.876    C  296 0.976    H  353 0.955
   298  O   2.040        C  297 1.876
   299  C   3.991        C  300 0.994    H  306 0.974    H  305 0.969    C  296 0.966
   300  C   3.995        C  301 1.009    C  302 1.008    C  299 0.994    H  307 0.966
   301  C   3.996        C  300 1.009    H  310 0.986    H  308 0.985    H  309 0.984
   302  C   3.995        C  300 1.008    H  312 0.985    H  311 0.985    H  313 0.983
   303  H   0.972        N  295 0.953
   304  H   0.997        C  296 0.959
   305  H   0.997        C  299 0.969
   306  H   0.998        C  299 0.974
   307  H   0.999        C  300 0.966
   308  H   0.998        C  301 0.985
   309  H   0.998        C  301 0.984
   310  H   0.998        C  301 0.986
   311  H   0.998        C  302 0.985
   312  H   0.998        C  302 0.985
   313  H   0.999        C  302 0.983
   314  N   2.997        C  315 1.015    H  354 0.956    H  322 0.929
   315  C   3.986        N  314 1.015    C  316 0.974    C  318 0.963    H  323 0.955
   316  C   3.887        O  317 1.882    C  315 0.974    H  355 0.955
   317  O   2.018        C  316 1.882
   318  C   3.992        C  319 0.989    H  324 0.974    H  325 0.974    C  315 0.963
   319  C   3.994        C  321 1.010    C  320 1.006    C  318 0.989    H  326 0.959
   320  C   3.994        C  319 1.006    H  328 0.986    H  329 0.984    H  327 0.980
   321  C   3.996        C  319 1.010    H  331 0.986    H  332 0.983    H  330 0.983
   322  H   0.966        N  314 0.929
   323  H   0.997        C  315 0.955
   324  H   0.998        C  318 0.974
   325  H   0.999        C  318 0.974
   326  H   0.998        C  319 0.959
   327  H   0.996        C  320 0.980
   328  H   0.999        C  320 0.986
   329  H   0.999        C  320 0.984
   330  H   0.997        C  321 0.983
   331  H   0.998        C  321 0.986
   332  H   0.998        C  321 0.983
   333  N   3.000        C  334 1.024    H  339 0.955    H  356 0.952
   334  C   3.984        N  333 1.024    C  335 0.969    C  337 0.956    H  340 0.946
   335  C   3.895        O  336 1.913    C  334 0.969    H  357 0.954
   336  O   2.045        C  335 1.913
   337  C   3.961        O  338 0.999    H  341 0.968    H  342 0.964    C  334 0.956
   338  O   1.935        C  337 0.999    H  343 0.874
   339  H   0.974        N  333 0.955
   340  H   0.993        C  334 0.946
   341  H   0.999        C  337 0.968
   342  H   1.000        C  337 0.964
   343  H   0.888        O  338 0.874
   344  H   0.966        N    1 0.950
   345  H   0.996        C  168 0.956
   346  H   0.970        N  177 0.955
   347  H   0.994        C  179 0.953
   348  H   0.970        N  197 0.959
   349  H   0.995        C  215 0.955
   350  H   0.966        N  237 0.947
   351  H   0.992        C  281 0.952
   352  H   0.966        N  295 0.955
   353  H   0.995        C  297 0.955
   354  H   0.968        N  314 0.956
   355  H   0.995        C  316 0.955
   356  H   0.965        N  333 0.952
   357  H   0.994        C  335 0.954
 
molecular dipole:
                 x           y           z       tot (Debye)
 q only:      -77.346     -54.291     -32.500
   full:      -76.001     -55.472     -34.418     254.661
molecular quadrupole (traceless):
                xx          xy          yy          xz          yz          zz
 q only:    -3799.015   -6077.537     613.321   -4102.706   -2706.622    3185.694
  q+dip:    -3504.540   -6101.873     508.971   -4191.984   -2914.852    2995.569
   full:    -3505.638   -6102.706     508.901   -4196.342   -2910.044    2996.737


           -------------------------------------------------
          | TOTAL ENERGY             -529.862653539757 Eh   |
          | GRADIENT NORM               0.588744116952 Eh/α |
          | HOMO-LUMO GAP               1.463329340198 eV   |
           -------------------------------------------------

------------------------------------------------------------------------
 * finished run on 2019/05/31 at 02:07:17.124     
------------------------------------------------------------------------
 total:
 * wall-time:     0 d,  0 h,  0 min,  6.131 sec
 *  cpu-time:     0 d,  0 h,  0 min, 23.539 sec
 * ratio c/w:     3.840 speedup
 SCF:
 * wall-time:     0 d,  0 h,  0 min,  5.609 sec
 *  cpu-time:     0 d,  0 h,  0 min, 21.696 sec
 * ratio c/w:     3.868 speedup

