      -----------------------------------------------------------      
     |                   =====================                   |     
     |                           x T B                           |     
     |                   =====================                   |     
     |                         S. Grimme                         |     
     |          Mulliken Center for Theoretical Chemistry        |     
     |                    University of Bonn                     |     
     |                Version 6.1 RC1 (SAW190329)                |     
      -----------------------------------------------------------      

   This program is distributed in the hope that it will be useful,
   but WITHOUT ANY WARRANTY; without even the implied warranty of
   MERCHANTABILITY or FITNESS FOR A PARTICULAR PURPOSE.
   
   FOR NON-COMMERCIAL, ACADEMIA USE ONLY.
   
   Cite this work as:
   S. Grimme, C. Bannwarth, P. Shushkov, J. Comput. Theory Chem., 2017,
   13, 1989-2009. DOI: 10.1021/acs.jctc.7b00118
   C. Bannwarth, S. Ehlert and S. Grimme., J. Comput. Theory Chem., 2019,
   just accepted. DOI: 10.1021/acs.jctc.8b01176
   
   for sTDA-xTB:
   S. Grimme and C. Bannwarth, J. Chem. Phys., 2016, 145, 054103.
   DOI: 10.1063/1.4959605
   
   in the mass-spec context:
   V. Asgeirsson, C. Bauer and S. Grimme, Chem. Sci., 2017, 8, 4879.
   DOI: 10.1039/c7sc00601b
   
   for metadynamics refer to:
   S. Grimme, ChemRxiv, Preprint. DOI: 10.26434/chemrxiv.7660532.v1
   
   with help from (in alphabetical order)
   C. Bannwarth, F. Bohle, G. Brandenburg, E. Caldeweyher, M. Checinski,
   S. Dohm, S. Ehlert, S. Ehrlich, F. März, H. Neugebauer, J. Pisarek,
   P. Pracht, P. Shushkov, and S. Spicher.
   
 * started run on 2019/05/31 at 02:07:13.224     

           -------------------------------------------------
          |                Calculation Setup                |
           -------------------------------------------------

          program call               : /home/lum/qr/xtb-190329/bin/xtb xtb_tmp.xyz --chrg -1 --grad --gfn 2 --etemp 500 --acc 0.1 --gbsa h2o --parallel 4
          hostname                   : cu39
          coordinate file            : xtb_tmp.xyz
          omp threads                :                     4
          number of atoms            :                   448
          number of electrons        :                  1254
          charge                     :                    -1
          spin                       :                   0.0
          first test random number   :      0.17598870487839


molecular fragmentation (1/2 indicates fragments):
111111111111111112222222222222222222222222222222222222222222222222222222
222222222222222222222222222222222222222222222222222222222222222222222222
222222222222222222222222222222222222222222222222222222222222222222222222
222222222222222222222222222222222222222222222222222222222222222222222222
222222222222222222222222222222222222222222222222222222222222222222222222
222222222222222222222222222222222222222222222222222222222222222222222222
2222112222222222
# atoms in fragment 1/2:    19   429
 fragment masses (1/2) :      130.15     3041.34
CMA distance (Bohr)    :  13.866
constraining FC (au)   :  0.0500

########################################################################
# WARNING! Please study the warnings concerning your input carefully
#  - XTBPATH is not set, using XTBHOME instead
#  - Process number higher than OMP_NUM_THREADS, I hope you know what you are doing.
########################################################################

           ------------------------------------------------- 
          |                 G F N 2 - x T B                 |
          | Geometry, Frequencies, Noncovalent interactions |
          |            JCTC 2018 parametrisation            |
           ------------------------------------------------- 
 
             k(s)              :                1.8500
             k(p)              :                2.2300
             k(d)              :                2.2300
             k(f)              :                2.0000
             kEN (H0ij)        :               -2.0000
             D4 a1             :                0.5200
             D4 a2             :                5.0000
             D4 s6             :                1.0000
             D4 s8             :                2.7000
             D4 s9             :                5.0000
             alphaj            :                2.0000

  Z AO/shell   Hii/eV     exponent
  1     Wed Apr 25 08:07:45 CEST 2018   EN: 2.200 GM2: 0.406  GM3: 0.0800  RAES: 1.40
     1s    -10.707211    1.230000
  6     Wed Apr 25 08:07:45 CEST 2018   EN: 2.550 GM2: 0.538  GM3: 0.1500  RAES: 3.00
     2s    -13.970922    2.096432
     2p    -10.063292    1.800000
  7     Wed Apr 25 08:07:45 CEST 2018   EN: 3.040 GM2: 0.461  GM3:-0.0640  RAES: 1.90
     2s    -16.686243    2.339881
     2p    -12.523956    2.014332
  8     Wed Apr 25 08:07:45 CEST 2018   EN: 3.440 GM2: 0.452  GM3:-0.0517  RAES: 1.80
     2s    -20.229985    2.439742
     2p    -15.503117    2.137023

 Solvent             : h2o
 Using internal parameter file: .param_gbsa2_h2o
 Gsolv ref. state (COSMO-RS): gsolv [1 M gas/solution]
 temperature (mdtemp)       :    298.150000000000     
 dielectric constant        :    80.2000000000000     
 rho                        :    1.00000000000000     
 mass                       :    18.0000000000000     
 surface tension            :    15.5689454083859     
 probe radius               :   0.975313790000000     
 vdW radii scaling          :    1.00000000000000     
 Gshift (Eh)                :   1.857443126794793E-003
 c1                         :    1.55243817000000     
 soset                      :   0.130326360000000     
 HB correction              :  T
 Number of grid points      :          230

            Z     q(EN)     CN     RAES       Cart. coordinates
     1  N   5.0   -0.73    3.00    1.93    71.40058    87.18731    37.94751
     2  C   4.0    0.07    3.98    3.58    71.01187    89.81581    37.31114
     3  C   4.0    0.06    3.00    3.02    69.74553    90.04770    34.70033
     4  O   6.0   -0.46    1.00    1.80    68.38686    91.85639    34.20743
     5  C   4.0   -0.14    3.98    3.59    73.52396    91.24653    37.37909
     6  C   4.0   -0.13    3.98    3.59    74.62499    91.43472    40.06648
     7  C   4.0    0.27    3.00    3.02    73.37573    93.46509    41.66812
     8  O   6.0   -0.46    1.00    1.80    71.63466    93.00116    43.13172
     9  N   5.0   -0.65    3.00    1.93    74.26974    95.80927    41.37570
    10  H   1.0    0.26    1.00    1.43    73.19150    86.54989    38.08257
    11  H   1.0    0.13    0.99    1.43    69.69744    90.65381    38.67653
    12  H   1.0    0.10    0.99    1.43    74.87889    90.25142    36.18187
    13  H   1.0    0.12    0.99    1.43    73.23697    93.13147    36.60040
    14  H   1.0    0.11    0.99    1.43    74.36605    89.63678    41.03738
    15  H   1.0    0.10    0.99    1.43    76.64068    91.83208    39.93563
    16  H   1.0    0.25    1.00    1.43    75.78556    96.17451    40.29007
    17  H   1.0    0.31    1.00    1.43    73.59278    97.19812    42.50215
    18  N   5.0   -0.72    3.00    1.93    64.73355    88.25024    29.25310
    19  C   4.0    0.08    3.98    3.59    62.19241    87.25932    28.96273
    20  C   4.0    0.07    3.00    3.02    62.31838    84.55910    27.93449
    21  O   6.0   -0.45    1.00    1.80    61.03756    82.86102    28.82259
    22  C   4.0   -0.14    3.99    3.59    60.64709    88.94372    27.18508
    23  C   4.0   -0.11    3.98    3.59    57.94203    87.95020    26.89155
    24  C   4.0    0.28    3.00    3.02    56.56282    88.17916    29.39664
    25  O   6.0   -0.44    1.00    1.80    56.19281    90.23531    30.38495
    26  N   5.0   -0.65    3.00    1.93    55.74291    86.01088    30.40992
    27  H   1.0    0.27    1.00    1.43    65.13113    89.93472    28.45604
    28  H   1.0    0.15    0.99    1.43    61.28226    87.14844    30.82272
    29  H   1.0    0.13    0.99    1.43    60.56322    90.84532    27.97564
    30  H   1.0    0.11    0.99    1.43    61.55553    89.03590    25.33705
    31  H   1.0    0.11    0.99    1.43    56.97315    89.13501    25.51468
    32  H   1.0    0.12    0.99    1.43    57.94886    86.00024    26.24416
    33  H   1.0    0.30    1.00    1.43    56.16637    84.30028    29.66700
    34  H   1.0    0.29    1.00    1.43    54.95594    86.05837    32.14926
    35  N   5.0   -0.69    3.00    1.93    63.32396    79.58950    32.80621
    36  C   4.0    0.07    3.98    3.59    61.12759    79.36501    34.43734
    37  C   4.0    0.28    3.01    3.02    59.13424    77.67742    33.17585
    38  O   6.0   -0.39    1.00    1.80    58.20346    75.85214    34.25422
    39  C   4.0   -0.13    3.98    3.59    60.02191    81.96690    35.05300
    40  C   4.0   -0.15    3.98    3.58    61.77966    83.52623    36.74358
    41  C   4.0   -0.04    3.98    3.59    60.41411    85.76059    37.98819
    42  N   5.0   -0.47    3.02    1.93    59.66630    87.71337    36.20832
    43  C   4.0    0.37    3.00    3.02    61.14424    89.59575    35.42178
    44  N   5.0   -0.65    3.01    1.93    63.57431    89.72436    36.02558
    45  N   5.0   -0.63    3.02    1.93    60.13821    91.34322    33.91149
    46  H   1.0    0.27    1.00    1.43    64.02574    81.34044    32.47640
    47  H   1.0    0.10    0.99    1.43    61.68558    78.37613    36.17406
    48  H   1.0    0.15    0.99    1.43    59.66009    82.96234    33.28790
    49  H   1.0    0.12    0.99    1.43    58.22408    81.68349    36.02207
    50  H   1.0    0.09    0.99    1.43    62.50224    82.33896    38.26463
    51  H   1.0    0.12    0.99    1.43    63.39476    84.21687    35.66977
    52  H   1.0    0.13    0.99    1.43    58.68710    85.08223    38.88614
    53  H   1.0    0.11    0.99    1.43    61.64744    86.56498    39.43660
    54  H   1.0    0.28    1.00    1.43    57.78289    87.97131    35.93431
    55  H   1.0    0.26    1.00    1.43    64.47567    88.34553    37.00235
    56  H   1.0    0.29    1.00    1.43    64.69936    91.08447    35.29225
    57  H   1.0    0.33    1.00    1.43    58.26618    91.28763    33.48672
    58  H   1.0    0.28    1.00    1.43    61.16433    92.85214    33.37953
    59  N   5.0   -0.47    3.01    1.93    58.44880    78.45722    30.87801
    60  C   4.0    0.09    3.99    3.60    56.49466    77.20459    29.42966
    61  C   4.0    0.08    3.00    3.02    57.08389    74.38684    29.09856
    62  O   6.0   -0.39    1.00    1.80    55.57689    72.72709    29.67776
    63  C   4.0    0.03    3.98    3.59    56.26717    78.50006    26.83958
    64  O   6.0   -0.49    1.99    1.82    55.71588    81.08017    27.26998
    65  C   4.0   -0.22    3.98    3.59    54.21970    77.24914    25.23829
    66  H   1.0    0.31    1.00    1.43    59.34235    79.94336    30.05397
    67  H   1.0    0.15    0.99    1.43    54.69503    77.33450    30.45374
    68  H   1.0    0.12    0.99    1.43    58.11488    78.34495    25.89783
    69  H   1.0    0.24    0.99    1.43    55.38933    81.83543    25.63855
    70  H   1.0    0.10    0.99    1.43    54.15483    78.10439    23.37289
    71  H   1.0    0.11    0.99    1.43    54.62204    75.24857    25.03646
    72  H   1.0    0.12    0.99    1.43    52.39893    77.45827    26.16589
    73  N   5.0   -0.71    3.00    1.93    54.00614    79.97697    44.78890
    74  C   4.0    0.08    3.98    3.59    54.80300    80.56115    42.24928
    75  C   4.0    0.28    3.01    3.02    53.32685    82.68399    40.95753
    76  O   6.0   -0.48    1.00    1.80    54.29975    83.78261    39.14982
    77  C   4.0   -0.12    4.00    3.61    54.48900    78.23644    40.53946
    78  C   4.0   -0.02    3.03    3.02    56.32718    76.16634    41.17130
    79  C   4.0   -0.08    3.03    3.02    58.88057    76.46845    40.65187
    80  C   4.0   -0.09    3.03    3.02    55.50212    73.92292    42.24330
    81  C   4.0   -0.09    3.03    3.02    60.58132    74.56601    41.20378
    82  C   4.0   -0.09    3.03    3.02    57.19858    72.00430    42.77396
    83  C   4.0   -0.09    3.03    3.02    59.74226    72.33090    42.27233
    84  H   1.0    0.26    1.00    1.43    53.03330    78.36196    45.08739
    85  H   1.0    0.11    0.99    1.43    56.78870    81.15314    42.31326
    86  H   1.0    0.11    0.99    1.43    52.54869    77.56982    40.74315
    87  H   1.0    0.13    0.99    1.43    54.75365    78.84187    38.58180
    88  H   1.0    0.11    1.00    1.43    59.50624    78.21674    39.81700
    89  H   1.0    0.11    1.00    1.43    53.52333    73.70659    42.68567
    90  H   1.0    0.11    1.00    1.43    62.56547    74.82067    40.81695
    91  H   1.0    0.11    1.00    1.43    56.53873    70.25623    43.59133
    92  H   1.0    0.12    1.00    1.43    61.06828    70.85146    42.72541
    93  N   5.0   -0.48    3.00    1.93    50.96295    83.05118    41.71897
    94  C   4.0    0.08    4.00    3.61    49.10130    84.46414    40.28345
    95  C   4.0    0.30    3.01    3.02    49.40165    87.34334    40.55332
    96  O   6.0   -0.38    1.00    1.80    47.87768    88.69759    41.62750
    97  C   4.0   -0.09    3.98    3.59    46.45734    83.66944    41.03057
    98  C   4.0    0.32    2.99    3.02    44.44448    84.60999    39.07176
    99  O   6.0   -0.38    1.00    1.80    45.24209    85.47211    37.03519
   100  O   6.0   -0.38    1.00    1.80    42.19626    84.35525    39.71670
   101  H   1.0    0.25    1.00    1.43    50.35133    82.35621    43.40008
   102  H   1.0    0.15    0.99    1.43    49.38295    84.04301    38.26742
   103  H   1.0    0.11    0.99    1.43    46.32088    81.61381    41.13773
   104  H   1.0    0.14    0.99    1.43    45.95287    84.43696    42.87558
   105  N   5.0   -0.46    3.01    1.93    51.48766    88.18648    39.38301
   106  C   4.0    0.10    3.99    3.61    52.31845    90.78436    39.51874
   107  C   4.0    0.26    3.01    3.02    53.15961    91.54990    36.86059
   108  O   6.0   -0.43    1.00    1.80    54.86614    90.44154    35.77464
   109  C   4.0    0.04    3.98    3.58    54.53348    91.11689    41.40063
   110  O   6.0   -0.44    1.99    1.82    53.75106    90.04547    43.72067
   111  C   4.0   -0.21    3.98    3.59    55.22065    93.91125    41.63980
   112  H   1.0    0.30    1.00    1.43    52.78187    86.86316    38.83283
   113  H   1.0    0.14    0.99    1.43    50.69621    91.86550    40.20514
   114  H   1.0    0.13    0.99    1.43    56.16473    90.03826    40.68423
   115  H   1.0    0.25    0.99    1.43    54.61591    90.88082    45.08624
   116  H   1.0    0.11    0.99    1.43    56.78806    94.15070    42.95225
   117  H   1.0    0.13    0.99    1.43    55.77982    94.66765    39.81545
   118  H   1.0    0.12    0.99    1.43    53.61054    94.97003    42.35342
   119  N   5.0   -0.48    3.01    1.93    51.85237    93.45466    35.84744
   120  C   4.0    0.08    3.99    3.60    52.28569    94.50027    33.36027
   121  C   4.0    0.28    3.01    3.02    53.02999    97.28012    33.63870
   122  O   6.0   -0.46    1.00    1.80    52.64923    98.44312    35.59682
   123  C   4.0   -0.15    3.98    3.59    49.82412    94.43468    31.78073
   124  C   4.0   -0.14    3.98    3.59    48.54599    91.83713    31.74591
   125  C   4.0   -0.02    3.98    3.59    49.97905    89.84942    30.22924
   126  N   5.0   -0.48    3.02    1.93    49.71454    90.34148    27.53495
   127  C   4.0    0.37    3.00    3.02    50.22422    88.71651    25.69567
   128  N   5.0   -0.64    3.02    1.93    51.21635    86.45963    26.18634
   129  N   5.0   -0.66    3.02    1.93    49.80743    89.38808    23.30339
   130  H   1.0    0.24    1.00    1.43    50.46770    94.27296    36.87325
   131  H   1.0    0.16    0.99    1.43    53.79188    93.38601    32.48473
   132  H   1.0    0.11    0.99    1.43    48.49808    95.78660    32.59774
   133  H   1.0    0.10    0.99    1.43    50.28778    95.03567    29.86824
   134  H   1.0    0.13    0.99    1.43    48.33395    91.13127    33.66992
   135  H   1.0    0.11    0.99    1.43    46.64244    92.03217    30.98094
   136  H   1.0    0.16    0.99    1.43    51.97469    89.87673    30.75959
   137  H   1.0    0.12    0.99    1.43    49.18036    88.00098    30.68922
   138  H   1.0    0.23    1.00    1.43    48.94131    92.02127    27.06601
   139  H   1.0    0.28    1.00    1.43    51.50799    85.86620    27.97205
   140  H   1.0    0.25    1.00    1.43    51.40629    85.18080    24.79267
   141  H   1.0    0.25    1.00    1.43    49.06283    91.08381    22.86486
   142  H   1.0    0.26    1.00    1.43    50.18854    88.18894    21.87788
   143  N   5.0   -0.50    3.00    1.93    53.78561    98.40659    31.48540
   144  C   4.0    0.07    3.99    3.61    54.40252   101.07443    31.39340
   145  C   4.0    0.25    3.01    3.02    53.17610   102.34540    29.07229
   146  O   6.0   -0.45    1.00    1.80    54.15782   104.09977    27.94481
   147  C   4.0   -0.09    3.99    3.60    57.27196   101.52555    31.40621
   148  C   4.0    0.28    3.00    3.02    58.39799   100.55805    33.86720
   149  O   6.0   -0.39    1.00    1.80    58.72319    98.31845    34.26895
   150  N   5.0   -0.66    3.00    1.93    58.82865   102.35743    35.61715
   151  H   1.0    0.24    1.00    1.43    54.54092    97.32113    30.10431
   152  H   1.0    0.14    0.99    1.43    53.57334   101.94102    33.08717
   153  H   1.0    0.12    0.99    1.43    58.14256   100.50636    29.83782
   154  H   1.0    0.11    0.99    1.43    57.64585   103.53283    31.14744
   155  H   1.0    0.27    1.00    1.43    59.74646   101.89594    37.22565
   156  H   1.0    0.24    1.00    1.43    58.75928   104.20250    35.16569
   157  N   5.0   -0.49    3.01    1.93    50.93083   101.38571    28.42700
   158  C   4.0    0.06    3.99    3.60    49.59646   102.16291    26.15442
   159  C   4.0    0.10    3.00    3.02    49.97713   104.99226    25.63917
   160  O   6.0   -0.41    1.00    1.80    50.71135   105.73673    23.58955
   161  C   4.0   -0.17    3.98    3.59    46.77388   101.52834    26.42501
   162  C   4.0   -0.16    3.98    3.59    45.12619   102.67814    24.34488
   163  C   4.0   -0.04    3.98    3.59    45.70344   101.61595    21.72315
   164  N   5.0   -0.48    3.02    1.93    43.99586   102.77717    19.90861
   165  C   4.0    0.37    3.01    3.02    43.87408   102.20075    17.46637
   166  N   5.0   -0.65    3.02    1.93    45.18937   100.27372    16.53120
   167  N   5.0   -0.65    3.02    1.93    42.29678   103.47307    15.97378
   168  H   1.0    0.24    1.00    1.43    50.21060    99.93955    29.45035
   169  H   1.0    0.12    0.99    1.43    50.43385   101.18157    24.53048
   170  H   1.0    0.10    0.99    1.43    46.56001    99.47987    26.41513
   171  H   1.0    0.11    0.99    1.43    46.11276   102.24256    28.24091
   172  H   1.0    0.11    0.99    1.43    43.15782   102.29129    24.81437
   173  H   1.0    0.12    0.99    1.43    45.39890   104.72187    24.31636
   174  H   1.0    0.13    0.99    1.43    47.66442   102.04306    21.22001
   175  H   1.0    0.11    0.99    1.43    45.39555    99.57332    21.72561
   176  H   1.0    0.23    1.00    1.43    43.06341   104.32551    20.51837
   177  H   1.0    0.25    1.00    1.43    46.54801    99.43820    17.56528
   178  H   1.0    0.26    1.00    1.43    45.12580    99.87868    14.66924
   179  H   1.0    0.26    1.00    1.43    41.27781   104.93370    16.63819
   180  H   1.0    0.26    1.00    1.43    42.18487   103.08407    14.11421
   181  N   5.0   -0.69    3.00    1.93    53.51696   109.71914    28.08171
   182  C   4.0    0.08    3.99    3.60    56.02882   110.75183    27.72124
   183  C   4.0    0.28    3.02    3.02    56.90492   110.09730    25.05430
   184  O   6.0   -0.39    1.00    1.80    57.92771   111.62893    23.63407
   185  C   4.0   -0.08    3.98    3.59    57.92694   109.68791    29.64459
   186  C   4.0   -0.16    3.98    3.58    57.01752   109.90088    32.39302
   187  C   4.0   -0.21    3.98    3.59    60.45679   111.02947    29.28984
   188  C   4.0   -0.23    3.98    3.58    56.58145   112.59843    33.31633
   189  H   1.0    0.26    1.00    1.43    53.03075   109.32730    29.88213
   190  H   1.0    0.11    0.99    1.43    55.97363   112.82189    27.86474
   191  H   1.0    0.13    0.99    1.43    58.20787   107.67918    29.20691
   192  H   1.0    0.11    0.99    1.43    55.29186   108.79703    32.65781
   193  H   1.0    0.09    0.99    1.43    58.47031   109.03529    33.57039
   194  H   1.0    0.11    0.99    1.43    61.77762   110.50927    30.77272
   195  H   1.0    0.14    0.99    1.43    61.28730   110.51939    27.47888
   196  H   1.0    0.11    0.99    1.43    60.19818   113.07084    29.31184
   197  H   1.0    0.11    0.99    1.43    55.74438   112.58893    35.19429
   198  H   1.0    0.11    0.99    1.43    58.35339   113.63260    33.43719
   199  H   1.0    0.11    0.99    1.43    55.35296   113.67209    32.06261
   200  N   5.0   -0.46    3.01    1.93    56.49564   107.70156    24.37518
   201  C   4.0    0.09    4.00    3.61    57.62794   106.70791    22.09994
   202  C   4.0    0.10    3.00    3.02    56.59080   107.99385    19.74129
   203  O   6.0   -0.38    1.00    1.80    57.90434   108.28152    17.85399
   204  C   4.0   -0.13    3.98    3.59    57.20443   103.85623    21.91395
   205  C   4.0   -0.11    3.98    3.58    58.66186   102.44270    23.96340
   206  C   4.0    0.31    2.99    3.02    61.50812   103.22275    23.93022
   207  O   6.0   -0.38    1.00    1.80    62.81900   102.36016    22.16652
   208  O   6.0   -0.40    1.00    1.80    62.23658   104.63526    25.67545
   209  H   1.0    0.30    1.00    1.43    55.77473   106.46651    25.64529
   210  H   1.0    0.17    0.99    1.43    59.67157   107.10320    22.11733
   211  H   1.0    0.13    0.99    1.43    55.17678   103.49973    22.06823
   212  H   1.0    0.13    0.99    1.43    57.87936   103.24972    20.06250
   213  H   1.0    0.13    0.99    1.43    57.91944   102.89991    25.82706
   214  H   1.0    0.11    0.99    1.43    58.55535   100.41342    23.62199
   215  N   5.0   -0.72    3.00    1.93    58.79977   121.66794    40.84742
   216  C   4.0    0.06    3.99    3.60    57.98532   119.46700    39.44212
   217  C   4.0    0.28    3.01    3.02    60.10007   117.50493    39.30208
   218  O   6.0   -0.47    1.00    1.80    59.67628   115.24186    39.54510
   219  C   4.0   -0.14    3.98    3.59    57.17559   120.23204    36.77610
   220  C   4.0   -0.12    3.98    3.58    54.63511   121.59464    36.77776
   221  C   4.0    0.31    2.99    3.02    54.26289   123.13160    34.30044
   222  O   6.0   -0.39    1.00    1.80    55.93150   124.77073    33.85412
   223  O   6.0   -0.38    1.00    1.80    52.36326   122.72873    33.00847
   224  H   1.0    0.26    1.00    1.43    58.74454   123.36115    39.95436
   225  H   1.0    0.11    0.99    1.43    56.40072   118.55598    40.43123
   226  H   1.0    0.14    0.99    1.43    58.62778   121.46288    35.96888
   227  H   1.0    0.11    0.99    1.43    57.05555   118.55916    35.57080
   228  H   1.0    0.11    0.99    1.43    53.08236   120.25454    36.96490
   229  H   1.0    0.11    0.99    1.43    54.54545   122.94509    38.33817
   230  N   5.0   -0.48    3.01    1.93    62.39215   118.45746    38.86284
   231  C   4.0    0.08    3.99    3.61    64.58343   116.85508    38.51011
   232  C   4.0    0.28    3.01    3.02    65.06597   115.32549    40.91589
   233  O   6.0   -0.43    1.00    1.80    65.22344   113.01841    40.87915
   234  C   4.0    0.03    3.98    3.58    66.91179   118.47407    37.81602
   235  O   6.0   -0.48    1.99    1.82    66.49515   119.83504    35.55889
   236  C   4.0   -0.20    3.98    3.59    69.22765   116.80625    37.42411
   237  H   1.0    0.24    1.00    1.43    62.58812   120.33534    38.55723
   238  H   1.0    0.13    0.99    1.43    64.19094   115.50224    36.98528
   239  H   1.0    0.10    0.99    1.43    67.24293   119.79493    39.38610
   240  H   1.0    0.25    0.99    1.43    65.32766   121.20640    35.88311
   241  H   1.0    0.11    0.99    1.43    70.88028   117.98854    37.14772
   242  H   1.0    0.12    0.99    1.43    69.50163   115.57169    39.03916
   243  H   1.0    0.12    0.99    1.43    68.95216   115.65823    35.74593
   244  N   5.0   -0.49    3.01    1.93    65.36781   116.69320    43.01046
   245  C   4.0    0.07    4.00    3.62    65.95742   115.45853    45.38063
   246  C   4.0    0.30    3.01    3.02    63.96229   113.47229    46.02302
   247  O   6.0   -0.46    1.00    1.80    64.56731   111.39492    46.85821
   248  C   4.0   -0.15    3.99    3.60    66.15709   117.36329    47.54027
   249  C   4.0   -0.10    3.98    3.58    68.34318   119.25463    47.27741
   250  C   4.0   -0.24    3.98    3.59    68.25787   121.08464    49.51146
   251  C   4.0   -0.23    3.98    3.59    70.90907   117.94027    47.16886
   252  H   1.0    0.23    1.00    1.43    65.09332   118.58829    43.00337
   253  H   1.0    0.13    0.99    1.43    67.72660   114.40206    45.14592
   254  H   1.0    0.11    0.99    1.43    64.36493   118.38338    47.63904
   255  H   1.0    0.10    0.99    1.43    66.37940   116.29202    49.28972
   256  H   1.0    0.11    0.99    1.43    68.07012   120.32209    45.53035
   257  H   1.0    0.10    0.99    1.43    69.74653   122.48813    49.34360
   258  H   1.0    0.10    0.99    1.43    66.44558   122.04927    49.57868
   259  H   1.0    0.10    0.99    1.43    68.51231   120.06032    51.27353
   260  H   1.0    0.10    0.99    1.43    72.41061   119.34045    47.17970
   261  H   1.0    0.10    0.99    1.43    71.15016   116.70154    48.78982
   262  H   1.0    0.10    0.99    1.43    71.09988   116.81816    45.45928
   263  N   5.0   -0.48    3.01    1.93    61.56916   114.21546    45.74515
   264  C   4.0    0.07    4.00    3.62    59.48299   112.47153    46.10564
   265  C   4.0    0.33    3.01    3.02    59.96200   110.04466    44.61562
   266  O   6.0   -0.43    1.00    1.80    59.92814   107.96078    45.63618
   267  C   4.0   -0.11    3.98    3.59    56.99853   113.62900    45.24591
   268  C   4.0    0.31    2.99    3.02    54.95486   111.48074    45.13204
   269  O   6.0   -0.40    1.00    1.80    53.55963   111.25236    47.01224
   270  O   6.0   -0.40    1.00    1.80    54.91947   110.17475    43.18364
   271  H   1.0    0.25    1.00    1.43    61.15676   115.93433    45.01045
   272  H   1.0    0.13    0.99    1.43    59.36215   111.93370    48.10888
   273  H   1.0    0.11    0.99    1.43    56.39580   115.09864    46.55748
   274  H   1.0    0.13    0.99    1.43    57.22044   114.41572    43.35370
   275  N   5.0   -0.45    3.01    1.93    60.47733   110.40151    42.18164
   276  C   4.0    0.07    4.00    3.62    60.75255   108.29466    40.46331
   277  C   4.0    0.30    3.01    3.02    62.77315   106.49940    41.48546
   278  O   6.0   -0.45    1.00    1.80    62.37575   104.23209    41.74916
   279  C   4.0   -0.21    3.99    3.60    61.48995   109.28460    37.86715
   280  H   1.0    0.30    1.00    1.43    60.23940   112.12123    41.37513
   281  H   1.0    0.13    0.99    1.43    58.95504   107.25691    40.38513
   282  H   1.0    0.10    0.99    1.43    61.77537   107.73230    36.55613
   283  H   1.0    0.11    0.99    1.43    60.01150   110.53752    37.18909
   284  H   1.0    0.14    0.99    1.43    63.23098   110.36134    38.01234
   285  N   5.0   -0.47    3.01    1.93    64.98621   107.61758    41.92604
   286  C   4.0    0.09    4.00    3.61    67.17888   106.25922    42.83043
   287  C   4.0    0.31    3.01    3.02    66.45242   104.68587    45.13930
   288  O   6.0   -0.43    1.00    1.80    66.68890   102.38069    45.16004
   289  C   4.0    0.03    3.98    3.58    69.31467   108.14238    43.46177
   290  O   6.0   -0.47    1.99    1.82    69.71441   109.82527    41.44881
   291  C   4.0   -0.21    3.98    3.59    71.72092   106.73401    44.18711
   292  H   1.0    0.31    1.00    1.43    65.18408   109.50945    41.66371
   293  H   1.0    0.12    0.99    1.43    67.82003   104.92851    41.36747
   294  H   1.0    0.14    0.99    1.43    68.67677   109.33841    45.02664
   295  H   1.0    0.25    0.99    1.43    70.44898   108.91045    40.03960
   296  H   1.0    0.11    0.99    1.43    73.20910   108.07315    44.63857
   297  H   1.0    0.16    0.99    1.43    71.40420   105.52193    45.81772
   298  H   1.0    0.11    0.99    1.43    72.34487   105.53851    42.63517
   299  N   5.0   -0.48    3.01    1.93    65.51401   106.02567    47.05262
   300  C   4.0    0.08    3.99    3.61    64.83394   104.86989    49.44022
   301  C   4.0    0.30    3.01    3.02    63.25059   102.49417    49.00157
   302  O   6.0   -0.42    1.00    1.80    63.73303   100.47805    50.03768
   303  C   4.0   -0.13    3.98    3.59    63.44188   106.86012    51.01065
   304  C   4.0   -0.15    3.98    3.58    62.50900   105.97233    53.59910
   305  C   4.0   -0.01    3.99    3.60    64.47362   104.54762    55.14704
   306  N   5.0   -0.48    3.02    1.93    66.80206   105.95427    55.44148
   307  C   4.0    0.37    3.01    3.02    69.04227   104.88725    55.80152
   308  N   5.0   -0.63    3.01    1.93    69.24808   102.43627    56.30110
   309  N   5.0   -0.64    3.02    1.93    71.08605   106.37843    55.98510
   310  H   1.0    0.30    1.00    1.43    65.13723   107.89100    46.83719
   311  H   1.0    0.16    0.99    1.43    66.58699   104.22928    50.35387
   312  H   1.0    0.12    0.99    1.43    64.71975   108.46778    51.19969
   313  H   1.0    0.14    0.99    1.43    61.82923   107.51004    49.89777
   314  H   1.0    0.11    0.99    1.43    61.82317   107.61557    54.63904
   315  H   1.0    0.13    0.99    1.43    60.93093   104.66679    53.37058
   316  H   1.0    0.14    0.99    1.43    63.66307   104.08741    56.99282
   317  H   1.0    0.16    0.99    1.43    64.86900   102.76275    54.20051
   318  H   1.0    0.23    1.00    1.43    66.68456   107.84538    55.23219
   319  H   1.0    0.31    1.00    1.43    67.75860   101.23195    56.08153
   320  H   1.0    0.26    1.00    1.43    70.97080   101.62733    56.27609
   321  H   1.0    0.25    1.00    1.43    70.99007   108.16679    55.33548
   322  H   1.0    0.26    1.00    1.43    72.80494   105.56973    55.98804
   323  N   5.0   -0.48    3.01    1.93    61.24919   102.79691    47.49788
   324  C   4.0    0.07    4.00    3.62    59.50431   100.72953    47.08929
   325  C   4.0    0.30    3.01    3.02    60.90826    98.36903    46.18616
   326  O   6.0   -0.45    1.00    1.80    60.37672    96.25887    46.98860
   327  C   4.0   -0.13    3.98    3.59    57.48612   101.48970    45.16184
   328  C   4.0   -0.14    3.98    3.59    55.55904   103.28041    46.35899
   329  C   4.0   -0.02    3.98    3.59    53.55238   104.24431    44.51215
   330  N   5.0   -0.48    3.01    1.93    52.00037   102.24672    43.47047
   331  C   4.0    0.37    3.00    3.02    52.25618   101.15120    41.22109
   332  N   5.0   -0.64    3.02    1.93    54.10558   101.75486    39.63385
   333  N   5.0   -0.65    3.02    1.93    50.60841    99.39945    40.48371
   334  H   1.0    0.30    1.00    1.43    60.87371   104.49146    46.68977
   335  H   1.0    0.13    0.99    1.43    58.63147   100.22402    48.90719
   336  H   1.0    0.14    0.99    1.43    58.45853   102.40937    43.59274
   337  H   1.0    0.12    0.99    1.43    56.55519    99.77859    44.48639
   338  H   1.0    0.11    0.99    1.43    54.64599   102.32560    47.94189
   339  H   1.0    0.14    0.99    1.43    56.52795   104.94201    47.09741
   340  H   1.0    0.13    0.99    1.43    52.33251   105.56534    45.52484
   341  H   1.0    0.14    0.99    1.43    54.43857   105.34397    43.01238
   342  H   1.0    0.23    1.00    1.43    50.63018   101.59346    44.63068
   343  H   1.0    0.27    1.00    1.43    55.47551   102.96932    40.13494
   344  H   1.0    0.32    1.00    1.43    54.21036   100.82165    37.96217
   345  H   1.0    0.26    1.00    1.43    49.07907    98.95806    41.52223
   346  H   1.0    0.31    1.00    1.43    50.83187    98.67977    38.71919
   347  N   5.0   -0.48    3.01    1.93    62.52727    98.75818    44.29163
   348  C   4.0    0.08    4.00    3.62    63.94109    96.67447    43.22403
   349  C   4.0    0.30    3.01    3.02    65.71606    95.53120    45.20174
   350  O   6.0   -0.43    1.00    1.80    65.66558    93.25525    45.66214
   351  C   4.0   -0.09    3.98    3.58    65.35998    97.46615    40.82278
   352  C   4.0   -0.21    3.98    3.59    66.60243    95.14139    39.65495
   353  C   4.0   -0.20    3.98    3.59    63.55047    98.70993    38.94984
   354  H   1.0    0.30    1.00    1.43    63.11720   100.53564    43.90862
   355  H   1.0    0.13    0.99    1.43    62.56749    95.18437    42.77039
   356  H   1.0    0.14    0.99    1.43    66.81719    98.82998    41.37021
   357  H   1.0    0.13    0.99    1.43    67.56311    95.64359    37.91150
   358  H   1.0    0.15    0.99    1.43    67.97276    94.34995    40.96327
   359  H   1.0    0.12    0.99    1.43    65.17102    93.72296    39.26540
   360  H   1.0    0.12    0.99    1.43    64.54994    99.12288    37.20443
   361  H   1.0    0.13    0.99    1.43    61.97054    97.46396    38.54201
   362  H   1.0    0.14    0.99    1.43    62.85716   100.47771    39.72835
   363  N   5.0   -0.46    3.01    1.93    67.23530    97.14363    46.38895
   364  C   4.0    0.09    4.00    3.62    69.02799    96.25056    48.24942
   365  C   4.0    0.30    3.02    3.02    67.71091    94.42664    50.04382
   366  O   6.0   -0.45    1.00    1.80    68.60406    92.37376    50.66677
   367  C   4.0   -0.09    3.98    3.59    70.04566    98.42777    49.83164
   368  C   4.0    0.32    2.99    3.02    71.25595   100.60652    48.22217
   369  O   6.0   -0.41    1.00    1.80    72.31127   100.01340    46.21196
   370  O   6.0   -0.41    1.00    1.80    71.07340   102.75557    49.16277
   371  H   1.0    0.31    1.00    1.43    67.28131    99.00445    45.95362
   372  H   1.0    0.16    0.99    1.43    70.58596    95.26106    47.29499
   373  H   1.0    0.15    0.99    1.43    68.53972    99.24193    50.98463
   374  H   1.0    0.11    0.99    1.43    71.51047    97.71421    51.10155
   375  N   5.0   -0.46    3.02    1.93    65.53412    95.32233    50.94022
   376  C   4.0    0.08    4.00    3.62    64.17004    94.08460    52.94518
   377  C   4.0    0.29    3.01    3.02    63.16542    91.55169    52.03261
   378  O   6.0   -0.46    1.00    1.80    63.28088    89.66102    53.37711
   379  C   4.0   -0.09    3.98    3.59    62.02389    95.77000    53.82347
   380  C   4.0    0.32    2.99    3.02    62.96939    98.29035    55.05443
   381  O   6.0   -0.44    1.00    1.80    65.28757    98.55067    55.42154
   382  O   6.0   -0.42    1.00    1.80    61.28018    99.82041    55.60325
   383  H   1.0    0.31    1.00    1.43    64.99460    97.10563    50.51679
   384  H   1.0    0.14    0.99    1.43    65.45268    93.71287    54.53981
   385  H   1.0    0.14    0.99    1.43    60.82939    96.28055    52.22170
   386  H   1.0    0.11    0.99    1.43    60.86175    94.79450    55.22022
   387  N   5.0   -0.47    3.01    1.93    62.12355    91.56785    49.74410
   388  C   4.0    0.07    3.99    3.61    61.19010    89.27718    48.55547
   389  C   4.0    0.30    3.01    3.02    63.28981    87.29078    48.55576
   390  O   6.0   -0.40    1.00    1.80    62.96415    85.17200    49.43295
   391  C   4.0   -0.21    3.98    3.59    60.29096    89.83719    45.88294
   392  H   1.0    0.30    1.00    1.43    62.04893    93.19387    48.73428
   393  H   1.0    0.13    0.99    1.43    59.63574    88.51260    49.69925
   394  H   1.0    0.11    0.99    1.43    59.22462    88.23432    45.16762
   395  H   1.0    0.12    0.99    1.43    59.09797    91.50621    45.93968
   396  H   1.0    0.13    0.99    1.43    61.90187    90.22067    44.66913
   397  N   5.0   -0.47    3.01    1.93    65.45591    88.01500    47.49701
   398  C   4.0    0.10    4.00    3.62    67.60165    86.32174    47.36103
   399  C   4.0    0.29    3.01    3.02    68.07055    85.04690    49.90409
   400  O   6.0   -0.38    1.00    1.80    68.32426    82.75514    50.09376
   401  C   4.0    0.04    3.98    3.58    69.95601    87.76780    46.43440
   402  O   6.0   -0.50    1.99    1.82    69.57118    88.31710    43.85352
   403  C   4.0   -0.21    3.98    3.59    72.35007    86.17007    46.75123
   404  H   1.0    0.31    1.00    1.43    65.68140    89.80859    46.86333
   405  H   1.0    0.14    0.99    1.43    67.19066    84.82460    45.98008
   406  H   1.0    0.15    0.99    1.43    70.12079    89.51441    47.54018
   407  H   1.0    0.31    0.99    1.43    70.17388    90.03015    43.52503
   408  H   1.0    0.11    0.99    1.43    73.91857    87.15154    45.86044
   409  H   1.0    0.11    0.99    1.43    72.78739    85.88965    48.73531
   410  H   1.0    0.12    0.99    1.43    72.04744    84.35086    45.85069
   411  N   5.0   -0.48    3.01    1.93    68.32500    86.63118    51.85399
   412  C   4.0    0.08    4.00    3.62    68.86602    85.68014    54.36398
   413  C   4.0    0.30    3.01    3.02    66.82929    83.79912    55.16725
   414  O   6.0   -0.38    1.00    1.80    67.39481    81.71234    56.03174
   415  C   4.0   -0.09    3.98    3.58    69.10566    87.84569    56.28098
   416  C   4.0   -0.22    3.98    3.59    69.36939    86.80463    58.96087
   417  C   4.0   -0.22    3.98    3.59    71.38342    89.49808    55.63802
   418  H   1.0    0.29    1.00    1.43    68.08003    88.51317    51.62814
   419  H   1.0    0.13    0.99    1.43    70.64953    84.61581    54.30112
   420  H   1.0    0.14    0.99    1.43    67.38616    88.99382    56.16188
   421  H   1.0    0.10    0.99    1.43    69.58669    88.35483    60.28887
   422  H   1.0    0.12    0.99    1.43    67.71638    85.71996    59.51743
   423  H   1.0    0.11    0.99    1.43    71.01914    85.58984    59.10491
   424  H   1.0    0.10    0.99    1.43    71.55839    90.99739    57.03101
   425  H   1.0    0.10    0.99    1.43    73.10636    88.38033    55.66124
   426  H   1.0    0.13    0.99    1.43    71.16789    90.37726    53.79462
   427  N   5.0   -0.47    3.01    1.93    64.46415    84.57560    54.87910
   428  C   4.0    0.07    3.99    3.60    62.32629    83.03684    55.63599
   429  C   4.0    0.11    3.00    3.02    62.48755    80.41669    54.41042
   430  O   6.0   -0.38    1.00    1.80    62.30253    78.48722    55.68688
   431  C   4.0   -0.20    3.98    3.59    59.87246    84.34130    54.89561
   432  H   1.0    0.31    1.00    1.43    64.08307    86.32053    54.17831
   433  H   1.0    0.14    0.99    1.43    62.39170    82.73938    57.69180
   434  H   1.0    0.11    0.99    1.43    58.26260    83.20686    55.47431
   435  H   1.0    0.12    0.99    1.43    59.76748    86.18383    55.79799
   436  H   1.0    0.14    0.99    1.43    59.81382    84.60640    52.86024
   437  H   1.0    0.31    1.00    1.43    70.70326    86.86123    39.46408
   438  H   1.0    0.14    1.00    1.43    70.02942    88.71519    33.39079
   439  H   1.0    0.32    1.00    1.43    65.07936    88.45049    30.90624
   440  H   1.0    0.13    1.00    1.43    63.47349    84.14863    26.49633
   441  H   1.0    0.29    1.00    1.43    64.61983    78.71453    33.47532
   442  H   1.0    0.14    1.00    1.43    58.74918    73.84704    28.38688
   443  H   1.0    0.30    1.00    1.43    55.36976    79.85574    45.79805
   444  H   1.0    0.14    1.00    1.43    49.62085   106.25641    26.99787
   445  H   1.0    0.30    1.00    1.43    52.36027   110.82641    27.50849
   446  H   1.0    0.16    1.00    1.43    54.80846   108.62119    19.71346
   447  H   1.0    0.29    1.00    1.43    57.82022   121.85648    42.22491
   448  H   1.0    0.16    1.00    1.43    62.74702    80.26041    52.54513

           ------------------------------------------------- 
          |        Self-Consistent Charge Iterations        |
           ------------------------------------------------- 

          ...................................................
          :                      SETUP                      :
          :.................................................:
          :  # basis functions                1114          :
          :  # atomic orbitals                1114          :
          :  # shells                          670          :
          :  # electrons                      1254          :
          :  max. iterations                   250          :
          :  Hamiltonian                  GFN2-xTB          :
          :  restarted?                      false          :
          :  GBSA solvation                   true          :
          :  PC potential                    false          :
          :  electronic temp.          500.0000000     K    :
          :  accuracy                    0.1000000          :
          :  -> integral cutoff          0.3500000E+02      :
          :  -> integral neglect         0.1000000E-08      :
          :  -> SCF convergence          0.1000000E-06 Eh   :
          :  -> wf. convergence          0.1000000E-04 e    :
          :  Broyden damping             0.4000000          :
          ...................................................

 iter      E             dE          RMSdq      gap      omega  full diag
   1   -723.8466852 -0.723847E+03  0.438E+00    1.78       0.0  T
   2   -725.6516953 -0.180501E+01  0.226E+00    1.74       1.0  T
   3   -725.7327928 -0.810974E-01  0.119E+00    2.24       1.0  T
   4   -725.7619466 -0.291538E-01  0.279E-01    1.18       1.0  T
   5   -725.7762278 -0.142812E-01  0.134E-01    1.40       1.0  T
   6   -725.7772381 -0.101034E-02  0.539E-02    1.42       1.0  T
   7   -725.7773439 -0.105740E-03  0.248E-02    1.46       1.0  T
   8   -725.7774025 -0.586543E-04  0.101E-02    1.46       1.0  T
   9   -725.7774114 -0.883463E-05  0.511E-03    1.45       1.0  T
  10   -725.7774136 -0.223266E-05  0.231E-03    1.45       2.0  T
  11   -725.7774141 -0.479024E-06  0.738E-04    1.45       6.4  T
  12   -725.7774141 -0.374472E-07  0.377E-04    1.45      12.5  T
  13   -725.7774141 -0.118249E-07  0.151E-04    1.45      31.4  T
  14   -725.7774141 -0.197451E-08  0.674E-05    1.45      70.1  T
  15   -725.7774141 -0.561840E-09  0.293E-05    1.45     161.3  T

   *** convergence criteria satisfied after 15 iterations ***

         #    Occupation            Energy/Eh            Energy/eV
      -------------------------------------------------------------
         1        2.0000           -0.7348554             -19.9964
       ...           ...                  ...                  ...
       621        2.0000           -0.3672500              -9.9934
       622        2.0000           -0.3643606              -9.9148
       623        2.0000           -0.3633651              -9.8877
       624        2.0000           -0.3626971              -9.8695
       625        2.0000           -0.3550900              -9.6625
       626        2.0000           -0.3516410              -9.5686
       627        2.0000           -0.3445132              -9.3747 (HOMO)
       628                         -0.2912315              -7.9248 (LUMO)
       629                         -0.2827111              -7.6930
       630                         -0.2813067              -7.6547
       631                         -0.2809020              -7.6437
       632                         -0.2777311              -7.5574
       ...                                ...                  ...
      1114                          0.6748935              18.3648
      -------------------------------------------------------------
                  HL-Gap            0.0532817 Eh            1.4499 eV
             Fermi-level           -0.3178691 Eh           -8.6497 eV

 SCC (total)                   0 d,  0 h,  0 min,  9.375 sec
 SCC setup                      ...        0 min,  0.096 sec (  1.025%)
 Dispersion                     ...        0 min,  0.073 sec (  0.777%)
 integral evaluation            ...        0 min,  0.231 sec (  2.460%)
 zeroth order Hamiltonian       ...        0 min,  0.009 sec (  0.095%)
 iterations                     ...        0 min,  8.128 sec ( 86.699%)
 molecular gradient             ...        0 min,  0.789 sec (  8.413%)
 printout                       ...        0 min,  0.050 sec (  0.530%)

         :::::::::::::::::::::::::::::::::::::::::::::::::::::
         ::                     SUMMARY                     ::
         :::::::::::::::::::::::::::::::::::::::::::::::::::::
         :: total energy             -717.387050324362 Eh   ::
         :: total w/o Gsasa/hb       -717.295175564088 Eh   ::
         :: gradient norm               0.543623082989 Eh/α ::
         :: HOMO-LUMO gap               1.449868232223 eV   ::
         ::.................................................::
         :: SCC energy               -725.796826618608 Eh   ::
         :: -> isotropic ES             2.922656842935 Eh   ::
         :: -> anisotropic ES          -0.186010989636 Eh   ::
         :: -> anisotropic XC           0.200572675882 Eh   ::
         :: -> dispersion              -0.590812100007 Eh   ::
         :: -> Gsolv                   -0.892675590011 Eh   ::
         ::    -> Gborn                -0.800800829737 Eh   ::
         ::    -> Gsasa                -0.021269946218 Eh   ::
         ::    -> Ghb                  -0.072462257183 Eh   ::
         ::    -> Gshift                0.001857443127 Eh   ::
         :: repulsion energy            8.359576893365 Eh   ::
         :: add. restraining            0.000000000000 Eh   ::
         :::::::::::::::::::::::::::::::::::::::::::::::::::::

           -------------------------------------------------
          |                Property Printout                |
           -------------------------------------------------

    * Orbital Energies and Occupations

         #    Occupation            Energy/Eh            Energy/eV
      -------------------------------------------------------------
         1        2.0000           -0.7348554             -19.9964
       ...           ...                  ...                  ...
       615        2.0000           -0.3707996             -10.0900
       616        2.0000           -0.3696979             -10.0600
       617        2.0000           -0.3688664             -10.0374
       618        2.0000           -0.3682098             -10.0195
       619        2.0000           -0.3680242             -10.0144
       620        2.0000           -0.3673573              -9.9963
       621        2.0000           -0.3672500              -9.9934
       622        2.0000           -0.3643606              -9.9148
       623        2.0000           -0.3633651              -9.8877
       624        2.0000           -0.3626971              -9.8695
       625        2.0000           -0.3550900              -9.6625
       626        2.0000           -0.3516410              -9.5686
       627        2.0000           -0.3445132              -9.3747 (HOMO)
       628                         -0.2912315              -7.9248 (LUMO)
       629                         -0.2827111              -7.6930
       630                         -0.2813067              -7.6547
       631                         -0.2809020              -7.6437
       632                         -0.2777311              -7.5574
       633                         -0.2744363              -7.4678
       634                         -0.2523816              -6.8677
       635                         -0.2463238              -6.7028
       636                         -0.2448888              -6.6638
       637                         -0.2427098              -6.6045
       638                         -0.2407262              -6.5505
       ...                                ...                  ...
      1114                          0.6748935              18.3648
      -------------------------------------------------------------
                  HL-Gap            0.0532817 Eh            1.4499 eV
             Fermi-level           -0.3178691 Eh           -8.6497 eV

   #   Z        covCN         q      C6AA      α(0)
   1   7 N      2.636    -0.381    29.839     8.113
   2   6 C      3.782     0.029    20.108     6.388
   3   6 C      2.764     0.187    23.985     8.020
   4   8 O      0.856    -0.368    21.048     6.151
   5   6 C      3.804    -0.067    21.787     6.645
   6   6 C      3.805    -0.102    22.446     6.745
   7   6 C      2.743     0.291    22.066     7.691
   8   8 O      0.859    -0.512    24.044     6.574
   9   7 N      2.638    -0.272    27.034     7.722
  10   1 H      0.860     0.168     1.285     1.776
  11   1 H      0.924     0.065     2.142     2.289
  12   1 H      0.924     0.077     2.012     2.218
  13   1 H      0.925     0.055     2.253     2.347
  14   1 H      0.925     0.077     2.012     2.218
  15   1 H      0.925     0.074     2.041     2.234
  16   1 H      0.860     0.238     0.932     1.512
  17   1 H      0.860     0.209     1.063     1.615
  18   7 N      2.636    -0.385    29.955     8.129
  19   6 C      3.783     0.028    20.125     6.390
  20   6 C      2.766     0.195    23.830     7.995
  21   8 O      0.856    -0.352    20.743     6.106
  22   6 C      3.808    -0.076    21.950     6.669
  23   6 C      3.807    -0.120    22.784     6.795
  24   6 C      2.746     0.273    22.384     7.747
  25   8 O      0.859    -0.478    23.310     6.473
  26   7 N      2.637    -0.267    26.924     7.706
  27   1 H      0.860     0.168     1.284     1.775
  28   1 H      0.924     0.050     2.321     2.382
  29   1 H      0.924     0.075     2.030     2.228
  30   1 H      0.924     0.067     2.114     2.274
  31   1 H      0.925     0.102     1.765     2.077
  32   1 H      0.925     0.070     2.089     2.260
  33   1 H      0.860     0.229     0.970     1.543
  34   1 H      0.860     0.208     1.066     1.617
  35   7 N      2.635    -0.389    30.082     8.146
  36   6 C      3.788     0.030    20.089     6.384
  37   6 C      2.755     0.270    22.444     7.758
  38   8 O      0.858    -0.518    24.197     6.595
  39   6 C      3.805    -0.086    22.137     6.698
  40   6 C      3.801    -0.074    21.922     6.666
  41   6 C      3.738    -0.027    21.132     6.560
  42   7 N      2.699    -0.148    24.204     7.307
  43   6 C      2.736     0.223    23.299     7.903
  44   7 N      2.649    -0.241    26.287     7.615
  45   7 N      2.655    -0.244    26.375     7.627
  46   1 H      0.860     0.170     1.275     1.769
  47   1 H      0.923     0.024     2.675     2.558
  48   1 H      0.925     0.084     1.941     2.179
  49   1 H      0.924     0.052     2.300     2.372
  50   1 H      0.924     0.050     2.326     2.385
  51   1 H      0.925     0.062     2.179     2.308
  52   1 H      0.924     0.086     1.915     2.164
  53   1 H      0.924     0.060     2.197     2.318
  54   1 H      0.860     0.246     0.898     1.485
  55   1 H      0.860     0.222     1.002     1.568
  56   1 H      0.860     0.231     0.960     1.535
  57   1 H      0.860     0.268     0.818     1.417
  58   1 H      0.860     0.238     0.933     1.513
  59   7 N      2.692    -0.175    24.786     7.394
  60   6 C      3.793     0.020    20.254     6.409
  61   6 C      2.765     0.206    23.619     7.959
  62   8 O      0.856    -0.373    21.158     6.167
  63   6 C      3.728     0.104    18.956     6.216
  64   8 O      1.655    -0.459    22.019     6.334
  65   6 C      3.753    -0.143    23.316     6.886
  66   1 H      0.860     0.259     0.850     1.444
  67   1 H      0.924     0.087     1.911     2.162
  68   1 H      0.923     0.047     2.362     2.403
  69   1 H      0.805     0.346     0.599     1.215
  70   1 H      0.925     0.081     1.968     2.194
  71   1 H      0.925     0.040     2.450     2.448
  72   1 H      0.925     0.072     2.061     2.245
  73   7 N      2.634    -0.397    30.285     8.173
  74   6 C      3.787     0.036    19.986     6.367
  75   6 C      2.759     0.261    22.603     7.786
  76   8 O      0.858    -0.481    23.369     6.481
  77   6 C      3.819    -0.065    21.740     6.636
  78   6 C      2.971     0.014    27.700     8.633
  79   6 C      2.926    -0.036    28.894     8.815
  80   6 C      2.925    -0.041    29.027     8.835
  81   6 C      2.920    -0.032    28.787     8.798
  82   6 C      2.920    -0.034    28.845     8.807
  83   6 C      2.922    -0.036    28.899     8.816
  84   1 H      0.860     0.162     1.325     1.803
  85   1 H      0.924     0.050     2.323     2.383
  86   1 H      0.924     0.041     2.441     2.443
  87   1 H      0.924     0.056     2.249     2.345
  88   1 H      0.926     0.041     2.442     2.444
  89   1 H      0.926     0.029     2.602     2.523
  90   1 H      0.926     0.033     2.546     2.495
  91   1 H      0.926     0.033     2.539     2.492
  92   1 H      0.926     0.032     2.555     2.500
  93   7 N      2.688    -0.174    24.776     7.393
  94   6 C      3.798     0.027    20.122     6.387
  95   6 C      2.753     0.286    22.160     7.709
  96   8 O      0.858    -0.495    23.664     6.522
  97   6 C      3.803    -0.096    22.328     6.727
  98   6 C      2.683     0.376    20.631     7.433
  99   8 O      0.856    -0.621    26.653     6.922
 100   8 O      0.856    -0.651    27.413     7.020
 101   1 H      0.860     0.208     1.065     1.617
 102   1 H      0.923     0.075     2.036     2.231
 103   1 H      0.924     0.024     2.668     2.554
 104   1 H      0.924     0.027     2.635     2.538
 105   7 N      2.695    -0.186    25.039     7.432
 106   6 C      3.797     0.006    20.488     6.445
 107   6 C      2.756     0.257    22.677     7.798
 108   8 O      0.858    -0.443    22.558     6.368
 109   6 C      3.725     0.111    18.852     6.200
 110   8 O      1.656    -0.491    22.697     6.431
 111   6 C      3.752    -0.149    23.440     6.904
 112   1 H      0.860     0.233     0.953     1.529
 113   1 H      0.924     0.077     2.015     2.220
 114   1 H      0.923     0.042     2.426     2.436
 115   1 H      0.805     0.323     0.655     1.271
 116   1 H      0.925     0.049     2.334     2.389
 117   1 H      0.925     0.075     2.035     2.231
 118   1 H      0.925     0.066     2.129     2.282
 119   7 N      2.692    -0.140    24.040     7.282
 120   6 C      3.791    -0.016    20.873     6.506
 121   6 C      2.760     0.269    22.449     7.759
 122   8 O      0.858    -0.462    22.966     6.425
 123   6 C      3.806    -0.100    22.397     6.737
 124   6 C      3.803    -0.087    22.154     6.701
 125   6 C      3.738    -0.037    21.327     6.590
 126   7 N      2.701    -0.139    24.000     7.276
 127   6 C      2.736     0.224    23.279     7.899
 128   7 N      2.651    -0.242    26.325     7.620
 129   7 N      2.654    -0.260    26.739     7.680
 130   1 H      0.860     0.207     1.070     1.620
 131   1 H      0.924     0.137     1.480     1.902
 132   1 H      0.924     0.080     1.978     2.199
 133   1 H      0.925     0.097     1.811     2.104
 134   1 H      0.924     0.058     2.225     2.333
 135   1 H      0.924     0.087     1.907     2.159
 136   1 H      0.924     0.101     1.776     2.084
 137   1 H      0.924     0.074     2.043     2.235
 138   1 H      0.860     0.242     0.917     1.500
 139   1 H      0.860     0.230     0.964     1.538
 140   1 H      0.860     0.247     0.894     1.481
 141   1 H      0.860     0.259     0.850     1.444
 142   1 H      0.860     0.255     0.866     1.457
 143   7 N      2.688    -0.173    24.750     7.389
 144   6 C      3.796     0.004    20.517     6.450
 145   6 C      2.752     0.265    22.531     7.773
 146   8 O      0.859    -0.462    22.955     6.424
 147   6 C      3.808    -0.102    22.447     6.744
 148   6 C      2.745     0.281    22.246     7.723
 149   8 O      0.859    -0.450    22.705     6.389
 150   7 N      2.638    -0.273    27.053     7.725
 151   1 H      0.860     0.240     0.923     1.505
 152   1 H      0.923     0.104     1.753     2.070
 153   1 H      0.924     0.084     1.943     2.180
 154   1 H      0.925     0.064     2.154     2.295
 155   1 H      0.860     0.206     1.077     1.626
 156   1 H      0.860     0.195     1.133     1.667
 157   7 N      2.690    -0.160    24.468     7.347
 158   6 C      3.789     0.009    20.443     6.439
 159   6 C      2.764     0.213    23.490     7.937
 160   8 O      0.856    -0.371    21.101     6.159
 161   6 C      3.805    -0.096    22.329     6.727
 162   6 C      3.804    -0.086    22.139     6.699
 163   6 C      3.738    -0.036    21.291     6.584
 164   7 N      2.703    -0.139    24.017     7.279
 165   6 C      2.737     0.232    23.129     7.874
 166   7 N      2.651    -0.248    26.451     7.638
 167   7 N      2.653    -0.260    26.749     7.681
 168   1 H      0.860     0.232     0.956     1.532
 169   1 H      0.924     0.102     1.764     2.077
 170   1 H      0.925     0.106     1.731     2.058
 171   1 H      0.924     0.084     1.942     2.179
 172   1 H      0.924     0.090     1.878     2.143
 173   1 H      0.924     0.052     2.301     2.372
 174   1 H      0.924     0.081     1.966     2.193
 175   1 H      0.924     0.109     1.702     2.040
 176   1 H      0.860     0.223     0.997     1.564
 177   1 H      0.860     0.255     0.866     1.458
 178   1 H      0.860     0.251     0.879     1.469
 179   1 H      0.860     0.242     0.915     1.499
 180   1 H      0.860     0.251     0.879     1.469
 181   7 N      2.637    -0.381    29.852     8.115
 182   6 C      3.791     0.038    19.937     6.359
 183   6 C      2.764     0.277    22.323     7.738
 184   8 O      0.859    -0.540    24.687     6.662
 185   6 C      3.853    -0.016    20.831     6.491
 186   6 C      3.802    -0.063    21.712     6.634
 187   6 C      3.757    -0.103    22.519     6.766
 188   6 C      3.750    -0.097    22.419     6.753
 189   1 H      0.860     0.169     1.277     1.770
 190   1 H      0.923     0.005     2.978     2.699
 191   1 H      0.923     0.046     2.376     2.411
 192   1 H      0.924     0.053     2.288     2.365
 193   1 H      0.924     0.046     2.376     2.410
 194   1 H      0.925     0.045     2.387     2.416
 195   1 H      0.925     0.023     2.683     2.562
 196   1 H      0.925     0.030     2.584     2.514
 197   1 H      0.925     0.034     2.530     2.487
 198   1 H      0.925     0.023     2.695     2.567
 199   1 H      0.925     0.027     2.624     2.533
 200   7 N      2.692    -0.174    24.768     7.391
 201   6 C      3.798     0.049    19.755     6.329
 202   6 C      2.767     0.208    23.587     7.954
 203   8 O      0.856    -0.388    21.443     6.209
 204   6 C      3.808    -0.056    21.573     6.612
 205   6 C      3.799    -0.105    22.511     6.755
 206   6 C      2.684     0.370    20.722     7.450
 207   8 O      0.856    -0.657    27.558     7.038
 208   8 O      0.856    -0.661    27.658     7.051
 209   1 H      0.860     0.249     0.886     1.475
 210   1 H      0.923     0.042     2.423     2.434
 211   1 H      0.924     0.079     1.986     2.204
 212   1 H      0.924     0.054     2.266     2.354
 213   1 H      0.925     0.043     2.410     2.428
 214   1 H      0.924     0.053     2.283     2.363
 215   7 N      2.636    -0.393    30.166     8.157
 216   6 C      3.788     0.035    19.997     6.369
 217   6 C      2.758     0.266    22.518     7.771
 218   8 O      0.858    -0.494    23.649     6.520
 219   6 C      3.807    -0.043    21.339     6.576
 220   6 C      3.799    -0.087    22.163     6.703
 221   6 C      2.685     0.371    20.718     7.449
 222   8 O      0.856    -0.662    27.684     7.054
 223   8 O      0.856    -0.636    27.022     6.970
 224   1 H      0.860     0.166     1.296     1.784
 225   1 H      0.923     0.028     2.616     2.529
 226   1 H      0.924     0.040     2.447     2.447
 227   1 H      0.924     0.019     2.748     2.593
 228   1 H      0.925     0.013     2.839     2.635
 229   1 H      0.924     0.023     2.691     2.565
 230   7 N      2.691    -0.176    24.816     7.399
 231   6 C      3.797     0.003    20.531     6.452
 232   6 C      2.761     0.273    22.389     7.749
 233   8 O      0.859    -0.465    23.020     6.433
 234   6 C      3.726     0.112    18.836     6.197
 235   8 O      1.655    -0.467    22.187     6.359
 236   6 C      3.754    -0.133    23.107     6.855
 237   1 H      0.860     0.212     1.045     1.601
 238   1 H      0.923     0.080     1.976     2.198
 239   1 H      0.923     0.038     2.480     2.463
 240   1 H      0.804     0.327     0.645     1.262
 241   1 H      0.925     0.083     1.950     2.183
 242   1 H      0.925     0.058     2.220     2.330
 243   1 H      0.925     0.069     2.091     2.261
 244   7 N      2.690    -0.180    24.889     7.409
 245   6 C      3.801     0.017    20.289     6.413
 246   6 C      2.759     0.279    22.270     7.728
 247   8 O      0.858    -0.492    23.607     6.514
 248   6 C      3.811    -0.081    22.034     6.682
 249   6 C      3.849    -0.014    20.785     6.485
 250   6 C      3.758    -0.123    22.901     6.823
 251   6 C      3.755    -0.124    22.925     6.827
 252   1 H      0.860     0.215     1.031     1.591
 253   1 H      0.924     0.090     1.884     2.146
 254   1 H      0.924     0.054     2.272     2.357
 255   1 H      0.924     0.068     2.106     2.270
 256   1 H      0.924     0.040     2.450     2.448
 257   1 H      0.925     0.056     2.251     2.346
 258   1 H      0.925     0.043     2.414     2.429
 259   1 H      0.925     0.050     2.320     2.382
 260   1 H      0.925     0.058     2.225     2.333
 261   1 H      0.925     0.048     2.348     2.396
 262   1 H      0.925     0.037     2.486     2.466
 263   7 N      2.690    -0.184    24.988     7.424
 264   6 C      3.802     0.040    19.907     6.352
 265   6 C      2.761     0.293    22.027     7.686
 266   8 O      0.858    -0.510    23.997     6.568
 267   6 C      3.803    -0.107    22.533     6.758
 268   6 C      2.684     0.370    20.725     7.450
 269   8 O      0.856    -0.631    26.888     6.952
 270   8 O      0.856    -0.615    26.499     6.902
 271   1 H      0.860     0.200     1.105     1.647
 272   1 H      0.923     0.053     2.287     2.365
 273   1 H      0.925     0.033     2.548     2.496
 274   1 H      0.924     0.033     2.551     2.498
 275   7 N      2.695    -0.179    24.869     7.406
 276   6 C      3.800     0.033    20.027     6.372
 277   6 C      2.757     0.277    22.312     7.735
 278   8 O      0.858    -0.493    23.637     6.518
 279   6 C      3.758    -0.137    23.186     6.865
 280   1 H      0.860     0.225     0.986     1.556
 281   1 H      0.923     0.065     2.145     2.290
 282   1 H      0.925     0.068     2.104     2.268
 283   1 H      0.925     0.075     2.032     2.229
 284   1 H      0.925     0.075     2.026     2.226
 285   7 N      2.693    -0.188    25.076     7.437
 286   6 C      3.798     0.014    20.341     6.422
 287   6 C      2.757     0.290    22.085     7.696
 288   8 O      0.858    -0.501    23.817     6.543
 289   6 C      3.728     0.108    18.893     6.205
 290   8 O      1.655    -0.464    22.132     6.351
 291   6 C      3.753    -0.133    23.118     6.856
 292   1 H      0.860     0.239     0.929     1.510
 293   1 H      0.923     0.064     2.152     2.294
 294   1 H      0.924     0.050     2.316     2.380
 295   1 H      0.804     0.341     0.611     1.228
 296   1 H      0.925     0.072     2.060     2.244
 297   1 H      0.925     0.051     2.307     2.375
 298   1 H      0.925     0.050     2.320     2.382
 299   7 N      2.694    -0.195    25.221     7.459
 300   6 C      3.796     0.035    19.997     6.368
 301   6 C      2.759     0.293    22.034     7.687
 302   8 O      0.859    -0.518    24.187     6.594
 303   6 C      3.807    -0.082    22.053     6.685
 304   6 C      3.802    -0.074    21.906     6.664
 305   6 C      3.741    -0.011    20.848     6.514
 306   7 N      2.701    -0.146    24.150     7.299
 307   6 C      2.739     0.238    23.022     7.856
 308   7 N      2.649    -0.246    26.422     7.634
 309   7 N      2.653    -0.267    26.908     7.704
 310   1 H      0.860     0.232     0.955     1.531
 311   1 H      0.923     0.062     2.175     2.306
 312   1 H      0.924     0.074     2.041     2.234
 313   1 H      0.924     0.063     2.168     2.303
 314   1 H      0.924     0.078     1.995     2.209
 315   1 H      0.924     0.053     2.279     2.361
 316   1 H      0.924     0.082     1.962     2.190
 317   1 H      0.925     0.071     2.079     2.255
 318   1 H      0.860     0.239     0.926     1.507
 319   1 H      0.860     0.235     0.942     1.520
 320   1 H      0.860     0.234     0.947     1.524
 321   1 H      0.860     0.255     0.863     1.455
 322   1 H      0.860     0.251     0.881     1.470
 323   7 N      2.691    -0.190    25.111     7.443
 324   6 C      3.802     0.031    20.054     6.376
 325   6 C      2.760     0.277    22.318     7.736
 326   8 O      0.858    -0.499    23.763     6.536
 327   6 C      3.806    -0.084    22.094     6.691
 328   6 C      3.803    -0.075    21.926     6.666
 329   6 C      3.737    -0.011    20.861     6.518
 330   7 N      2.697    -0.149    24.222     7.309
 331   6 C      2.735     0.225    23.269     7.898
 332   7 N      2.653    -0.237    26.207     7.603
 333   7 N      2.657    -0.258    26.701     7.674
 334   1 H      0.860     0.226     0.983     1.553
 335   1 H      0.923     0.056     2.250     2.346
 336   1 H      0.924     0.072     2.064     2.247
 337   1 H      0.924     0.082     1.960     2.189
 338   1 H      0.924     0.061     2.187     2.313
 339   1 H      0.924     0.049     2.335     2.390
 340   1 H      0.924     0.075     2.028     2.227
 341   1 H      0.925     0.076     2.022     2.224
 342   1 H      0.860     0.235     0.942     1.521
 343   1 H      0.860     0.209     1.062     1.614
 344   1 H      0.860     0.262     0.839     1.435
 345   1 H      0.860     0.247     0.896     1.483
 346   1 H      0.860     0.272     0.804     1.404
 347   7 N      2.690    -0.173    24.749     7.389
 348   6 C      3.805     0.019    20.252     6.407
 349   6 C      2.759     0.282    22.219     7.719
 350   8 O      0.859    -0.495    23.675     6.524
 351   6 C      3.852    -0.016    20.823     6.490
 352   6 C      3.758    -0.127    22.995     6.837
 353   6 C      3.756    -0.137    23.194     6.867
 354   1 H      0.860     0.212     1.047     1.603
 355   1 H      0.923     0.088     1.901     2.156
 356   1 H      0.924     0.024     2.671     2.556
 357   1 H      0.925     0.070     2.083     2.257
 358   1 H      0.925     0.034     2.529     2.487
 359   1 H      0.925     0.067     2.114     2.274
 360   1 H      0.925     0.065     2.147     2.291
 361   1 H      0.925     0.078     1.998     2.210
 362   1 H      0.925     0.049     2.327     2.386
 363   7 N      2.692    -0.189    25.089     7.439
 364   6 C      3.804     0.054    19.674     6.315
 365   6 C      2.764     0.287    22.142     7.706
 366   8 O      0.858    -0.516    24.141     6.588
 367   6 C      3.805    -0.095    22.302     6.723
 368   6 C      2.681     0.374    20.661     7.438
 369   8 O      0.856    -0.618    26.562     6.910
 370   8 O      0.856    -0.626    26.755     6.935
 371   1 H      0.860     0.216     1.027     1.587
 372   1 H      0.923     0.054     2.266     2.354
 373   1 H      0.924     0.023     2.694     2.567
 374   1 H      0.924     0.023     2.693     2.566
 375   7 N      2.697    -0.188    25.070     7.436
 376   6 C      3.800     0.052    19.704     6.320
 377   6 C      2.760     0.271    22.425     7.755
 378   8 O      0.858    -0.507    23.930     6.559
 379   6 C      3.805    -0.097    22.341     6.729
 380   6 C      2.682     0.376    20.629     7.433
 381   8 O      0.856    -0.623    26.688     6.926
 382   8 O      0.857    -0.617    26.532     6.906
 383   1 H      0.860     0.214     1.037     1.595
 384   1 H      0.923     0.045     2.383     2.414
 385   1 H      0.924     0.036     2.504     2.475
 386   1 H      0.924     0.034     2.527     2.486
 387   7 N      2.692    -0.178    24.849     7.403
 388   6 C      3.796     0.025    20.154     6.393
 389   6 C      2.759     0.279    22.280     7.730
 390   8 O      0.859    -0.495    23.663     6.522
 391   6 C      3.756    -0.139    23.239     6.873
 392   1 H      0.860     0.219     1.016     1.579
 393   1 H      0.923     0.071     2.074     2.252
 394   1 H      0.925     0.087     1.912     2.162
 395   1 H      0.925     0.078     2.003     2.213
 396   1 H      0.925     0.076     2.023     2.224
 397   7 N      2.691    -0.186    25.032     7.431
 398   6 C      3.800     0.018    20.276     6.411
 399   6 C      2.758     0.286    22.161     7.709
 400   8 O      0.859    -0.494    23.650     6.520
 401   6 C      3.726     0.116    18.782     6.188
 402   8 O      1.655    -0.474    22.345     6.381
 403   6 C      3.752    -0.128    23.011     6.841
 404   1 H      0.860     0.227     0.979     1.550
 405   1 H      0.923     0.081     1.971     2.196
 406   1 H      0.924     0.018     2.758     2.597
 407   1 H      0.803     0.330     0.637     1.253
 408   1 H      0.925     0.066     2.126     2.280
 409   1 H      0.925     0.032     2.558     2.501
 410   1 H      0.925     0.066     2.127     2.281
 411   7 N      2.691    -0.188    25.068     7.436
 412   6 C      3.804     0.027    20.111     6.384
 413   6 C      2.758     0.284    22.193     7.715
 414   8 O      0.859    -0.508    23.959     6.563
 415   6 C      3.852    -0.015    20.809     6.488
 416   6 C      3.756    -0.117    22.798     6.808
 417   6 C      3.757    -0.120    22.854     6.816
 418   1 H      0.860     0.202     1.094     1.638
 419   1 H      0.923     0.063     2.160     2.298
 420   1 H      0.924     0.034     2.535     2.490
 421   1 H      0.925     0.061     2.189     2.314
 422   1 H      0.925     0.036     2.509     2.477
 423   1 H      0.925     0.056     2.251     2.346
 424   1 H      0.925     0.052     2.292     2.367
 425   1 H      0.925     0.054     2.273     2.357
 426   1 H      0.925     0.043     2.413     2.429
 427   7 N      2.691    -0.178    24.855     7.404
 428   6 C      3.792     0.040    19.916     6.355
 429   6 C      2.766     0.216    23.444     7.930
 430   8 O      0.856    -0.365    20.991     6.143
 431   6 C      3.757    -0.129    23.039     6.843
 432   1 H      0.860     0.226     0.982     1.552
 433   1 H      0.923     0.074     2.040     2.234
 434   1 H      0.925     0.078     2.004     2.214
 435   1 H      0.925     0.073     2.053     2.241
 436   1 H      0.925     0.073     2.051     2.240
 437   1 H      0.862     0.181     1.210     1.723
 438   1 H      0.930     0.099     1.789     2.092
 439   1 H      0.862     0.169     1.276     1.769
 440   1 H      0.930     0.080     1.975     2.198
 441   1 H      0.862     0.173     1.254     1.754
 442   1 H      0.930     0.073     2.054     2.241
 443   1 H      0.862     0.180     1.215     1.726
 444   1 H      0.930     0.067     2.118     2.276
 445   1 H      0.862     0.176     1.238     1.743
 446   1 H      0.930     0.084     1.939     2.178
 447   1 H      0.862     0.185     1.184     1.704
 448   1 H      0.930     0.071     2.076     2.253

 Mol. C6AA /au·bohr⁶  :    1868819.341243
 Mol. C8AA /au·bohr⁸  :   41236334.437600
 Mol. α(0) /au        :       2037.465139


Wiberg/Mayer (AO) data.
largest (>0.10) Wiberg bond orders for each atom
          total WBO             WBO to atom ...
     1  N   3.002        C    2 1.023    H  437 0.952    H   10 0.951
     2  C   3.987        N    1 1.023    C    3 0.976    C    5 0.963    H   11 0.946
     3  C   3.889        O    4 1.881    C    2 0.976    H  438 0.949
     4  O   2.038        C    3 1.881
     5  C   3.990        C    6 0.984    H   13 0.975    H   12 0.970    C    2 0.963
     6  C   3.990        C    5 0.984    C    7 0.972    H   15 0.965    H   14 0.964
     7  C   3.930        O    8 1.600    N    9 1.327    C    6 0.972
     8  O   1.972        C    7 1.600    N    9 0.192
     9  N   3.416        C    7 1.327    H   17 0.932    H   16 0.924    O    8 0.192
    10  H   0.972        N    1 0.951
    11  H   0.996        C    2 0.946
    12  H   0.994        C    5 0.970
    13  H   0.997        C    5 0.975
    14  H   0.994        C    6 0.964
    15  H   0.993        C    6 0.965
    16  H   0.943        N    9 0.924
    17  H   0.956        N    9 0.932
    18  N   3.001        C   19 1.009    H  439 0.958    H   27 0.953
    19  C   3.983        N   18 1.009    C   20 0.974    C   22 0.966    H   28 0.956
    20  C   3.890        O   21 1.885    C   19 0.974    H  440 0.952
    21  O   2.070        C   20 1.885
    22  C   3.988        C   23 0.992    H   30 0.972    H   29 0.967    C   19 0.966
    23  C   3.990        C   22 0.992    H   32 0.971    C   24 0.971    H   31 0.953
    24  C   3.947        O   25 1.620    N   26 1.317    C   23 0.971
    25  O   1.963        C   24 1.620    N   26 0.199
    26  N   3.419        C   24 1.317    H   34 0.933    H   33 0.914    O   25 0.199
    27  H   0.972        N   18 0.953
    28  H   0.998        C   19 0.956
    29  H   0.994        C   22 0.967
    30  H   0.995        C   22 0.972
    31  H   0.990        C   23 0.953
    32  H   0.995        C   23 0.971
    33  H   0.948        N   26 0.914
    34  H   0.957        N   26 0.933
    35  N   2.993        C   36 1.012    H  441 0.960    H   46 0.949
    36  C   3.985        N   35 1.012    C   39 0.983    H   47 0.961    C   37 0.929
    37  C   3.940        O   38 1.629    N   59 1.308    C   36 0.929
    38  O   1.948        C   37 1.629    N   59 0.198
    39  C   3.989        C   40 1.006    C   36 0.983    H   49 0.972    H   48 0.965
    40  C   3.993        C   39 1.006    C   41 0.994    H   50 0.972    H   51 0.970
    41  C   3.959        C   40 0.994    N   42 0.989    H   52 0.964    H   53 0.964
    42  N   3.457        C   43 1.308    C   41 0.989    H   54 0.890    N   45 0.104
    43  C   3.978        N   45 1.330    N   42 1.308    N   44 1.307
    44  N   3.399        C   43 1.307    H   55 0.925    H   56 0.911    N   45 0.104
    45  N   3.402        C   43 1.330    H   58 0.923    H   57 0.881    N   42 0.104    N   44 0.104
    46  H   0.971        N   35 0.949
    47  H   0.999        C   36 0.961
    48  H   0.993        C   39 0.965
    49  H   0.997        C   39 0.972
    50  H   0.997        C   40 0.972
    51  H   0.996        C   40 0.970
    52  H   0.992        C   41 0.964
    53  H   0.996        C   41 0.964
    54  H   0.939        N   42 0.890
    55  H   0.951        N   44 0.925
    56  H   0.947        N   44 0.911
    57  H   0.928        N   45 0.881
    58  H   0.944        N   45 0.923
    59  N   3.464        C   37 1.308    C   60 0.982    H   66 0.874    O   38 0.198
    60  C   3.969        N   59 0.982    C   61 0.967    C   63 0.955    H   67 0.949
    61  C   3.895        O   62 1.897    C   60 0.967    H  442 0.954
    62  O   2.039        C   61 1.897
    63  C   3.960        C   65 1.002    O   64 0.992    H   68 0.958    C   60 0.955
    64  O   1.948        C   63 0.992    H   69 0.862
    65  C   3.987        C   63 1.002    H   72 0.982    H   71 0.981    H   70 0.979
    66  H   0.933        N   59 0.874
    67  H   0.992        C   60 0.949
    68  H   0.998        C   63 0.958
    69  H   0.880        O   64 0.862
    70  H   0.993        C   65 0.979
    71  H   0.998        C   65 0.981
    72  H   0.995        C   65 0.982
    73  N   3.002        C   74 1.022    H  443 0.956    H   84 0.954
    74  C   3.983        N   73 1.022    H   85 0.958    C   77 0.952    C   75 0.943
    75  C   3.944        O   76 1.581    N   93 1.326    C   74 0.943
    76  O   1.956        C   75 1.581    N   93 0.186
    77  C   3.993        C   78 1.009    H   86 0.973    H   87 0.962    C   74 0.952
    78  C   3.988        C   80 1.418    C   79 1.406    C   77 1.009    C   83 0.109
    79  C   3.992        C   81 1.453    C   78 1.406    H   88 0.964    C   82 0.113
    80  C   3.990        C   82 1.438    C   78 1.418    H   89 0.969    C   81 0.110
    81  C   3.992        C   79 1.453    C   83 1.432    H   90 0.971    C   80 0.110
    82  C   3.992        C   83 1.445    C   80 1.438    H   91 0.971    C   79 0.113
    83  C   3.992        C   82 1.445    C   81 1.432    H   92 0.971    C   78 0.109
    84  H   0.974        N   73 0.954
    85  H   0.997        C   74 0.958
    86  H   0.998        C   77 0.973
    87  H   0.997        C   77 0.962
    88  H   0.998        C   79 0.964
    89  H   0.999        C   80 0.969
    90  H   0.999        C   81 0.971
    91  H   0.998        C   82 0.971
    92  H   0.998        C   83 0.971
    93  N   3.483        C   75 1.326    C   94 0.969    H  101 0.920    O   76 0.186
    94  C   3.962        C   97 1.005    N   93 0.969    H  102 0.945    C   95 0.921
    95  C   3.948        O   96 1.651    N  105 1.298    C   94 0.921
    96  O   1.965        C   95 1.651    N  105 0.198
    97  C   3.982        C   94 1.005    H  104 0.971    H  103 0.966    C   98 0.900
    98  C   3.937        O   99 1.510    O  100 1.504    C   97 0.900
    99  O   1.806        C   98 1.510    O  100 0.217
   100  O   1.794        C   98 1.504    O   99 0.217
   101  H   0.957        N   93 0.920
   102  H   0.994        C   94 0.945
   103  H   0.999        C   97 0.966
   104  H   0.999        C   97 0.971
   105  N   3.453        C   95 1.298    C  106 0.983    H  112 0.870    O   96 0.198
   106  C   3.963        N  105 0.983    H  113 0.954    C  109 0.951    C  107 0.934
   107  C   3.960        O  108 1.633    N  119 1.317    C  106 0.934
   108  O   1.993        C  107 1.633    N  119 0.204
   109  C   3.949        C  111 1.004    O  110 0.984    H  114 0.957    C  106 0.951
   110  O   1.932        C  109 0.984    H  115 0.875
   111  C   3.989        C  109 1.004    H  118 0.982    H  116 0.980    H  117 0.979
   112  H   0.946        N  105 0.870
   113  H   0.994        C  106 0.954
   114  H   0.998        C  109 0.957
   115  H   0.895        O  110 0.875
   116  H   0.997        C  111 0.980
   117  H   0.994        C  111 0.979
   118  H   0.996        C  111 0.982
   119  N   3.498        C  107 1.317    C  120 0.984    H  130 0.923    O  108 0.204
   120  C   3.947        N  119 0.984    C  123 0.957    C  121 0.946    H  131 0.930
   121  C   3.942        O  122 1.628    N  143 1.275    C  120 0.946
   122  O   2.011        C  121 1.628    N  143 0.179
   123  C   3.980        C  124 1.007    H  132 0.971    H  133 0.963    C  120 0.957
   124  C   3.987        C  125 1.009    C  123 1.007    H  134 0.969    H  135 0.965
   125  C   3.956        C  124 1.009    N  126 0.984    H  137 0.962    H  136 0.947
   126  N   3.473        C  127 1.323    C  125 0.984    H  138 0.907    N  129 0.104    N  128 0.101
   127  C   3.978        N  126 1.323    N  128 1.313    N  129 1.311
   128  N   3.398        C  127 1.313    H  139 0.920    H  140 0.919    N  126 0.101
   129  N   3.382        C  127 1.311    H  142 0.916    H  141 0.914    N  126 0.104
   130  H   0.957        N  119 0.923
   131  H   0.981        C  120 0.930
   132  H   0.993        C  123 0.971
   133  H   0.990        C  123 0.963
   134  H   0.996        C  124 0.969
   135  H   0.992        C  124 0.965
   136  H   0.990        C  125 0.947
   137  H   0.994        C  125 0.962
   138  H   0.942        N  126 0.907
   139  H   0.947        N  128 0.920
   140  H   0.939        N  128 0.919
   141  H   0.933        N  129 0.914
   142  H   0.935        N  129 0.916
   143  N   3.447        C  121 1.275    C  144 0.995    H  151 0.910    O  122 0.179
   144  C   3.971        N  143 0.995    C  147 0.969    H  152 0.934    C  145 0.926
   145  C   3.951        O  146 1.633    N  157 1.311    C  144 0.926
   146  O   2.038        C  145 1.633    N  157 0.204
   147  C   3.989        C  144 0.969    C  148 0.965    H  154 0.965    H  153 0.960
   148  C   3.947        O  149 1.676    N  150 1.277    C  147 0.965
   149  O   1.979        C  148 1.676    N  150 0.198
   150  N   3.386        C  148 1.277    H  156 0.940    H  155 0.929    O  149 0.198
   151  H   0.942        N  143 0.910
   152  H   0.989        C  144 0.934
   153  H   0.993        C  147 0.960
   154  H   0.995        C  147 0.965
   155  H   0.957        N  150 0.929
   156  H   0.962        N  150 0.940
   157  N   3.471        C  145 1.311    C  158 0.969    H  168 0.908    O  146 0.204
   158  C   3.953        C  161 0.970    N  157 0.969    C  159 0.965    H  169 0.945
   159  C   3.898        O  160 1.890    C  158 0.965    H  444 0.953
   160  O   2.046        C  159 1.890
   161  C   3.977        C  162 1.006    H  171 0.970    C  158 0.970    H  170 0.964
   162  C   3.989        C  163 1.008    C  161 1.006    H  173 0.970    H  172 0.969
   163  C   3.950        C  162 1.008    N  164 0.979    H  174 0.959    H  175 0.958
   164  N   3.467        C  165 1.318    C  163 0.979    H  176 0.917    N  167 0.101    N  166 0.101
   165  C   3.977        N  166 1.321    N  164 1.318    N  167 1.309
   166  N   3.394        C  165 1.321    H  178 0.918    H  177 0.912    N  164 0.101
   167  N   3.388        C  165 1.309    H  179 0.922    H  180 0.918    N  164 0.101
   168  H   0.946        N  157 0.908
   169  H   0.989        C  158 0.945
   170  H   0.989        C  161 0.964
   171  H   0.993        C  161 0.970
   172  H   0.991        C  162 0.969
   173  H   0.997        C  162 0.970
   174  H   0.993        C  163 0.959
   175  H   0.988        C  163 0.958
   176  H   0.950        N  164 0.917
   177  H   0.935        N  166 0.912
   178  H   0.937        N  166 0.918
   179  H   0.941        N  167 0.922
   180  H   0.937        N  167 0.918
   181  N   2.993        C  182 1.015    H  445 0.958    H  189 0.943
   182  C   3.987        N  181 1.015    C  185 0.968    H  190 0.958    C  183 0.941
   183  C   3.940        O  184 1.605    N  200 1.320    C  182 0.941
   184  O   1.918        C  183 1.605    N  200 0.194
   185  C   3.992        C  187 1.009    C  186 0.994    C  182 0.968    H  191 0.962
   186  C   3.996        C  188 1.019    C  185 0.994    H  193 0.968    H  192 0.966
   187  C   3.996        C  185 1.009    H  195 0.986    H  196 0.985    H  194 0.985
   188  C   3.996        C  186 1.019    H  198 0.987    H  197 0.986    H  199 0.985
   189  H   0.971        N  181 0.943
   190  H   1.000        C  182 0.958
   191  H   0.998        C  185 0.962
   192  H   0.997        C  186 0.966
   193  H   0.997        C  186 0.968
   194  H   0.998        C  187 0.985
   195  H   0.999        C  187 0.986
   196  H   0.999        C  187 0.985
   197  H   0.999        C  188 0.986
   198  H   0.999        C  188 0.987
   199  H   0.999        C  188 0.985
   200  N   3.472        C  183 1.320    C  201 0.986    H  209 0.879    O  184 0.194
   201  C   3.971        N  200 0.986    C  202 0.984    C  204 0.955    H  210 0.942
   202  C   3.897        O  203 1.877    C  201 0.984    H  446 0.951
   203  O   2.024        C  202 1.877
   204  C   3.982        C  205 0.999    H  212 0.974    H  211 0.968    C  201 0.955
   205  C   3.991        C  204 0.999    H  213 0.972    H  214 0.971    C  206 0.914
   206  C   3.927        O  207 1.497    O  208 1.495    C  205 0.914
   207  O   1.786        C  206 1.497    O  208 0.217
   208  O   1.788        C  206 1.495    O  207 0.217
   209  H   0.938        N  200 0.879
   210  H   0.998        C  201 0.942
   211  H   0.994        C  204 0.968
   212  H   0.996        C  204 0.974
   213  H   0.998        C  205 0.972
   214  H   0.997        C  205 0.971
   215  N   2.994        C  216 1.016    H  447 0.955    H  224 0.952
   216  C   3.987        N  215 1.016    C  219 0.971    H  225 0.962    C  217 0.941
   217  C   3.943        O  218 1.614    N  230 1.301    C  216 0.941
   218  O   1.959        C  217 1.614    N  230 0.191
   219  C   3.994        C  220 1.003    H  227 0.977    C  216 0.971    H  226 0.970
   220  C   3.990        C  219 1.003    H  228 0.983    H  229 0.968    C  221 0.912
   221  C   3.933        O  223 1.521    O  222 1.479    C  220 0.912
   222  O   1.769        C  221 1.479    O  223 0.217
   223  O   1.811        C  221 1.521    O  222 0.217
   224  H   0.972        N  215 0.952
   225  H   0.999        C  216 0.962
   226  H   0.998        C  219 0.970
   227  H   1.000        C  219 0.977
   228  H   1.000        C  220 0.983
   229  H   0.999        C  220 0.968
   230  N   3.462        C  217 1.301    C  231 0.974    H  237 0.915    O  218 0.191
   231  C   3.958        N  230 0.974    H  238 0.952    C  234 0.951    C  232 0.935
   232  C   3.951        O  233 1.632    N  244 1.298    C  231 0.935
   233  O   1.997        C  232 1.632    N  244 0.196
   234  C   3.953        C  236 1.005    O  235 0.997    H  239 0.958    C  231 0.951
   235  O   1.955        C  234 0.997    H  240 0.874
   236  C   3.985        C  234 1.005    H  243 0.982    H  242 0.981    H  241 0.981
   237  H   0.955        N  230 0.915
   238  H   0.993        C  231 0.952
   239  H   0.999        C  234 0.958
   240  H   0.893        O  235 0.874
   241  H   0.993        C  236 0.981
   242  H   0.997        C  236 0.981
   243  H   0.995        C  236 0.982
   244  N   3.465        C  232 1.298    C  245 0.974    H  252 0.916    O  233 0.196
   245  C   3.957        C  248 0.977    N  244 0.974    H  253 0.944    C  246 0.937
   246  C   3.940        O  247 1.610    N  263 1.301    C  245 0.937
   247  O   1.963        C  246 1.610    N  263 0.189
   248  C   3.980        C  249 0.989    C  245 0.977    H  254 0.971    H  255 0.969
   249  C   3.992        C  251 1.011    C  250 1.006    C  248 0.989    H  256 0.966
   250  C   3.992        C  249 1.006    H  258 0.986    H  259 0.986    H  257 0.984
   251  C   3.994        C  249 1.011    H  261 0.986    H  260 0.983    H  262 0.983
   252  H   0.953        N  244 0.916
   253  H   0.991        C  245 0.944
   254  H   0.997        C  248 0.971
   255  H   0.995        C  248 0.969
   256  H   0.998        C  249 0.966
   257  H   0.996        C  250 0.984
   258  H   0.998        C  250 0.986
   259  H   0.997        C  250 0.986
   260  H   0.996        C  251 0.983
   261  H   0.998        C  251 0.986
   262  H   0.999        C  251 0.983
   263  N   3.464        C  246 1.301    C  264 0.968    H  271 0.924    O  247 0.189
   264  C   3.966        C  267 0.985    N  263 0.968    H  272 0.956    C  265 0.933
   265  C   3.947        O  266 1.595    N  275 1.332    C  264 0.933
   266  O   1.939        C  265 1.595    N  275 0.190
   267  C   3.978        C  264 0.985    H  273 0.978    H  274 0.969    C  268 0.891
   268  C   3.940        O  269 1.514    O  270 1.513    C  267 0.891
   269  O   1.810        C  268 1.514    O  270 0.223
   270  O   1.820        C  268 1.513    O  269 0.223
   271  H   0.960        N  263 0.924
   272  H   0.997        C  264 0.956
   273  H   0.999        C  267 0.978
   274  H   0.999        C  267 0.969
   275  N   3.476        C  265 1.332    C  276 0.972    H  280 0.890    O  266 0.190
   276  C   3.962        C  279 0.996    N  275 0.972    H  281 0.952    C  277 0.937
   277  C   3.949        O  278 1.608    N  285 1.321    C  276 0.937
   278  O   1.942        C  277 1.608    N  285 0.195
   279  C   3.982        C  276 0.996    H  282 0.979    H  283 0.974    H  284 0.974
   280  H   0.949        N  275 0.890
   281  H   0.995        C  276 0.952
   282  H   0.995        C  279 0.979
   283  H   0.994        C  279 0.974
   284  H   0.994        C  279 0.974
   285  N   3.474        C  277 1.321    C  286 0.982    H  292 0.881    O  278 0.195
   286  C   3.968        N  285 0.982    C  289 0.953    H  293 0.952    C  287 0.937
   287  C   3.944        O  288 1.595    N  299 1.325    C  286 0.937
   288  O   1.963        C  287 1.595    N  299 0.193
   289  C   3.959        O  290 1.005    C  291 1.002    H  294 0.956    C  286 0.953
   290  O   1.961        C  289 1.005    H  295 0.866
   291  C   3.989        C  289 1.002    H  298 0.983    H  296 0.982    H  297 0.975
   292  H   0.943        N  285 0.881
   293  H   0.995        C  286 0.952
   294  H   0.997        C  289 0.956
   295  H   0.884        O  290 0.866
   296  H   0.994        C  291 0.982
   297  H   0.997        C  291 0.975
   298  H   0.997        C  291 0.983
   299  N   3.471        C  287 1.325    C  300 0.974    H  310 0.883    O  288 0.193
   300  C   3.963        C  303 0.981    N  299 0.974    H  311 0.950    C  301 0.939
   301  C   3.944        O  302 1.597    N  323 1.320    C  300 0.939
   302  O   1.949        C  301 1.597    N  323 0.193
   303  C   3.986        C  304 1.006    C  300 0.981    H  312 0.968    H  313 0.967
   304  C   3.990        C  303 1.006    C  305 1.006    H  315 0.972    H  314 0.971
   305  C   3.958        C  304 1.006    N  306 0.985    H  316 0.958    H  317 0.953
   306  N   3.472        C  307 1.322    C  305 0.985    H  318 0.910    N  308 0.104
   307  C   3.975        N  308 1.333    N  306 1.322    N  309 1.287
   308  N   3.405        C  307 1.333    H  320 0.924    H  319 0.888    N  306 0.104
   309  N   3.347        C  307 1.287    H  322 0.917    H  321 0.915
   310  H   0.946        N  299 0.883
   311  H   0.996        C  300 0.950
   312  H   0.994        C  303 0.968
   313  H   0.996        C  303 0.967
   314  H   0.993        C  304 0.971
   315  H   0.997        C  304 0.972
   316  H   0.993        C  305 0.958
   317  H   0.995        C  305 0.953
   318  H   0.943        N  306 0.910
   319  H   0.945        N  308 0.888
   320  H   0.945        N  308 0.924
   321  H   0.935        N  309 0.915
   322  H   0.937        N  309 0.917
   323  N   3.472        C  301 1.320    C  324 0.974    H  334 0.895    O  302 0.193
   324  C   3.960        C  327 0.977    N  323 0.974    H  335 0.952    C  325 0.938
   325  C   3.950        O  326 1.606    N  347 1.318    C  324 0.938
   326  O   1.937        C  325 1.606    N  347 0.191
   327  C   3.983        C  328 1.006    C  324 0.977    H  337 0.969    H  336 0.966
   328  C   3.991        C  327 1.006    C  329 0.994    H  338 0.973    H  339 0.969
   329  C   3.962        N  330 0.997    C  328 0.994    H  340 0.965    H  341 0.959
   330  N   3.464        C  331 1.300    C  329 0.997    H  342 0.915    N  333 0.100
   331  C   3.977        N  332 1.323    N  333 1.323    N  330 1.300
   332  N   3.404        C  331 1.323    H  343 0.928    H  344 0.885    N  333 0.104
   333  N   3.382        C  331 1.323    H  345 0.920    H  346 0.877    N  332 0.104    N  330 0.100
   334  H   0.949        N  323 0.895
   335  H   0.996        C  324 0.952
   336  H   0.995        C  327 0.966
   337  H   0.993        C  327 0.969
   338  H   0.996        C  328 0.973
   339  H   0.997        C  328 0.969
   340  H   0.994        C  329 0.965
   341  H   0.994        C  329 0.959
   342  H   0.945        N  330 0.915
   343  H   0.956        N  332 0.928
   344  H   0.931        N  332 0.885
   345  H   0.939        N  333 0.920
   346  H   0.926        N  333 0.877
   347  N   3.475        C  325 1.318    C  348 0.974    H  354 0.904    O  326 0.191
   348  C   3.955        N  347 0.974    C  351 0.965    H  355 0.950    C  349 0.934
   349  C   3.938        O  350 1.592    N  363 1.326    C  348 0.934
   350  O   1.955        C  349 1.592    N  363 0.194
   351  C   3.984        C  352 1.006    C  353 1.004    H  356 0.966    C  348 0.965
   352  C   3.989        C  351 1.006    H  357 0.982    H  359 0.981    H  358 0.980
   353  C   3.987        C  351 1.004    H  360 0.982    H  361 0.982    H  362 0.974
   354  H   0.955        N  347 0.904
   355  H   0.992        C  348 0.950
   356  H   0.999        C  351 0.966
   357  H   0.995        C  352 0.982
   358  H   0.999        C  352 0.980
   359  H   0.995        C  352 0.981
   360  H   0.995        C  353 0.982
   361  H   0.994        C  353 0.982
   362  H   0.998        C  353 0.974
   363  N   3.484        C  349 1.326    C  364 0.979    H  371 0.892    O  350 0.194
   364  C   3.970        C  367 0.982    N  363 0.979    H  372 0.951    C  365 0.942
   365  C   3.945        O  366 1.587    N  375 1.315    C  364 0.942
   366  O   1.919        C  365 1.587    N  375 0.185
   367  C   3.975        C  364 0.982    H  373 0.972    H  374 0.966    C  368 0.894
   368  C   3.940        O  369 1.518    O  370 1.500    C  367 0.894
   369  O   1.819        C  368 1.518    O  370 0.219
   370  O   1.811        C  368 1.500    O  369 0.219
   371  H   0.953        N  363 0.892
   372  H   0.997        C  364 0.951
   373  H   0.999        C  367 0.972
   374  H   0.999        C  367 0.966
   375  N   3.472        C  365 1.315    C  376 0.978    H  383 0.895    O  366 0.185
   376  C   3.967        C  379 0.985    N  375 0.978    H  384 0.952    C  377 0.940
   377  C   3.952        O  378 1.584    N  387 1.334    C  376 0.940
   378  O   1.936        C  377 1.584    N  387 0.195
   379  C   3.976        C  376 0.985    H  385 0.968    H  386 0.968    C  380 0.900
   380  C   3.939        O  382 1.525    O  381 1.482    C  379 0.900
   381  O   1.824        C  380 1.482    O  382 0.217
   382  O   1.820        C  380 1.525    O  381 0.217
   383  H   0.954        N  375 0.895
   384  H   0.997        C  376 0.952
   385  H   0.999        C  379 0.968
   386  H   0.998        C  379 0.968
   387  N   3.483        C  377 1.334    C  388 0.966    H  392 0.899    O  378 0.195
   388  C   3.955        C  391 0.996    N  387 0.966    H  393 0.954    C  389 0.933
   389  C   3.948        O  390 1.623    N  397 1.315    C  388 0.933
   390  O   1.952        C  389 1.623    N  397 0.199
   391  C   3.979        C  388 0.996    H  394 0.979    H  396 0.979    H  395 0.973
   392  H   0.952        N  387 0.899
   393  H   0.994        C  388 0.954
   394  H   0.992        C  391 0.979
   395  H   0.994        C  391 0.973
   396  H   0.994        C  391 0.979
   397  N   3.473        C  389 1.315    C  398 0.979    H  404 0.892    O  390 0.199
   398  C   3.964        N  397 0.979    C  401 0.960    H  405 0.950    C  399 0.938
   399  C   3.947        O  400 1.633    N  411 1.296    C  398 0.938
   400  O   1.948        C  399 1.633    N  411 0.195
   401  C   3.966        O  402 1.002    C  403 0.996    H  406 0.961    C  398 0.960
   402  O   1.934        C  401 1.002    H  407 0.825
   403  C   3.992        C  401 0.996    H  409 0.985    H  410 0.984    H  408 0.983
   404  H   0.948        N  397 0.892
   405  H   0.993        C  398 0.950
   406  H   1.000        C  401 0.961
   407  H   0.891        O  402 0.825
   408  H   0.995        C  403 0.983
   409  H   0.999        C  403 0.985
   410  H   0.996        C  403 0.984
   411  N   3.464        C  399 1.296    C  412 0.976    H  418 0.911    O  400 0.195
   412  C   3.962        N  411 0.976    C  415 0.969    H  419 0.953    C  413 0.934
   413  C   3.949        O  414 1.610    N  427 1.326    C  412 0.934
   414  O   1.935        C  413 1.610    N  427 0.198
   415  C   3.989        C  416 1.007    C  417 1.007    C  412 0.969    H  420 0.964
   416  C   3.992        C  415 1.007    H  423 0.985    H  422 0.985    H  421 0.984
   417  C   3.993        C  415 1.007    H  425 0.985    H  424 0.984    H  426 0.980
   418  H   0.959        N  411 0.911
   419  H   0.996        C  412 0.953
   420  H   0.999        C  415 0.964
   421  H   0.996        C  416 0.984
   422  H   0.999        C  416 0.985
   423  H   0.997        C  416 0.985
   424  H   0.997        C  417 0.984
   425  H   0.997        C  417 0.985
   426  H   0.998        C  417 0.980
   427  N   3.482        C  413 1.326    C  428 0.972    H  432 0.886    O  414 0.198
   428  C   3.965        C  431 0.985    N  427 0.972    C  429 0.971    H  433 0.952
   429  C   3.899        O  430 1.898    C  428 0.971    H  448 0.955
   430  O   2.036        C  429 1.898
   431  C   3.981        C  428 0.985    H  434 0.981    H  436 0.979    H  435 0.977
   432  H   0.949        N  427 0.886
   433  H   0.994        C  428 0.952
   434  H   0.993        C  431 0.981
   435  H   0.995        C  431 0.977
   436  H   0.995        C  431 0.979
   437  H   0.967        N    1 0.952
   438  H   0.990        C    3 0.949
   439  H   0.971        N   18 0.958
   440  H   0.993        C   20 0.952
   441  H   0.970        N   35 0.960
   442  H   0.995        C   61 0.954
   443  H   0.968        N   73 0.956
   444  H   0.995        C  159 0.953
   445  H   0.969        N  181 0.958
   446  H   0.993        C  202 0.951
   447  H   0.966        N  215 0.955
   448  H   0.995        C  429 0.955
 
molecular dipole:
                 x           y           z       tot (Debye)
 q only:      -74.244    -113.496     -77.007
   full:      -73.218    -109.216     -75.059     384.837
molecular quadrupole (traceless):
                xx          xy          yy          xz          yz          zz
 q only:     3748.428  -12166.020   -8754.302   -7050.202  -11309.488    5005.874
  q+dip:     3375.757  -11657.823   -7991.533   -6841.434  -10768.567    4615.776
   full:     3378.319  -11658.106   -7998.054   -6835.306  -10767.838    4619.735


           -------------------------------------------------
          | TOTAL ENERGY             -717.387050324362 Eh   |
          | GRADIENT NORM               0.543623082989 Eh/α |
          | HOMO-LUMO GAP               1.449868232223 eV   |
           -------------------------------------------------

------------------------------------------------------------------------
 * finished run on 2019/05/31 at 02:07:22.991     
------------------------------------------------------------------------
 total:
 * wall-time:     0 d,  0 h,  0 min,  9.765 sec
 *  cpu-time:     0 d,  0 h,  0 min, 36.773 sec
 * ratio c/w:     3.766 speedup
 SCF:
 * wall-time:     0 d,  0 h,  0 min,  9.377 sec
 *  cpu-time:     0 d,  0 h,  0 min, 35.399 sec
 * ratio c/w:     3.775 speedup

