      -----------------------------------------------------------      
     |                   =====================                   |     
     |                           x T B                           |     
     |                   =====================                   |     
     |                         S. Grimme                         |     
     |          Mulliken Center for Theoretical Chemistry        |     
     |                    University of Bonn                     |     
     |                 Version 6.0.1 (SAW181210)                 |     
      -----------------------------------------------------------      

   This program is distributed in the hope that it will be useful,
   but WITHOUT ANY WARRANTY; without even the implied warranty of
   MERCHANTABILITY or FITNESS FOR A PARTICULAR PURPOSE.
   
   FOR NON-COMMERCIAL, ACADEMIA USE ONLY.
   
   Cite this work as:
   S. Grimme, C. Bannwarth, P. Shushkov, J. Comput. Theory Chem., 2017,
   13, 1989-2009.
   C. Bannwarth, S. Ehlert and S. Grimme., ChemRxiv, 2018, preprint.
   http://doi.org/10.26434/chemrxiv.7246238.v1
   
   for sTDA-xTB:
   S. Grimme and C. Bannwarth, J. Chem. Phys., 2016, 145, 054103.
   
   in the mass-spec context:
   V. Asgeirsson, C. Bauer and S. Grimme, Chem. Sci., 2017, 8, 4879.
   
   if GBSA is used:
   P. Shushkov, F. März and S. Grimme, unpublished.
   
   for ANC optimizer:
   S. Grimme, unpublished.
   Rational Function algorithm used in ANCopt:
   F. Eckert, P. Pulay, H.-J. Werner, J. Comput. Chem., 1997, 18, 1473.
   
   with help from (in alphabetical order)
   C. Bannwarth, F. Bohle, G. Brandenburg, E. Caldeweyher, M. Checinski,
   S. Dohm, S. Ehlert, S. Ehrlich, F. März, H. Neugebauer, J. Pisarek,
   P. Pracht, P. Shushkov, and S. Spicher.
   
 * started run on 2019/03/14 at 15:08:19.812     
========================================================================
 # omp threads = 1
========================================================================
number of atoms            : 454
number of electrons        : 1216
charge                     : 0
spin                       : .0
first test random number   : .5312
           ------------------------------------------------- 
          |                 G F N 2 - x T B                 |
          | Geometry, Frequencies, Noncovalent interactions |
          |            JCTC 2018 parametrisation            |
           ------------------------------------------------- 
 
      method parameters     
 k(s)        :  1.8500
 k(p)        :  2.2300
 k(d)        :  2.2300
 k(f)        :  2.0000
 kEN (H0ij)  : -2.0000
 D4 a1       :  0.5200
 D4 a2       :  5.0000
 D4 s6       :  1.0000
 D4 s8       :  2.7000
 D4 s9       :  5.0000
 alphaj      :  2.0000

 Solvent             : h2o
 Using internal parameter file: .param_gbsa2_h2o
 Gsolv ref. state (COSMO-RS): gsolv [1 M gas/solution]
 temperature (mdtemp)       :    298.150000000000     
 dielectric constant        :    80.2000000000000     
 rho                        :    1.00000000000000     
 mass                       :    18.0000000000000     
 surface tension            :    15.5689454083859     
 probe radius               :   0.975313790000000     
 vdW radii scaling          :    1.00000000000000     
 Gshift (Eh)                :   1.857443126794793E-003
 c1                         :    1.55243817000000     
 soset                      :   0.130326360000000     
 HB correction              :  T

            Z     q(EN)     CN     RAES       Cart. coordinates
     1  N   5.0   -0.21    3.19    1.95   109.11649   121.03926   100.13377
     2  C   4.0    0.02    4.38    4.35   109.46761   122.46041    97.82420
     3  C   4.0    0.14    3.46    3.10   108.31195   121.21677    95.50547
     4  O   6.0   -0.31    1.26    1.80   108.78317   119.10535    94.73726
     5  C   4.0   -0.02    4.31    4.21   112.27009   123.07257    97.18176
     6  C   4.0   -0.04    4.17    3.94   113.87582   120.94996    96.00699
     7  C   4.0   -0.08    4.10    3.80   113.58512   124.38244    99.39385
     8  C   4.0   -0.07    4.00    3.63   113.92433   118.39912    97.33057
     9  H   1.0    0.08    1.03    1.43   110.11240   121.71972   101.60797
    10  H   1.0    0.03    1.06    1.44   108.52890   124.29600    98.08708
    11  H   1.0    0.03    1.07    1.44   112.10578   124.49427    95.68413
    12  H   1.0    0.05    1.03    1.43   113.18603   120.60886    94.09261
    13  H   1.0    0.03    1.04    1.43   115.79548   121.67966    95.87552
    14  H   1.0    0.03    1.00    1.43   115.37934   125.13517    98.74257
    15  H   1.0    0.04    1.00    1.43   112.42565   125.95108   100.03687
    16  H   1.0    0.04    1.00    1.43   113.97497   123.14048   100.98101
    17  H   1.0    0.04    1.00    1.43   115.13793   117.10053    96.29451
    18  H   1.0    0.04    1.00    1.43   114.61781   118.50273    99.25483
    19  H   1.0    0.06    1.01    1.43   112.03854   117.59573    97.33499
    20  N   5.0   -0.16    3.55    2.11   106.96674   122.89120    94.11845
    21  C   4.0    0.03    4.53    4.58   105.94882   122.04093    91.74124
    22  C   4.0    0.15    3.47    3.10   108.06008   122.22403    89.78700
    23  O   6.0   -0.32    1.53    1.80   108.17952   120.62723    88.11213
    24  C   4.0   -0.03    4.29    4.17   103.44492   123.35540    91.02847
    25  C   4.0   -0.05    4.20    4.00   101.66507   123.56559    93.32282
    26  C   4.0   -0.08    4.13    3.87   102.10204   121.89482    88.93509
    27  C   4.0   -0.08    4.03    3.67   101.14029   121.06187    94.65182
    28  H   1.0    0.06    1.06    1.44   106.28842   124.51685    94.84074
    29  H   1.0    0.06    1.07    1.44   105.59753   119.99741    91.91161
    30  H   1.0    0.03    1.05    1.44   103.84357   125.27180    90.35365
    31  H   1.0    0.04    1.03    1.43   102.41319   124.90776    94.69707
    32  H   1.0    0.03    1.03    1.43    99.87063   124.33115    92.65266
    33  H   1.0    0.04    1.00    1.43   100.37256   122.85844    88.39235
    34  H   1.0    0.05    1.02    1.43   103.25094   121.70287    87.25355
    35  H   1.0    0.04    1.00    1.43   101.61455   120.01061    89.58449
    36  H   1.0    0.04    1.00    1.43    99.94953   121.37764    96.29482
    37  H   1.0    0.04    1.00    1.43   100.14833   119.75841    93.41406
    38  H   1.0    0.05    1.00    1.43   102.86631   120.16456    95.30896
    39  N   5.0   -0.15    3.43    2.04   109.81662   124.02461    89.99693
    40  C   4.0    0.02    4.35    4.29   111.93985   124.31167    88.23410
    41  C   4.0    0.17    3.58    3.16   111.84833   122.21819    86.20847
    42  O   6.0   -0.31    1.37    1.80   110.83254   122.63033    84.17221
    43  C   4.0   -0.06    4.24    4.08   114.52780   124.46437    89.56724
    44  C   4.0   -0.05    4.13    3.87   115.46288   127.16500    90.17670
    45  C   4.0   -0.01    4.24    4.08   118.13620   127.50440    89.11189
    46  N   5.0   -0.14    3.37    2.01   119.34505   129.83622    89.91152
    47  C   4.0    0.10    3.36    3.07   121.31865   130.87281    88.73956
    48  N   5.0   -0.18    3.28    1.98   122.06086   130.13170    86.44588
    49  N   5.0   -0.18    3.26    1.97   122.46641   132.87356    89.73068
    50  H   1.0    0.07    1.07    1.44   109.64599   125.36956    91.34225
    51  H   1.0    0.04    1.06    1.44   111.63593   126.07053    87.17007
    52  H   1.0    0.04    1.03    1.43   114.48288   123.34318    91.29141
    53  H   1.0    0.04    1.05    1.44   115.90648   123.59625    88.30372
    54  H   1.0    0.04    1.02    1.43   114.19370   128.56128    89.35913
    55  H   1.0    0.04    1.02    1.43   115.52227   127.44441    92.21404
    56  H   1.0    0.05    1.07    1.44   119.28516   125.91548    89.74856
    57  H   1.0    0.04    1.04    1.43   118.05774   127.48830    87.05822
    58  H   1.0    0.07    1.07    1.44   119.03839   130.33753    91.72958
    59  H   1.0    0.10    1.03    1.43   121.76328   128.35459    85.82711
    60  H   1.0    0.11    1.06    1.44   123.63298   130.97406    85.74680
    61  H   1.0    0.08    1.03    1.43   121.94008   133.62631    91.39734
    62  H   1.0    0.10    1.04    1.43   124.08517   133.45538    88.90787
    63  N   5.0   -0.14    3.48    2.07   113.10345   120.05454    86.66073
    64  C   4.0    0.04    4.50    4.54   113.24255   118.17611    84.66880
    65  C   4.0    0.16    3.52    3.12   110.63449   117.61991    83.59370
    66  O   6.0   -0.33    1.45    1.80   110.33851   117.78473    81.29914
    67  C   4.0   -0.04    4.32    4.23   114.57858   115.74427    85.42966
    68  C   4.0   -0.01    3.55    3.14   117.34556   116.17188    85.95424
    69  C   4.0   -0.04    3.47    3.10   118.79574   114.22595    86.96314
    70  C   4.0   -0.03    3.53    3.13   118.53179   118.44385    85.43868
    71  C   4.0   -0.03    3.45    3.09   121.34422   114.53820    87.40465
    72  C   4.0   -0.04    3.47    3.10   121.07357   118.78429    85.89317
    73  C   4.0    0.07    3.43    3.09   122.53918   116.81236    86.81574
    74  O   6.0   -0.24    2.11    1.84   125.07728   116.92486    87.25101
    75  H   1.0    0.08    1.06    1.44   113.92769   119.69234    88.33728
    76  H   1.0    0.05    1.07    1.44   114.30849   118.94840    83.05938
    77  H   1.0    0.04    1.02    1.43   113.67139   114.84829    87.05120
    78  H   1.0    0.05    1.03    1.43   114.40738   114.45315    83.82033
    79  H   1.0    0.05    1.03    1.43   117.92604   112.42155    87.34629
    80  H   1.0    0.05    1.04    1.43   117.55565   120.01196    84.58599
    81  H   1.0    0.06    1.03    1.43   122.47213   113.03553    88.19683
    82  H   1.0    0.06    1.05    1.44   121.82210   120.62502    85.47933
    83  H   1.0    0.15    1.06    1.44   125.89948   118.40844    86.50980
    84  N   5.0   -0.14    3.51    2.08   108.82158   116.86283    85.15016
    85  C   4.0    0.03    4.40    4.38   106.19925   116.51600    84.37576
    86  C   4.0    0.16    3.50    3.12   105.30249   118.73469    82.74429
    87  O   6.0   -0.34    1.39    1.80   104.30766   118.36184    80.69401
    88  C   4.0   -0.05    4.34    4.26   104.57596   116.16053    86.75481
    89  C   4.0   -0.03    4.16    3.92   101.80542   115.33948    86.41619
    90  C   4.0   -0.07    4.15    3.91   100.48401   116.55762    84.17447
    91  C   4.0   -0.08    4.11    3.82   101.60795   112.47209    86.22459
    92  H   1.0    0.10    1.09    1.44   109.17051   116.96817    87.02215
    93  H   1.0    0.04    1.06    1.44   106.06840   114.87347    83.12736
    94  H   1.0    0.04    1.04    1.43   105.44851   114.70351    87.92422
    95  H   1.0    0.05    1.04    1.43   104.64657   117.94314    87.76490
    96  H   1.0    0.03    1.06    1.44   100.79486   115.90539    88.13377
    97  H   1.0    0.04    1.00    1.43    98.48468   116.09535    84.19821
    98  H   1.0    0.05    1.00    1.43   100.65853   118.60414    84.21286
    99  H   1.0    0.05    1.01    1.43   101.28680   115.84709    82.42340
   100  H   1.0    0.04    1.00    1.43    99.63518   111.92347    86.06243
   101  H   1.0    0.04    1.00    1.43   102.59707   111.76919    84.56769
   102  H   1.0    0.04    1.00    1.43   102.41224   111.58629    87.89463
   103  N   5.0   -0.15    3.56    2.13   105.59181   121.04906    83.71078
   104  C   4.0    0.03    4.42    4.42   104.74119   123.33500    82.46605
   105  C   4.0    0.15    3.45    3.09   106.00464   123.68579    79.89125
   106  O   6.0   -0.32    1.23    1.80   105.03941   124.96968    78.22039
   107  C   4.0   -0.04    4.35    4.29   105.12354   125.58520    84.25586
   108  C   4.0   -0.03    4.07    3.75   105.06326   128.15482    82.97848
   109  S   6.0   -0.05    2.48    3.10   105.12390   130.65766    85.33146
   110  C   4.0   -0.07    3.88    3.43   108.24505   130.15991    86.72802
   111  H   1.0    0.12    1.14    1.45   106.72961   121.25123    85.24034
   112  H   1.0    0.05    1.13    1.45   102.72374   123.12574    82.03394
   113  H   1.0    0.04    1.04    1.43   103.62730   125.54332    85.67401
   114  H   1.0    0.06    1.04    1.43   106.95131   125.37048    85.18550
   115  H   1.0    0.05    1.06    1.44   106.65421   128.42097    81.69690
   116  H   1.0    0.05    1.07    1.44   103.30985   128.42778    81.93574
   117  H   1.0    0.04    1.05    1.44   108.62830   131.84204    87.83174
   118  H   1.0    0.04    1.04    1.43   108.18272   128.51259    87.94634
   119  H   1.0    0.04    1.04    1.43   109.61450   129.94409    85.21477
   120  N   5.0   -0.12    3.62    2.18   108.15194   122.41511    79.61189
   121  C   4.0    0.04    4.47    4.49   109.56060   122.37643    77.29183
   122  C   4.0    0.15    3.44    3.09   108.69150   120.14644    75.66971
   123  O   6.0   -0.33    1.37    1.80   107.88391   120.59407    73.52727
   124  C   4.0   -0.03    4.32    4.24   112.35585   122.50630    77.97279
   125  C   4.0   -0.00    3.58    3.16   112.92420   124.89548    79.43479
   126  C   4.0   -0.03    3.50    3.11   114.77253   124.83968    81.29194
   127  C   4.0   -0.04    3.50    3.12   111.75117   127.19855    78.91715
   128  C   4.0   -0.04    3.41    3.08   115.46300   127.02855    82.54221
   129  C   4.0   -0.05    3.37    3.07   112.40806   129.37992    80.20869
   130  C   4.0   -0.05    3.37    3.07   114.30050   129.30761    82.00912
   131  H   1.0    0.12    1.13    1.45   109.01831   121.60725    81.11304
   132  H   1.0    0.06    1.07    1.44   109.03745   124.04997    76.18781
   133  H   1.0    0.06    1.03    1.43   112.86785   120.84633    79.08961
   134  H   1.0    0.04    1.03    1.43   113.50718   122.46476    76.26030
   135  H   1.0    0.06    1.03    1.43   115.76664   123.09736    81.69331
   136  H   1.0    0.05    1.03    1.43   110.34366   127.34564    77.44714
   137  H   1.0    0.05    1.04    1.43   116.96495   126.92741    83.90944
   138  H   1.0    0.04    1.03    1.43   111.46536   131.14636    79.79596
   139  H   1.0    0.05    1.03    1.43   114.88560   131.02078    82.94155
   140  N   5.0   -0.14    3.53    2.10   108.71420   117.85795    76.67830
   141  C   4.0    0.03    4.49    4.52   107.88396   115.66009    75.28403
   142  C   4.0    0.16    3.54    3.13   105.18620   116.07272    74.39682
   143  O   6.0   -0.29    1.25    1.80   104.48057   115.16598    72.38223
   144  C   4.0   -0.02    4.29    4.18   108.14093   113.09188    76.68568
   145  C   4.0   -0.04    4.19    3.99   105.87825   112.60520    78.44742
   146  C   4.0   -0.07    4.11    3.83   110.72180   112.85544    77.95216
   147  C   4.0   -0.08    4.01    3.64   106.14567   110.25936    80.10436
   148  H   1.0    0.12    1.18    1.46   109.36553   117.62089    78.46340
   149  H   1.0    0.05    1.06    1.44   109.02292   115.52844    73.55395
   150  H   1.0    0.04    1.06    1.44   108.07741   111.64292    75.20577
   151  H   1.0    0.06    1.03    1.43   105.49616   114.25099    79.61859
   152  H   1.0    0.05    1.04    1.43   104.23005   112.33621    77.23520
   153  H   1.0    0.04    1.00    1.43   110.94409   110.98074    78.75668
   154  H   1.0    0.04    1.00    1.43   112.21203   113.12337    76.56176
   155  H   1.0    0.06    1.02    1.43   110.94509   114.24328    79.43842
   156  H   1.0    0.04    1.00    1.43   104.33093   109.76758    80.93666
   157  H   1.0    0.04    1.00    1.43   106.73768   108.67966    78.93531
   158  H   1.0    0.04    1.00    1.43   107.47052   110.53911    81.65051
   159  N   5.0   -0.14    3.56    2.13   103.66091   117.44690    75.85068
   160  C   4.0    0.04    4.45    4.46   101.05110   117.78295    75.10468
   161  C   4.0    0.16    3.48    3.11   100.94927   119.35909    72.68951
   162  O   6.0   -0.28    1.22    1.80    99.39601   118.88715    71.04005
   163  C   4.0   -0.04    4.32    4.23    99.39852   118.95818    77.17367
   164  C   4.0   -0.03    4.10    3.81    99.92293   121.75856    77.52996
   165  S   6.0   -0.05    2.57    3.10    98.52257   123.03046    80.40260
   166  C   4.0   -0.07    3.89    3.44    95.33591   123.56347    79.28674
   167  H   1.0    0.12    1.15    1.45   104.19587   118.00997    77.60748
   168  H   1.0    0.06    1.06    1.44   100.24676   115.92957    74.62208
   169  H   1.0    0.04    1.03    1.43    97.42608   118.66492    76.64601
   170  H   1.0    0.05    1.04    1.43    99.75509   117.98052    78.95219
   171  H   1.0    0.07    1.09    1.44   101.94256   122.07395    77.70937
   172  H   1.0    0.05    1.07    1.44    99.20205   122.89409    75.97131
   173  H   1.0    0.04    1.05    1.44    94.32825   124.53002    80.78664
   174  H   1.0    0.04    1.04    1.43    95.42754   124.74469    77.60945
   175  H   1.0    0.04    1.04    1.43    94.46304   121.75281    78.88140
   176  N   5.0   -0.14    3.53    2.10   102.59921   121.26344    72.54700
   177  C   4.0    0.04    4.49    4.52   102.84869   122.85288    70.32911
   178  C   4.0    0.16    3.51    3.12   103.97953   121.34648    68.14796
   179  O   6.0   -0.28    1.24    1.80   103.21294   121.61485    65.97776
   180  C   4.0   -0.02    4.32    4.23   104.45728   125.22327    70.89906
   181  C   4.0   -0.05    4.17    3.93   102.83411   127.38509    71.94830
   182  C   4.0   -0.07    4.16    3.91   105.99505   126.07130    68.60141
   183  C   4.0   -0.08    4.02    3.66   101.08582   128.60184    70.01000
   184  H   1.0    0.10    1.09    1.44   103.92930   121.44332    73.90571
   185  H   1.0    0.06    1.06    1.44   100.94835   123.41052    69.72093
   186  H   1.0    0.06    1.06    1.44   105.79428   124.68052    72.38218
   187  H   1.0    0.05    1.03    1.43   101.73901   126.65944    73.53871
   188  H   1.0    0.04    1.03    1.43   104.10456   128.83686    72.67823
   189  H   1.0    0.04    1.00    1.43   106.87387   127.88985    68.97620
   190  H   1.0    0.04    1.00    1.43   107.48113   124.70811    68.20884
   191  H   1.0    0.05    1.00    1.43   104.82688   126.24967    66.92044
   192  H   1.0    0.04    1.00    1.43    99.97029   130.08127    70.89539
   193  H   1.0    0.04    1.00    1.43   102.17129   129.44779    68.48809
   194  H   1.0    0.05    1.00    1.43    99.79699   127.22653    69.19375
   195  N   5.0   -0.13    3.51    2.08   105.82293   119.74337    68.75383
   196  C   4.0    0.04    4.35    4.29   107.14294   118.38032    66.78168
   197  C   4.0    0.10    3.26    3.04   105.36721   116.39979    65.68640
   198  O   6.0   -0.27    1.11    1.80   105.16787   116.07888    63.40074
   199  C   4.0   -0.05    4.37    4.32   109.52916   117.07145    67.72709
   200  C   4.0   -0.02    4.20    4.00   111.33761   118.82543    69.14965
   201  C   4.0   -0.07    4.11    3.83   113.28127   117.19852    70.51771
   202  C   4.0   -0.07    4.10    3.81   112.56297   120.71701    67.35300
   203  H   1.0    0.11    1.12    1.45   106.52267   119.72834    70.53794
   204  H   1.0    0.06    1.06    1.44   107.58921   119.70671    65.24933
   205  H   1.0    0.05    1.03    1.43   108.95620   115.52009    68.96154
   206  H   1.0    0.04    1.03    1.43   110.50897   116.27317    66.09739
   207  H   1.0    0.06    1.08    1.44   110.26738   119.87758    70.55825
   208  H   1.0    0.04    1.00    1.43   114.31211   118.30886    71.89400
   209  H   1.0    0.04    1.00    1.43   112.34624   115.66054    71.50728
   210  H   1.0    0.04    1.00    1.43   114.58801   116.38513    69.15973
   211  H   1.0    0.05    1.00    1.43   113.34401   122.33467    68.34844
   212  H   1.0    0.05    1.00    1.43   114.08214   119.84791    66.27673
   213  H   1.0    0.04    1.00    1.43   111.16656   121.43885    66.03486
   214  N   5.0   -0.22    3.27    1.97   118.47084   126.36784    59.52026
   215  C   4.0    0.02    4.41    4.40   116.84605   125.88891    61.67219
   216  C   4.0    0.14    3.45    3.10   118.06620   123.89214    63.35849
   217  O   6.0   -0.34    1.34    1.80   117.59374   123.83289    65.62695
   218  C   4.0   -0.02    4.31    4.22   114.13588   125.00452    61.00737
   219  C   4.0   -0.05    4.22    4.03   114.24111   122.31780    59.91653
   220  C   4.0   -0.08    4.11    3.83   112.84496   126.94849    59.31584
   221  C   4.0   -0.08    4.02    3.65   111.90263   121.48915    58.45580
   222  H   1.0    0.07    1.02    1.43   117.90055   125.80528    57.77417
   223  H   1.0    0.04    1.05    1.44   116.71979   127.63464    62.78512
   224  H   1.0    0.04    1.06    1.44   113.11741   124.93564    62.80832
   225  H   1.0    0.04    1.04    1.43   115.87291   122.21504    58.67229
   226  H   1.0    0.04    1.03    1.43   114.55965   120.99843    61.47020
   227  H   1.0    0.04    1.00    1.43   110.92584   126.40185    58.83164
   228  H   1.0    0.04    1.00    1.43   112.76318   128.73990    60.31442
   229  H   1.0    0.04    1.00    1.43   113.90539   127.18888    57.58171
   230  H   1.0    0.04    1.00    1.43   112.00265   119.47558    58.05577
   231  H   1.0    0.04    1.00    1.43   110.18918   121.82615    59.53083
   232  H   1.0    0.04    1.00    1.43   111.77737   122.50320    56.67671
   233  N   5.0   -0.15    3.44    2.04   119.55684   122.25489    62.16818
   234  C   4.0    0.01    4.23    4.06   121.09142   120.35546    63.36200
   235  C   4.0    0.15    3.37    3.07   123.58396   121.45384    64.30058
   236  O   6.0   -0.32    1.38    1.80   124.45881   120.75893    66.31537
   237  H   1.0    0.07    1.08    1.44   119.75604   122.35016    60.26621
   238  H   1.0    0.07    1.04    1.43   120.16139   119.58451    65.04402
   239  H   1.0    0.04    1.02    1.43   121.43432   118.84596    61.99749
   240  N   5.0   -0.15    3.49    2.07   124.69475   123.28702    62.94336
   241  C   4.0    0.04    4.50    4.53   126.90028   124.51377    64.02884
   242  C   4.0    0.16    3.54    3.13   125.97967   126.08289    66.26410
   243  O   6.0   -0.31    1.31    1.80   127.17792   126.19394    68.23952
   244  C   4.0    0.05    4.20    4.00   128.49377   126.09531    62.16065
   245  O   6.0   -0.25    2.11    1.84   131.06125   125.59745    62.74598
   246  C   4.0   -0.07    4.10    3.81   127.92596   128.92588    62.26966
   247  H   1.0    0.07    1.05    1.44   124.36594   123.54653    61.07469
   248  H   1.0    0.07    1.06    1.44   128.18041   123.07600    64.81164
   249  H   1.0    0.04    1.04    1.43   128.10571   125.39512    60.25551
   250  H   1.0    0.11    1.02    1.43   132.11436   126.54059    61.58979
   251  H   1.0    0.04    1.00    1.43   128.96345   129.91102    60.79366
   252  H   1.0    0.04    1.00    1.43   125.92235   129.26816    61.99935
   253  H   1.0    0.05    1.00    1.43   128.48991   129.69208    64.09324
   254  N   5.0   -0.14    3.55    2.12   123.78492   127.27563    65.90914
   255  C   4.0    0.03    4.46    4.48   122.60356   128.61946    67.97023
   256  C   4.0    0.16    3.52    3.13   122.08902   126.64728    69.99592
   257  O   6.0   -0.33    1.47    1.80   123.03283   126.98540    72.08378
   258  C   4.0   -0.04    4.30    4.19   120.27437   130.12927    67.18811
   259  C   4.0   -0.02    3.54    3.13   120.80627   132.21501    65.31162
   260  C   4.0   -0.05    3.47    3.10   118.76344   133.37653    64.12866
   261  C   4.0   -0.04    3.49    3.11   123.22797   133.01918    64.69902
   262  C   4.0   -0.05    3.37    3.07   119.13152   135.20903    62.30416
   263  C   4.0   -0.05    3.38    3.07   123.60257   134.85132    62.86718
   264  C   4.0   -0.04    3.37    3.07   121.56012   135.93087    61.64161
   265  H   1.0    0.08    1.06    1.44   122.89336   127.36075    64.21033
   266  H   1.0    0.05    1.06    1.44   123.99459   129.89556    68.84079
   267  H   1.0    0.05    1.03    1.43   118.86506   128.85372    66.38325
   268  H   1.0    0.04    1.03    1.43   119.44210   130.97368    68.88420
   269  H   1.0    0.04    1.03    1.43   116.86221   132.83878    64.64480
   270  H   1.0    0.05    1.04    1.43   124.85663   132.21427    65.62012
   271  H   1.0    0.05    1.03    1.43   117.52445   136.06462    61.38292
   272  H   1.0    0.05    1.03    1.43   125.49967   135.42246    62.37729
   273  H   1.0    0.05    1.03    1.43   121.85995   137.32265    60.18298
   274  N   5.0   -0.13    3.49    2.07   120.75739   124.58483    69.46073
   275  C   4.0    0.04    4.45    4.46   120.09682   122.90026    71.51861
   276  C   4.0    0.17    3.53    3.13   122.42232   121.86367    72.85722
   277  O   6.0   -0.31    1.36    1.80   122.55764   121.86058    75.17359
   278  C   4.0    0.03    4.18    3.96   118.41256   120.73829    70.65558
   279  O   6.0   -0.24    2.08    1.84   119.67153   119.02538    69.05513
   280  H   1.0    0.12    1.15    1.45   119.71892   124.35221    67.84224
   281  H   1.0    0.04    1.07    1.44   119.01994   123.94057    72.94894
   282  H   1.0    0.04    1.02    1.43   117.77847   119.76834    72.37098
   283  H   1.0    0.05    1.02    1.43   116.80520   121.55789    69.64543
   284  H   1.0    0.11    1.03    1.43   118.76713   117.44801    69.14679
   285  N   5.0   -0.13    3.59    2.14   124.23548   121.03882    71.34354
   286  C   4.0    0.04    4.53    4.58   126.53351   120.00888    72.39779
   287  C   4.0    0.16    3.54    3.14   127.76043   122.05621    74.00074
   288  O   6.0   -0.32    1.33    1.80   128.75165   121.55098    76.05195
   289  C   4.0   -0.02    4.35    4.28   128.24149   119.04141    70.26546
   290  C   4.0   -0.04    4.20    4.00   127.25851   116.47047    69.36066
   291  C   4.0   -0.07    4.14    3.87   130.98589   118.85138    71.11181
   292  C   4.0   -0.07    4.01    3.63   128.03419   115.83950    66.66266
   293  H   1.0    0.13    1.14    1.45   123.86720   120.77943    69.47453
   294  H   1.0    0.06    1.05    1.44   126.05528   118.46087    73.70800
   295  H   1.0    0.06    1.07    1.44   128.09567   120.41648    68.73140
   296  H   1.0    0.04    1.03    1.43   127.94803   115.01722    70.65368
   297  H   1.0    0.06    1.03    1.43   125.20021   116.47395    69.47195
   298  H   1.0    0.04    1.00    1.43   132.11715   118.01713    69.61786
   299  H   1.0    0.05    1.00    1.43   131.74199   120.70646    71.56521
   300  H   1.0    0.05    1.00    1.43   131.13242   117.66443    72.78441
   301  H   1.0    0.04    1.00    1.43   127.34496   113.97071    66.16421
   302  H   1.0    0.06    1.00    1.43   127.20786   117.21426    65.38545
   303  H   1.0    0.04    1.00    1.43   130.07445   115.86452    66.44099
   304  N   5.0   -0.13    3.54    2.11   127.68602   124.39802    73.09567
   305  C   4.0    0.04    4.46    4.47   128.55083   126.47068    74.65550
   306  C   4.0    0.16    3.54    3.13   126.91094   126.62478    77.02604
   307  O   6.0   -0.33    1.46    1.80   127.89635   126.85821    79.11136
   308  C   4.0   -0.03    4.32    4.24   128.49235   128.97797    73.22495
   309  C   4.0   -0.01    3.53    3.13   129.56063   131.22797    74.61600
   310  C   4.0   -0.04    3.47    3.10   129.03020   133.62767    73.66703
   311  C   4.0   -0.04    3.48    3.11   131.06785   131.05297    76.75721
   312  C   4.0   -0.04    3.37    3.07   129.91798   135.78021    74.84966
   313  C   4.0   -0.04    3.38    3.07   131.94744   133.21143    77.95940
   314  C   4.0   -0.04    3.37    3.07   131.36036   135.58049    77.02449
   315  H   1.0    0.12    1.12    1.45   127.07051   124.79596    71.32349
   316  H   1.0    0.05    1.06    1.44   130.47204   126.00257    75.28855
   317  H   1.0    0.06    1.03    1.43   129.50550   128.72816    71.44048
   318  H   1.0    0.06    1.04    1.43   126.51804   129.35666    72.76074
   319  H   1.0    0.05    1.03    1.43   127.91266   133.80723    71.96920
   320  H   1.0    0.06    1.03    1.43   131.55406   129.23443    77.53588
   321  H   1.0    0.05    1.03    1.43   129.49153   137.61341    74.06276
   322  H   1.0    0.05    1.03    1.43   133.12282   133.03091    79.62079
   323  H   1.0    0.05    1.03    1.43   132.04078   137.25748    77.96343
   324  N   5.0   -0.14    3.59    2.15   124.42751   126.60585    76.75746
   325  C   4.0    0.04    4.44    4.45   122.77773   126.73356    78.92544
   326  C   4.0    0.16    3.47    3.10   123.47208   124.67531    80.84079
   327  O   6.0   -0.32    1.22    1.80   123.14189   125.02356    83.11608
   328  C   4.0   -0.04    4.34    4.28   119.98888   126.40846    78.19394
   329  C   4.0   -0.02    4.20    4.01   119.12991   128.12312    76.02161
   330  C   4.0   -0.08    4.11    3.82   116.50839   127.41974    75.02574
   331  C   4.0   -0.08    4.11    3.82   119.17204   130.90957    76.72197
   332  H   1.0    0.12    1.16    1.46   123.64464   126.22172    75.05814
   333  H   1.0    0.05    1.05    1.44   123.09847   128.56597    79.85411
   334  H   1.0    0.06    1.03    1.43   119.72078   124.43265    77.64626
   335  H   1.0    0.05    1.05    1.44   118.83193   126.75266    79.85842
   336  H   1.0    0.07    1.11    1.45   120.47434   127.83691    74.50371
   337  H   1.0    0.04    1.00    1.43   116.33970   127.88496    73.02928
   338  H   1.0    0.04    1.00    1.43   116.14244   125.41366    75.26895
   339  H   1.0    0.04    1.02    1.43   115.04957   128.44242    76.03744
   340  H   1.0    0.04    1.00    1.43   118.62975   132.01168    75.07622
   341  H   1.0    0.04    1.00    1.43   117.83702   131.31183    78.22693
   342  H   1.0    0.04    1.00    1.43   121.06092   131.43419    77.31524
   343  N   5.0   -0.12    3.59    2.15   124.49294   122.60104    79.84455
   344  C   4.0    0.04    4.44    4.45   125.22920   120.43337    81.32633
   345  C   4.0    0.15    3.43    3.09   127.73516   120.97314    82.63445
   346  O   6.0   -0.32    1.31    1.80   127.98955   120.61999    84.93587
   347  C   4.0   -0.03    4.25    4.10   125.29033   118.04450    79.72821
   348  C   4.0    0.26    3.10    3.02   122.58447   117.38429    78.65977
   349  O   6.0   -0.29    1.19    1.80   120.73652   118.27059    79.80300
   350  O   6.0   -0.29    1.16    1.80   122.55409   115.95789    76.78877
   351  H   1.0    0.13    1.15    1.45   124.24491   122.24072    77.98353
   352  H   1.0    0.06    1.09    1.44   123.80614   120.13640    82.78991
   353  H   1.0    0.06    1.02    1.43   126.60508   118.18686    78.14798
   354  H   1.0    0.05    1.02    1.43   125.85051   116.42910    80.89016
   355  N   5.0   -0.13    3.53    2.10   129.53326   121.96638    81.20696
   356  C   4.0    0.04    4.32    4.24   132.04507   122.65590    82.10231
   357  C   4.0    0.15    3.40    3.08   131.80471   124.74190    84.12966
   358  O   6.0   -0.32    1.24    1.80   132.74899   124.55285    86.25435
   359  C   4.0   -0.07    4.11    3.83   133.57895   123.50868    79.81273
   360  H   1.0    0.12    1.13    1.45   129.24617   122.01589    79.30287
   361  H   1.0    0.06    1.05    1.44   132.92319   121.00480    83.00433
   362  H   1.0    0.04    1.00    1.43   135.51397   123.95365    80.32457
   363  H   1.0    0.05    1.00    1.43   133.59158   122.01070    78.40249
   364  H   1.0    0.05    1.00    1.43   132.70513   125.16301    78.96463
   365  N   5.0   -0.15    3.54    2.11   130.46193   126.70705    83.33410
   366  C   4.0    0.04    4.33    4.25   129.61416   128.88690    84.72971
   367  C   4.0    0.16    3.45    3.09   127.81951   128.26505    86.90713
   368  O   6.0   -0.31    1.34    1.80   127.13583   129.92791    88.33192
   369  C   4.0    0.04    4.20    4.00   128.05902   130.59061    82.89987
   370  O   6.0   -0.25    2.09    1.84   126.80651   132.58132    84.11373
   371  H   1.0    0.12    1.20    1.46   129.63639   126.49600    81.60830
   372  H   1.0    0.05    1.04    1.43   131.23895   129.89042    85.54889
   373  H   1.0    0.04    1.02    1.43   129.22390   131.25295    81.33143
   374  H   1.0    0.07    1.04    1.43   126.61441   129.33544    82.12700
   375  H   1.0    0.12    1.02    1.43   127.56223   134.17922    83.66907
   376  N   5.0   -0.13    3.51    2.09   126.99326   125.88010    87.13843
   377  C   4.0    0.04    4.47    4.49   125.75952   125.03541    89.41031
   378  C   4.0    0.15    3.56    3.14   127.44896   123.35294    91.00748
   379  O   6.0   -0.32    1.37    1.80   126.84469   122.81174    93.16038
   380  C   4.0   -0.03    4.37    4.33   123.47618   123.35561    88.85914
   381  C   4.0    0.06    3.84    3.39   122.11806   122.65212    91.22221
   382  N   5.0   -0.19    2.59    1.90   121.15791   124.43119    92.82341
   383  C   4.0   -0.00    3.61    3.17   121.62457   120.29553    92.16902
   384  C   4.0    0.05    3.67    3.21   120.10172   123.18570    94.67030
   385  N   5.0   -0.13    3.45    2.05   120.32435   120.66225    94.36402
   386  H   1.0    0.11    1.09    1.44   127.27503   124.54447    85.80455
   387  H   1.0    0.06    1.06    1.44   125.19658   126.66924    90.54906
   388  H   1.0    0.05    1.03    1.43   122.25857   124.27298    87.46915
   389  H   1.0    0.06    1.06    1.44   124.23022   121.63656    88.03742
   390  H   1.0    0.05    1.02    1.43   122.09254   118.44889    91.48553
   391  H   1.0    0.03    1.02    1.43   119.16394   124.07045    96.22618
   392  H   1.0    0.07    1.05    1.44   119.70210   119.29530    95.53198
   393  N   5.0   -0.14    3.55    2.12   129.55211   122.42732    89.94769
   394  C   4.0    0.04    4.49    4.52   131.15614   120.95540    91.57087
   395  C   4.0    0.16    3.43    3.09   132.95223   122.70876    93.04625
   396  O   6.0   -0.28    1.23    1.80   133.88666   122.01402    95.03353
   397  C   4.0   -0.02    4.28    4.17   132.54955   118.87060    90.15557
   398  C   4.0    0.16    3.23    3.04   134.24039   117.23232    91.81050
   399  O   6.0   -0.28    1.20    1.80   136.30988   116.54098    91.08464
   400  N   5.0   -0.17    3.20    1.95   133.19837   116.42690    93.99148
   401  H   1.0    0.11    1.09    1.44   129.96907   122.58061    88.07686
   402  H   1.0    0.07    1.08    1.44   129.89179   120.17303    93.03302
   403  H   1.0    0.06    1.03    1.43   131.18362   117.63241    89.21981
   404  H   1.0    0.06    1.03    1.43   133.76054   119.70763    88.71569
   405  H   1.0    0.10    1.03    1.43   134.38007   115.65110    95.26896
   406  H   1.0    0.09    1.04    1.43   131.71134   117.37394    94.70074
   407  N   5.0   -0.14    3.50    2.08   133.21683   125.04762    92.09871
   408  C   4.0    0.04    4.47    4.49   134.78431   126.90145    93.38966
   409  C   4.0    0.14    3.46    3.10   133.35222   128.17616    95.60710
   410  O   6.0   -0.27    1.24    1.80   134.29891   128.16623    97.74125
   411  C   4.0   -0.03    4.23    4.07   136.00077   128.75138    91.49298
   412  C   4.0   -0.07    4.11    3.83   137.52602   130.79625    92.84052
   413  C   4.0   -0.07    4.12    3.84   137.71324   127.29996    89.67308
   414  H   1.0    0.10    1.09    1.44   132.76224   125.31714    90.24811
   415  H   1.0    0.07    1.07    1.44   136.30332   125.85858    94.35806
   416  H   1.0    0.04    1.05    1.44   134.50496   129.65803    90.39194
   417  H   1.0    0.04    1.00    1.43   138.40426   132.03230    91.45442
   418  H   1.0    0.05    1.00    1.43   136.33126   131.90789    94.08665
   419  H   1.0    0.05    1.00    1.43   139.01698   129.94768    93.97602
   420  H   1.0    0.04    1.00    1.43   138.65276   128.60327    88.39297
   421  H   1.0    0.05    1.00    1.43   139.16206   126.28013    90.71692
   422  H   1.0    0.06    1.00    1.43   136.63366   125.94107    88.57761
   423  N   5.0   -0.11    3.60    2.16   131.13659   129.33275    95.20944
   424  C   4.0    0.04    4.56    4.62   129.96457   130.82342    97.22406
   425  C   4.0    0.15    3.47    3.10   129.14083   129.45344    99.64232
   426  O   6.0   -0.28    1.24    1.80   129.55726   130.48972   101.67191
   427  C   4.0   -0.05    4.29    4.18   127.71180   132.20544    96.02261
   428  C   4.0   -0.03    4.26    4.12   127.45469   131.13611    93.34725
   429  C   4.0   -0.00    4.37    4.32   129.75284   129.45189    92.83933
   430  H   1.0    0.06    1.06    1.44   131.35676   132.17960    97.95350
   431  H   1.0    0.04    1.02    1.43   125.99114   131.95822    97.12842
   432  H   1.0    0.04    1.02    1.43   128.11340   134.22102    95.97021
   433  H   1.0    0.05    1.02    1.43   125.72160   130.05077    93.14574
   434  H   1.0    0.05    1.04    1.43   127.51146   132.68298    92.01157
   435  H   1.0    0.06    1.03    1.43   129.23588   127.55074    92.23046
   436  H   1.0    0.05    1.02    1.43   130.89601   130.26847    91.33131
   437  N   5.0   -0.10    3.64    2.20   127.79720   127.31842    99.45341
   438  C   4.0    0.04    4.51    4.55   126.97853   125.99636   101.70828
   439  C   4.0    0.09    3.24    3.04   129.10519   124.62637   103.08235
   440  O   6.0   -0.28    1.12    1.80   128.75964   123.71921   105.17873
   441  C   4.0   -0.04    4.35    4.30   125.12676   123.95555   100.79109
   442  C   4.0   -0.04    4.29    4.17   124.59948   124.63958    98.04600
   443  C   4.0    0.01    4.42    4.41   127.00331   125.98029    97.20194
   444  H   1.0    0.06    1.05    1.44   126.13123   127.30066   103.06981
   445  H   1.0    0.05    1.04    1.43   126.09247   122.14243   100.96532
   446  H   1.0    0.04    1.02    1.43   123.43952   123.93483   101.95713
   447  H   1.0    0.06    1.04    1.43   124.25056   122.99801    96.87722
   448  H   1.0    0.04    1.03    1.43   122.98239   125.90655    97.92570
   449  H   1.0    0.07    1.03    1.43   128.43084   124.60025    96.60627
   450  H   1.0    0.05    1.05    1.44   126.63593   127.27065    95.65778
   451  H   1.0    0.09    1.07    1.44   107.47415   121.06921   100.57467
   452  H   1.0    0.07    1.05    1.44   104.32759   115.32204    66.83909
   453  H   1.0    0.09    1.07    1.44   118.72677   128.04191    59.36357
   454  H   1.0    0.07    1.05    1.44   130.80349   124.46240   102.26998

  Z AO/shell   Hii/eV     exponent
  1     Wed Apr 25 08:07:45 CEST 2018   EN: 2.200 GM2: 0.406  GM3: 0.0800  RAES: 1.40
     1s    -10.707211    1.230000
  6     Wed Apr 25 08:07:45 CEST 2018   EN: 2.550 GM2: 0.538  GM3: 0.1500  RAES: 3.00
     2s    -13.970922    2.096432
     2p    -10.063292    1.800000
  7     Wed Apr 25 08:07:45 CEST 2018   EN: 3.040 GM2: 0.461  GM3:-0.0640  RAES: 1.90
     2s    -16.686243    2.339881
     2p    -12.523956    2.014332
  8     Wed Apr 25 08:07:45 CEST 2018   EN: 3.440 GM2: 0.452  GM3:-0.0517  RAES: 1.80
     2s    -20.229985    2.439742
     2p    -15.503117    2.137023
 16     Tue Apr 24 11:44:34 CEST 2018   EN: 2.580 GM2: 0.340  GM3:-0.0502  RAES: 3.10
     3s    -20.029654    1.981333
     3p    -11.377694    2.025643
     3d     -0.420282    1.702555
 no old-style atom pair restraining (fixing) potential

molecular fragmentation (1/2 indicates fragments):
111111111111111111111111111111111111111111111111111111111111111111111111
111111111111111111111111111111111111111111111111111111111111111111111111
111111111111111111111111111111111111111111111111111111111111111111111222
222222222222222222222222222222222222222222222222222222222222222222222222
222222222222222222222222222222222222222222222222222222222222222222222222
222222222222222222222222222222222222222222222222222222222222222222222222
2222222222222222221122
# atoms in fragment 1/2:   215   239
 fragment masses (1/2) :     1410.90     1697.93
CMA distance (Bohr)    :  17.975
constraining FC (au)   :  0.0500
           ------------------------------------------------- 
          |        Self-Consistent Charge Iterations        |
           ------------------------------------------------- 

 Ncao       : 1123
 Nao        : 1121
 Nshell     : 675
 Nel        : 1216
 T(el)      :   500.0
 intcut     :    35.0
 scfconv/Eh :  0.100E-06
   qconv/e  :  0.100E-04
 intneglect :  0.100E-08
 broydamp   :      0.400
 iter      E             dE          RMSdq      gap      omega  full diag
   1   -690.0796357 -0.690080E+03  0.433E+00    2.99       0.0  T
   2   -691.4797534 -0.140012E+01  0.208E+00    1.82       1.0  T
   3   -691.5544384 -0.746850E-01  0.113E+00    2.19       1.0  T
   4   -691.6524648 -0.980264E-01  0.239E-01    1.77       1.0  T
   5   -691.6579005 -0.543566E-02  0.117E-01    1.84       1.0  T
   6   -691.6587079 -0.807438E-03  0.539E-02    1.78       1.0  T
   7   -691.6591283 -0.420323E-03  0.257E-02    1.77       1.0  T
   8   -691.6591724 -0.441253E-04  0.130E-02    1.76       1.0  T
   9   -691.6591894 -0.170250E-04  0.628E-03    1.74       1.0  T
  10   -691.6591927 -0.330266E-05  0.322E-03    1.74       1.5  T
  11   -691.6591938 -0.108307E-05  0.144E-03    1.74       3.3  T
  12   -691.6591940 -0.169435E-06  0.704E-04    1.74       6.7  T
  13   -691.6591940 -0.472022E-07  0.323E-04    1.74      14.5  T
  14   -691.6591940 -0.777118E-08  0.145E-04    1.74      32.3  T
  15   -691.6591940 -0.167961E-08  0.679E-05    1.74      69.1  T
  16   -691.6591940 -0.417231E-09  0.337E-05    1.74     139.3  T
speedup  1.00
cpu  time for SCC    9.17 s
wall time for SCC    9.17 s

   *** convergence criteria satisfied after 16 iterations ***

          eigenvalues
 #    :         596        597        598        599        600        601        602        603
 occ. :        2.000      2.000      2.000      2.000      2.000      2.000      2.000      2.000
 eps  :       -10.740    -10.725    -10.592    -10.497    -10.478    -10.462    -10.454    -10.440
 #    :         604        605        606        607        608        609        610        611
 occ. :        2.000      2.000      2.000      2.000      2.000      0.000      0.000      0.000
 eps  :       -10.266     -9.947     -9.885     -9.807     -9.633     -7.897     -7.691     -6.869
 #    :         612        613        614        615        616        617        618        619
 occ. :        0.000      0.000      0.000      0.000      0.000      0.000      0.000      0.000
 eps  :        -6.778     -6.730     -6.710     -6.682     -6.602     -6.580     -6.578     -6.496


   #   Z            q   n(s)   n(p)   n(d)      C6AA      α(0)
   1   7 N     -0.386  1.315  4.071  0.000    29.987     8.133
   2   6 C      0.033  1.061  2.906  0.000    20.024     6.373
   3   6 C      0.274  1.045  2.680  0.000    22.364     7.745
   4   8 O     -0.463  1.750  4.714  0.000    22.989     6.428
   5   6 C     -0.025  1.071  2.954  0.000    20.979     6.515
   6   6 C     -0.062  1.050  3.012  0.000    21.693     6.631
   7   6 C     -0.118  1.040  3.078  0.000    22.823     6.812
   8   6 C     -0.110  1.033  3.077  0.000    22.667     6.790
   9   1 H      0.169  0.831  0.000  0.000     1.282     1.773
  10   1 H      0.009  0.991  0.000  0.000     2.915     2.670
  11   1 H      0.040  0.960  0.000  0.000     2.444     2.445
  12   1 H      0.025  0.975  0.000  0.000     2.655     2.548
  13   1 H      0.049  0.951  0.000  0.000     2.335     2.390
  14   1 H      0.057  0.943  0.000  0.000     2.230     2.335
  15   1 H      0.048  0.952  0.000  0.000     2.350     2.397
  16   1 H      0.045  0.955  0.000  0.000     2.388     2.416
  17   1 H      0.021  0.979  0.000  0.000     2.713     2.576
  18   1 H      0.038  0.962  0.000  0.000     2.482     2.464
  19   1 H      0.055  0.945  0.000  0.000     2.257     2.350
  20   7 N     -0.202  1.253  3.950  0.000    25.396     7.485
  21   6 C      0.015  1.063  2.922  0.000    20.327     6.418
  22   6 C      0.269  1.049  2.682  0.000    22.454     7.759
  23   8 O     -0.486  1.744  4.742  0.000    23.464     6.495
  24   6 C     -0.025  1.067  2.958  0.000    20.993     6.517
  25   6 C     -0.067  1.053  3.014  0.000    21.777     6.644
  26   6 C     -0.126  1.038  3.088  0.000    22.967     6.833
  27   6 C     -0.112  1.034  3.078  0.000    22.702     6.795
  28   1 H      0.209  0.791  0.000  0.000     1.059     1.612
  29   1 H      0.095  0.905  0.000  0.000     1.836     2.119
  30   1 H      0.052  0.948  0.000  0.000     2.292     2.368
  31   1 H      0.044  0.956  0.000  0.000     2.394     2.420
  32   1 H      0.058  0.942  0.000  0.000     2.218     2.329
  33   1 H      0.056  0.944  0.000  0.000     2.247     2.344
  34   1 H      0.042  0.958  0.000  0.000     2.421     2.433
  35   1 H      0.054  0.946  0.000  0.000     2.273     2.357
  36   1 H      0.041  0.959  0.000  0.000     2.430     2.438
  37   1 H      0.043  0.957  0.000  0.000     2.411     2.428
  38   1 H      0.034  0.966  0.000  0.000     2.526     2.485
  39   7 N     -0.164  1.244  3.920  0.000    24.544     7.358
  40   6 C      0.004  1.074  2.922  0.000    20.524     6.453
  41   6 C      0.287  1.042  2.671  0.000    22.128     7.703
  42   8 O     -0.486  1.743  4.743  0.000    23.475     6.496
  43   6 C     -0.095  1.059  3.036  0.000    22.314     6.725
  44   6 C     -0.093  1.059  3.034  0.000    22.281     6.721
  45   6 C     -0.041  1.056  2.985  0.000    21.392     6.599
  46   7 N     -0.136  1.216  3.920  0.000    23.941     7.267
  47   6 C      0.225  1.023  2.753  0.000    23.268     7.898
  48   7 N     -0.243  1.240  4.003  0.000    26.351     7.624
  49   7 N     -0.244  1.233  4.011  0.000    26.364     7.626
  50   1 H      0.227  0.773  0.000  0.000     0.977     1.549
  51   1 H      0.094  0.906  0.000  0.000     1.844     2.124
  52   1 H      0.076  0.924  0.000  0.000     2.017     2.221
  53   1 H      0.060  0.940  0.000  0.000     2.204     2.322
  54   1 H      0.086  0.914  0.000  0.000     1.920     2.167
  55   1 H      0.092  0.908  0.000  0.000     1.860     2.133
  56   1 H      0.088  0.912  0.000  0.000     1.900     2.156
  57   1 H      0.071  0.929  0.000  0.000     2.079     2.255
  58   1 H      0.247  0.753  0.000  0.000     0.896     1.483
  59   1 H      0.211  0.789  0.000  0.000     1.051     1.606
  60   1 H      0.238  0.762  0.000  0.000     0.931     1.511
  61   1 H      0.257  0.743  0.000  0.000     0.856     1.450
  62   1 H      0.252  0.748  0.000  0.000     0.876     1.466
  63   7 N     -0.180  1.238  3.942  0.000    24.900     7.411
  64   6 C      0.030  1.054  2.915  0.000    20.062     6.377
  65   6 C      0.279  1.040  2.681  0.000    22.278     7.729
  66   8 O     -0.501  1.730  4.771  0.000    23.806     6.542
  67   6 C     -0.079  1.053  3.025  0.000    21.997     6.676
  68   6 C     -0.000  1.074  2.926  0.000    28.033     8.685
  69   6 C     -0.047  1.082  2.965  0.000    29.166     8.857
  70   6 C     -0.037  1.078  2.959  0.000    28.912     8.818
  71   6 C     -0.063  1.076  2.987  0.000    29.566     8.917
  72   6 C     -0.074  1.078  2.996  0.000    29.846     8.959
  73   6 C      0.145  1.046  2.809  0.000    24.845     8.169
  74   8 O     -0.447  1.713  4.734  0.000    21.778     6.300
  75   1 H      0.214  0.786  0.000  0.000     1.039     1.597
  76   1 H      0.066  0.934  0.000  0.000     2.133     2.284
  77   1 H      0.077  0.923  0.000  0.000     2.008     2.216
  78   1 H      0.060  0.940  0.000  0.000     2.205     2.322
  79   1 H      0.051  0.949  0.000  0.000     2.310     2.377
  80   1 H      0.040  0.960  0.000  0.000     2.452     2.449
  81   1 H      0.045  0.955  0.000  0.000     2.380     2.412
  82   1 H      0.051  0.949  0.000  0.000     2.305     2.374
  83   1 H      0.318  0.682  0.000  0.000     0.671     1.286
  84   7 N     -0.164  1.249  3.914  0.000    24.547     7.358
  85   6 C      0.020  1.064  2.916  0.000    20.246     6.408
  86   6 C      0.286  1.042  2.672  0.000    22.148     7.706
  87   8 O     -0.495  1.733  4.761  0.000    23.667     6.523
  88   6 C     -0.092  1.061  3.031  0.000    22.253     6.715
  89   6 C     -0.012  1.057  2.955  0.000    20.765     6.482
  90   6 C     -0.113  1.038  3.075  0.000    22.717     6.796
  91   6 C     -0.120  1.042  3.077  0.000    22.843     6.814
  92   1 H      0.234  0.766  0.000  0.000     0.948     1.525
  93   1 H      0.078  0.922  0.000  0.000     2.001     2.212
  94   1 H      0.071  0.929  0.000  0.000     2.072     2.251
  95   1 H      0.076  0.924  0.000  0.000     2.023     2.224
  96   1 H      0.047  0.953  0.000  0.000     2.363     2.404
  97   1 H      0.044  0.956  0.000  0.000     2.399     2.422
  98   1 H      0.037  0.963  0.000  0.000     2.491     2.468
  99   1 H      0.035  0.965  0.000  0.000     2.512     2.479
 100   1 H      0.044  0.956  0.000  0.000     2.395     2.420
 101   1 H      0.037  0.963  0.000  0.000     2.492     2.469
 102   1 H      0.045  0.955  0.000  0.000     2.381     2.413
 103   7 N     -0.196  1.257  3.939  0.000    25.246     7.462
 104   6 C      0.021  1.062  2.917  0.000    20.233     6.405
 105   6 C      0.278  1.039  2.684  0.000    22.300     7.733
 106   8 O     -0.505  1.750  4.755  0.000    23.886     6.553
 107   6 C     -0.070  1.053  3.017  0.000    21.807     6.643
 108   6 C     -0.001  1.059  2.942  0.000    20.605     6.464
 109  16 S     -0.221  1.919  4.252  0.050   150.491    20.647
 110   6 C     -0.076  1.058  3.018  0.000    22.022     6.695
 111   1 H      0.236  0.764  0.000  0.000     0.940     1.519
 112   1 H      0.084  0.916  0.000  0.000     1.940     2.178
 113   1 H      0.077  0.923  0.000  0.000     2.015     2.220
 114   1 H      0.061  0.939  0.000  0.000     2.186     2.312
 115   1 H      0.037  0.963  0.000  0.000     2.491     2.468
 116   1 H      0.051  0.949  0.000  0.000     2.308     2.376
 117   1 H      0.098  0.902  0.000  0.000     1.802     2.099
 118   1 H      0.061  0.939  0.000  0.000     2.186     2.312
 119   1 H      0.062  0.938  0.000  0.000     2.175     2.306
 120   7 N     -0.186  1.246  3.940  0.000    25.028     7.430
 121   6 C      0.034  1.055  2.911  0.000    19.999     6.367
 122   6 C      0.263  1.048  2.689  0.000    22.563     7.778
 123   8 O     -0.515  1.740  4.775  0.000    24.117     6.584
 124   6 C     -0.065  1.050  3.014  0.000    21.728     6.635
 125   6 C      0.021  1.081  2.898  0.000    27.541     8.608
 126   6 C     -0.025  1.078  2.947  0.000    28.639     8.776
 127   6 C     -0.036  1.077  2.959  0.000    28.899     8.816
 128   6 C     -0.039  1.079  2.960  0.000    28.959     8.825
 129   6 C     -0.034  1.080  2.954  0.000    28.846     8.807
 130   6 C     -0.042  1.081  2.961  0.000    29.034     8.836
 131   1 H      0.233  0.767  0.000  0.000     0.954     1.530
 132   1 H      0.072  0.928  0.000  0.000     2.060     2.245
 133   1 H      0.052  0.948  0.000  0.000     2.300     2.372
 134   1 H      0.036  0.964  0.000  0.000     2.505     2.475
 135   1 H      0.008  0.992  0.000  0.000     2.917     2.671
 136   1 H      0.025  0.975  0.000  0.000     2.651     2.546
 137   1 H      0.051  0.949  0.000  0.000     2.303     2.373
 138   1 H      0.052  0.948  0.000  0.000     2.299     2.371
 139   1 H      0.077  0.923  0.000  0.000     2.011     2.218
 140   7 N     -0.199  1.259  3.940  0.000    25.322     7.474
 141   6 C      0.028  1.062  2.911  0.000    20.114     6.386
 142   6 C      0.284  1.039  2.678  0.000    22.196     7.716
 143   8 O     -0.525  1.755  4.770  0.000    24.335     6.614
 144   6 C     -0.020  1.068  2.952  0.000    20.892     6.501
 145   6 C     -0.063  1.048  3.015  0.000    21.710     6.634
 146   6 C     -0.121  1.037  3.083  0.000    22.872     6.820
 147   6 C     -0.110  1.037  3.074  0.000    22.674     6.791
 148   1 H      0.261  0.739  0.000  0.000     0.843     1.438
 149   1 H      0.054  0.946  0.000  0.000     2.274     2.358
 150   1 H      0.042  0.958  0.000  0.000     2.417     2.431
 151   1 H      0.049  0.951  0.000  0.000     2.336     2.390
 152   1 H      0.022  0.978  0.000  0.000     2.698     2.569
 153   1 H      0.062  0.938  0.000  0.000     2.172     2.305
 154   1 H      0.034  0.966  0.000  0.000     2.533     2.489
 155   1 H      0.055  0.945  0.000  0.000     2.256     2.349
 156   1 H      0.048  0.952  0.000  0.000     2.347     2.396
 157   1 H      0.043  0.957  0.000  0.000     2.410     2.428
 158   1 H      0.049  0.951  0.000  0.000     2.337     2.391
 159   7 N     -0.212  1.259  3.952  0.000    25.610     7.516
 160   6 C      0.032  1.058  2.910  0.000    20.037     6.373
 161   6 C      0.283  1.040  2.677  0.000    22.206     7.717
 162   8 O     -0.511  1.753  4.757  0.000    24.019     6.571
 163   6 C     -0.068  1.052  3.016  0.000    21.783     6.641
 164   6 C     -0.005  1.060  2.944  0.000    20.664     6.473
 165  16 S     -0.211  1.905  4.253  0.053   150.060    20.618
 166   6 C     -0.062  1.056  3.006  0.000    21.758     6.654
 167   1 H      0.244  0.756  0.000  0.000     0.905     1.490
 168   1 H      0.061  0.939  0.000  0.000     2.191     2.315
 169   1 H      0.054  0.946  0.000  0.000     2.266     2.354
 170   1 H      0.081  0.919  0.000  0.000     1.969     2.194
 171   1 H      0.050  0.950  0.000  0.000     2.316     2.380
 172   1 H      0.029  0.971  0.000  0.000     2.602     2.522
 173   1 H      0.083  0.917  0.000  0.000     1.944     2.181
 174   1 H      0.052  0.948  0.000  0.000     2.297     2.370
 175   1 H      0.055  0.945  0.000  0.000     2.256     2.349
 176   7 N     -0.185  1.248  3.937  0.000    25.006     7.427
 177   6 C      0.027  1.063  2.910  0.000    20.121     6.387
 178   6 C      0.284  1.040  2.676  0.000    22.192     7.715
 179   8 O     -0.510  1.751  4.760  0.000    24.017     6.571
 180   6 C     -0.019  1.066  2.953  0.000    20.883     6.500
 181   6 C     -0.061  1.051  3.010  0.000    21.665     6.627
 182   6 C     -0.115  1.038  3.076  0.000    22.755     6.802
 183   6 C     -0.112  1.036  3.076  0.000    22.706     6.796
 184   1 H      0.201  0.799  0.000  0.000     1.103     1.645
 185   1 H      0.067  0.933  0.000  0.000     2.119     2.277
 186   1 H      0.048  0.952  0.000  0.000     2.343     2.394
 187   1 H      0.033  0.967  0.000  0.000     2.546     2.495
 188   1 H      0.056  0.944  0.000  0.000     2.252     2.347
 189   1 H      0.066  0.934  0.000  0.000     2.125     2.280
 190   1 H      0.033  0.967  0.000  0.000     2.541     2.493
 191   1 H      0.048  0.952  0.000  0.000     2.349     2.397
 192   1 H      0.050  0.950  0.000  0.000     2.316     2.380
 193   1 H      0.051  0.949  0.000  0.000     2.305     2.374
 194   1 H      0.026  0.974  0.000  0.000     2.640     2.541
 195   7 N     -0.194  1.254  3.940  0.000    25.210     7.457
 196   6 C      0.041  1.054  2.905  0.000    19.887     6.350
 197   6 C      0.211  1.085  2.704  0.000    23.537     7.946
 198   8 O     -0.367  1.750  4.617  0.000    21.040     6.150
 199   6 C     -0.071  1.058  3.013  0.000    21.841     6.652
 200   6 C     -0.019  1.056  2.964  0.000    20.880     6.499
 201   6 C     -0.112  1.040  3.071  0.000    22.688     6.791
 202   6 C     -0.113  1.039  3.074  0.000    22.720     6.797
 203   1 H      0.230  0.770  0.000  0.000     0.963     1.538
 204   1 H      0.078  0.922  0.000  0.000     2.001     2.212
 205   1 H      0.045  0.955  0.000  0.000     2.383     2.414
 206   1 H      0.068  0.932  0.000  0.000     2.103     2.268
 207   1 H      0.054  0.946  0.000  0.000     2.273     2.358
 208   1 H      0.036  0.964  0.000  0.000     2.507     2.476
 209   1 H      0.031  0.969  0.000  0.000     2.574     2.509
 210   1 H      0.046  0.954  0.000  0.000     2.367     2.406
 211   1 H      0.048  0.952  0.000  0.000     2.340     2.392
 212   1 H      0.050  0.950  0.000  0.000     2.323     2.384
 213   1 H      0.042  0.958  0.000  0.000     2.417     2.431
 214   7 N     -0.390  1.307  4.083  0.000    30.104     8.149
 215   6 C      0.019  1.065  2.916  0.000    20.270     6.412
 216   6 C      0.260  1.049  2.691  0.000    22.627     7.789
 217   8 O     -0.488  1.740  4.747  0.000    23.509     6.501
 218   6 C     -0.023  1.066  2.957  0.000    20.948     6.510
 219   6 C     -0.066  1.050  3.016  0.000    21.761     6.641
 220   6 C     -0.114  1.037  3.078  0.000    22.742     6.800
 221   6 C     -0.108  1.035  3.074  0.000    22.631     6.784
 222   1 H      0.167  0.833  0.000  0.000     1.292     1.780
 223   1 H      0.050  0.950  0.000  0.000     2.315     2.379
 224   1 H      0.034  0.966  0.000  0.000     2.537     2.491
 225   1 H      0.046  0.954  0.000  0.000     2.371     2.408
 226   1 H      0.028  0.972  0.000  0.000     2.611     2.527
 227   1 H      0.047  0.953  0.000  0.000     2.358     2.402
 228   1 H      0.044  0.956  0.000  0.000     2.397     2.421
 229   1 H      0.050  0.950  0.000  0.000     2.319     2.381
 230   1 H      0.038  0.962  0.000  0.000     2.473     2.459
 231   1 H      0.030  0.970  0.000  0.000     2.582     2.513
 232   1 H      0.048  0.952  0.000  0.000     2.351     2.398
 233   7 N     -0.157  1.232  3.925  0.000    24.394     7.335
 234   6 C     -0.051  1.054  2.997  0.000    21.575     6.627
 235   6 C      0.273  1.042  2.685  0.000    22.382     7.748
 236   8 O     -0.463  1.742  4.721  0.000    22.984     6.428
 237   1 H      0.226  0.774  0.000  0.000     0.985     1.555
 238   1 H      0.116  0.884  0.000  0.000     1.650     2.009
 239   1 H      0.107  0.893  0.000  0.000     1.724     2.054
 240   7 N     -0.192  1.252  3.940  0.000    25.157     7.449
 241   6 C      0.008  1.066  2.926  0.000    20.437     6.436
 242   6 C      0.280  1.039  2.681  0.000    22.261     7.727
 243   8 O     -0.473  1.740  4.733  0.000    23.192     6.457
 244   6 C      0.111  1.049  2.840  0.000    18.864     6.202
 245   8 O     -0.491  1.736  4.755  0.000    22.691     6.430
 246   6 C     -0.143  1.046  3.097  0.000    23.311     6.885
 247   1 H      0.229  0.771  0.000  0.000     0.968     1.541
 248   1 H      0.097  0.903  0.000  0.000     1.817     2.108
 249   1 H      0.049  0.951  0.000  0.000     2.336     2.390
 250   1 H      0.348  0.652  0.000  0.000     0.592     1.208
 251   1 H      0.073  0.927  0.000  0.000     2.050     2.239
 252   1 H      0.063  0.937  0.000  0.000     2.159     2.298
 253   1 H      0.056  0.944  0.000  0.000     2.242     2.341
 254   7 N     -0.173  1.239  3.934  0.000    24.740     7.387
 255   6 C      0.021  1.059  2.920  0.000    20.222     6.402
 256   6 C      0.273  1.042  2.686  0.000    22.390     7.750
 257   8 O     -0.482  1.734  4.748  0.000    23.393     6.485
 258   6 C     -0.081  1.053  3.028  0.000    22.034     6.682
 259   6 C      0.008  1.079  2.913  0.000    27.835     8.654
 260   6 C     -0.042  1.079  2.963  0.000    29.050     8.839
 261   6 C     -0.046  1.078  2.968  0.000    29.139     8.852
 262   6 C     -0.032  1.081  2.951  0.000    28.793     8.799
 263   6 C     -0.033  1.082  2.951  0.000    28.815     8.803
 264   6 C     -0.035  1.081  2.954  0.000    28.860     8.810
 265   1 H      0.212  0.788  0.000  0.000     1.046     1.602
 266   1 H      0.091  0.909  0.000  0.000     1.869     2.138
 267   1 H      0.064  0.936  0.000  0.000     2.150     2.293
 268   1 H      0.077  0.923  0.000  0.000     2.008     2.216
 269   1 H      0.037  0.963  0.000  0.000     2.492     2.469
 270   1 H      0.042  0.958  0.000  0.000     2.427     2.436
 271   1 H      0.040  0.960  0.000  0.000     2.443     2.444
 272   1 H      0.046  0.954  0.000  0.000     2.374     2.409
 273   1 H      0.041  0.959  0.000  0.000     2.441     2.443
 274   7 N     -0.201  1.268  3.933  0.000    25.360     7.479
 275   6 C      0.026  1.054  2.921  0.000    20.135     6.387
 276   6 C      0.291  1.032  2.677  0.000    22.075     7.694
 277   8 O     -0.516  1.749  4.766  0.000    24.134     6.587
 278   6 C      0.070  1.037  2.893  0.000    19.615     6.343
 279   8 O     -0.460  1.708  4.752  0.000    22.040     6.338
 280   1 H      0.252  0.748  0.000  0.000     0.875     1.465
 281   1 H      0.068  0.932  0.000  0.000     2.109     2.271
 282   1 H      0.020  0.980  0.000  0.000     2.738     2.587
 283   1 H      0.077  0.923  0.000  0.000     2.008     2.216
 284   1 H      0.330  0.670  0.000  0.000     0.636     1.253
 285   7 N     -0.199  1.261  3.938  0.000    25.322     7.474
 286   6 C      0.040  1.057  2.903  0.000    19.904     6.351
 287   6 C      0.281  1.043  2.676  0.000    22.238     7.723
 288   8 O     -0.521  1.739  4.782  0.000    24.261     6.604
 289   6 C     -0.025  1.066  2.959  0.000    20.975     6.514
 290   6 C     -0.059  1.050  3.009  0.000    21.635     6.622
 291   6 C     -0.113  1.038  3.075  0.000    22.711     6.795
 292   6 C     -0.113  1.038  3.075  0.000    22.719     6.797
 293   1 H      0.257  0.743  0.000  0.000     0.855     1.449
 294   1 H      0.039  0.961  0.000  0.000     2.467     2.456
 295   1 H      0.065  0.935  0.000  0.000     2.146     2.291
 296   1 H      0.029  0.971  0.000  0.000     2.607     2.525
 297   1 H      0.036  0.964  0.000  0.000     2.505     2.475
 298   1 H      0.065  0.935  0.000  0.000     2.138     2.286
 299   1 H      0.037  0.963  0.000  0.000     2.484     2.465
 300   1 H      0.033  0.967  0.000  0.000     2.545     2.495
 301   1 H      0.045  0.955  0.000  0.000     2.379     2.412
 302   1 H      0.051  0.949  0.000  0.000     2.309     2.376
 303   1 H      0.046  0.954  0.000  0.000     2.376     2.410
 304   7 N     -0.187  1.253  3.934  0.000    25.064     7.435
 305   6 C      0.034  1.056  2.909  0.000    20.001     6.367
 306   6 C      0.278  1.043  2.679  0.000    22.289     7.732
 307   8 O     -0.509  1.724  4.785  0.000    23.985     6.566
 308   6 C     -0.085  1.055  3.030  0.000    22.118     6.694
 309   6 C      0.011  1.082  2.907  0.000    27.774     8.644
 310   6 C     -0.041  1.081  2.961  0.000    29.027     8.836
 311   6 C     -0.043  1.078  2.965  0.000    29.066     8.841
 312   6 C     -0.033  1.081  2.952  0.000    28.822     8.804
 313   6 C     -0.038  1.080  2.958  0.000    28.936     8.821
 314   6 C     -0.038  1.080  2.958  0.000    28.947     8.823
 315   1 H      0.235  0.765  0.000  0.000     0.942     1.520
 316   1 H      0.062  0.938  0.000  0.000     2.179     2.308
 317   1 H      0.082  0.918  0.000  0.000     1.963     2.191
 318   1 H      0.079  0.921  0.000  0.000     1.988     2.205
 319   1 H      0.041  0.959  0.000  0.000     2.439     2.442
 320   1 H      0.025  0.975  0.000  0.000     2.655     2.548
 321   1 H      0.049  0.951  0.000  0.000     2.333     2.389
 322   1 H      0.041  0.959  0.000  0.000     2.433     2.439
 323   1 H      0.049  0.951  0.000  0.000     2.336     2.390
 324   7 N     -0.191  1.254  3.937  0.000    25.143     7.447
 325   6 C      0.029  1.062  2.909  0.000    20.095     6.382
 326   6 C      0.278  1.045  2.677  0.000    22.301     7.733
 327   8 O     -0.500  1.726  4.774  0.000    23.776     6.538
 328   6 C     -0.071  1.055  3.016  0.000    21.856     6.655
 329   6 C     -0.028  1.057  2.971  0.000    21.041     6.524
 330   6 C     -0.114  1.041  3.073  0.000    22.733     6.798
 331   6 C     -0.128  1.043  3.085  0.000    23.007     6.839
 332   1 H      0.246  0.754  0.000  0.000     0.901     1.487
 333   1 H      0.078  0.922  0.000  0.000     1.995     2.209
 334   1 H      0.025  0.975  0.000  0.000     2.664     2.553
 335   1 H      0.064  0.936  0.000  0.000     2.148     2.292
 336   1 H      0.053  0.947  0.000  0.000     2.284     2.363
 337   1 H      0.036  0.964  0.000  0.000     2.497     2.471
 338   1 H      0.011  0.989  0.000  0.000     2.876     2.652
 339   1 H      0.058  0.942  0.000  0.000     2.219     2.330
 340   1 H      0.053  0.947  0.000  0.000     2.288     2.366
 341   1 H      0.057  0.943  0.000  0.000     2.237     2.339
 342   1 H      0.051  0.949  0.000  0.000     2.307     2.375
 343   7 N     -0.199  1.258  3.941  0.000    25.332     7.475
 344   6 C      0.045  1.048  2.906  0.000    19.815     6.338
 345   6 C      0.263  1.051  2.686  0.000    22.558     7.777
 346   8 O     -0.521  1.740  4.781  0.000    24.256     6.603
 347   6 C     -0.093  1.069  3.023  0.000    22.269     6.719
 348   6 C      0.378  1.022  2.600  0.000    20.590     7.426
 349   8 O     -0.617  1.761  4.857  0.000    26.549     6.908
 350   8 O     -0.647  1.772  4.876  0.000    27.312     7.007
 351   1 H      0.224  0.776  0.000  0.000     0.990     1.559
 352   1 H      0.070  0.930  0.000  0.000     2.081     2.256
 353   1 H      0.024  0.976  0.000  0.000     2.668     2.555
 354   1 H      0.010  0.990  0.000  0.000     2.891     2.659
 355   7 N     -0.188  1.260  3.928  0.000    25.071     7.437
 356   6 C      0.026  1.063  2.911  0.000    20.142     6.391
 357   6 C      0.269  1.044  2.687  0.000    22.459     7.760
 358   8 O     -0.503  1.742  4.761  0.000    23.847     6.547
 359   6 C     -0.130  1.043  3.087  0.000    23.059     6.847
 360   1 H      0.240  0.760  0.000  0.000     0.923     1.505
 361   1 H      0.061  0.939  0.000  0.000     2.185     2.312
 362   1 H      0.079  0.921  0.000  0.000     1.988     2.205
 363   1 H      0.067  0.933  0.000  0.000     2.116     2.275
 364   1 H      0.065  0.935  0.000  0.000     2.140     2.287
 365   7 N     -0.201  1.256  3.944  0.000    25.358     7.479
 366   6 C      0.006  1.067  2.927  0.000    20.499     6.449
 367   6 C      0.263  1.042  2.695  0.000    22.572     7.780
 368   8 O     -0.429  1.713  4.716  0.000    22.268     6.327
 369   6 C      0.063  1.039  2.898  0.000    19.720     6.359
 370   8 O     -0.454  1.698  4.756  0.000    21.924     6.321
 371   1 H      0.248  0.752  0.000  0.000     0.892     1.479
 372   1 H      0.089  0.911  0.000  0.000     1.893     2.151
 373   1 H      0.055  0.945  0.000  0.000     2.257     2.350
 374   1 H      0.054  0.946  0.000  0.000     2.273     2.358
 375   1 H      0.365  0.635  0.000  0.000     0.554     1.169
 376   7 N     -0.178  1.233  3.945  0.000    24.861     7.405
 377   6 C      0.014  1.059  2.927  0.000    20.339     6.421
 378   6 C      0.266  1.042  2.692  0.000    22.522     7.774
 379   8 O     -0.465  1.735  4.730  0.000    23.022     6.433
 380   6 C     -0.074  1.049  3.025  0.000    21.888     6.657
 381   6 C      0.049  1.061  2.890  0.000    26.385     8.373
 382   7 N     -0.267  1.459  3.808  0.000    27.777     7.814
 383   6 C     -0.023  1.065  2.958  0.000    28.532     8.761
 384   6 C      0.073  1.063  2.863  0.000    26.086     8.352
 385   7 N     -0.088  1.237  3.851  0.000    22.952     7.115
 386   1 H      0.177  0.823  0.000  0.000     1.230     1.737
 387   1 H      0.114  0.886  0.000  0.000     1.659     2.014
 388   1 H      0.079  0.921  0.000  0.000     1.992     2.207
 389   1 H      0.040  0.960  0.000  0.000     2.448     2.447
 390   1 H      0.022  0.978  0.000  0.000     2.701     2.570
 391   1 H      0.075  0.925  0.000  0.000     2.032     2.229
 392   1 H      0.202  0.798  0.000  0.000     1.098     1.641
 393   7 N     -0.193  1.243  3.950  0.000    25.187     7.454
 394   6 C      0.024  1.058  2.918  0.000    20.168     6.392
 395   6 C      0.273  1.044  2.684  0.000    22.393     7.749
 396   8 O     -0.496  1.751  4.746  0.000    23.703     6.527
 397   6 C     -0.101  1.057  3.044  0.000    22.430     6.742
 398   6 C      0.296  1.036  2.668  0.000    21.971     7.675
 399   8 O     -0.492  1.749  4.743  0.000    23.601     6.513
 400   7 N     -0.291  1.284  4.007  0.000    27.500     7.788
 401   1 H      0.210  0.790  0.000  0.000     1.058     1.611
 402   1 H      0.088  0.912  0.000  0.000     1.902     2.157
 403   1 H      0.085  0.915  0.000  0.000     1.928     2.171
 404   1 H      0.070  0.930  0.000  0.000     2.089     2.260
 405   1 H      0.234  0.766  0.000  0.000     0.949     1.526
 406   1 H      0.221  0.779  0.000  0.000     1.003     1.569
 407   7 N     -0.188  1.256  3.933  0.000    25.087     7.439
 408   6 C      0.023  1.069  2.908  0.000    20.189     6.398
 409   6 C      0.262  1.050  2.688  0.000    22.587     7.782
 410   8 O     -0.524  1.767  4.757  0.000    24.312     6.611
 411   6 C     -0.018  1.063  2.955  0.000    20.866     6.497
 412   6 C     -0.115  1.039  3.076  0.000    22.763     6.803
 413   6 C     -0.121  1.041  3.079  0.000    22.869     6.818
 414   1 H      0.218  0.782  0.000  0.000     1.020     1.582
 415   1 H      0.063  0.937  0.000  0.000     2.166     2.302
 416   1 H      0.049  0.951  0.000  0.000     2.337     2.391
 417   1 H      0.066  0.934  0.000  0.000     2.133     2.284
 418   1 H      0.041  0.959  0.000  0.000     2.433     2.439
 419   1 H      0.041  0.959  0.000  0.000     2.441     2.443
 420   1 H      0.062  0.938  0.000  0.000     2.180     2.309
 421   1 H      0.037  0.963  0.000  0.000     2.486     2.466
 422   1 H      0.047  0.953  0.000  0.000     2.363     2.404
 423   7 N     -0.086  1.237  3.849  0.000    22.916     7.110
 424   6 C      0.021  1.067  2.912  0.000    20.212     6.399
 425   6 C      0.267  1.044  2.688  0.000    22.486     7.765
 426   8 O     -0.520  1.759  4.761  0.000    24.230     6.600
 427   6 C     -0.083  1.058  3.024  0.000    22.064     6.686
 428   6 C     -0.090  1.059  3.031  0.000    22.201     6.706
 429   6 C     -0.011  1.052  2.959  0.000    20.835     6.510
 430   1 H      0.064  0.936  0.000  0.000     2.154     2.295
 431   1 H      0.077  0.923  0.000  0.000     2.015     2.220
 432   1 H      0.083  0.917  0.000  0.000     1.952     2.185
 433   1 H      0.084  0.916  0.000  0.000     1.935     2.175
 434   1 H      0.111  0.889  0.000  0.000     1.689     2.032
 435   1 H      0.043  0.957  0.000  0.000     2.413     2.429
 436   1 H      0.069  0.931  0.000  0.000     2.097     2.265
 437   7 N     -0.082  1.226  3.856  0.000    22.838     7.098
 438   6 C      0.023  1.061  2.916  0.000    20.168     6.390
 439   6 C      0.212  1.082  2.706  0.000    23.514     7.942
 440   8 O     -0.379  1.754  4.626  0.000    21.270     6.183
 441   6 C     -0.066  1.055  3.011  0.000    21.741     6.634
 442   6 C     -0.080  1.055  3.025  0.000    22.000     6.674
 443   6 C     -0.012  1.053  2.959  0.000    20.821     6.502
 444   1 H      0.096  0.904  0.000  0.000     1.821     2.110
 445   1 H      0.050  0.950  0.000  0.000     2.325     2.384
 446   1 H      0.087  0.913  0.000  0.000     1.912     2.163
 447   1 H      0.085  0.915  0.000  0.000     1.925     2.170
 448   1 H      0.088  0.912  0.000  0.000     1.899     2.155
 449   1 H      0.049  0.951  0.000  0.000     2.329     2.387
 450   1 H      0.093  0.907  0.000  0.000     1.853     2.129
 451   1 H      0.170  0.830  0.000  0.000     1.273     1.768
 452   1 H      0.062  0.938  0.000  0.000     2.171     2.304
 453   1 H      0.186  0.814  0.000  0.000     1.180     1.702
 454   1 H      0.053  0.947  0.000  0.000     2.277     2.360

 Mol. C6AA /au·bohr⁶  :    1963532.032132
 Mol. C8AA /au·bohr⁸  :   44703197.469677
 Mol. α(0) /au        :       2111.321536

 
molecular dipole:
                 x           y           z       tot (Debye)
 q only:       -3.392      19.640       0.551
   full:       -2.803      16.867      -2.142      43.799
molecular quadrupole (traceless):
                xx          xy          yy          xz          yz          zz
 q only:    -3623.868    2912.290    5345.266    -972.511    2400.730   -1721.398
  q+dip:    -2916.692    2528.425    4794.173   -1388.674    1536.930   -1877.480
   full:    -2912.849    2529.873    4791.758   -1392.063    1541.970   -1878.909
speedup  1.00
cpu  time for grad   11.70 s
wall time for grad   11.71 s

SCC energy    :    -691.6794594
rep           :       8.5574063
ES            :       1.6908942
AES           :      -0.0924440
AXC           :       0.2327897
disp          :      -0.6923548
XB            :       0.0000000
fix           :       0.0000000
Gborn         :       0.0000000
Gsasa         :       0.0000000
Ghb           :       0.0000000
Gshift        :       0.0000000
Gsolv         :      -0.3526566     -221.30
Etot ala COSMO:    -691.6794594
grad norm     :       0.3234312
total E       :    -683.0467334
atomizationE  :     129.3078015    81141.87
(atE without considering molecular charge,
 total energy contains solvation terms)
H-L gap (eV)  :          1.7360

------------------------------------------------------------------------
 * finished run on 2019/03/14 at 15:08:33.133     
------------------------------------------------------------------------
 total:
 * wall-time:     0 d,  0 h,  0 min, 13.320 sec
 *  cpu-time:     0 d,  0 h,  0 min, 13.117 sec
 * ratio c/w:     0.985 speedup
 SCF:
 * wall-time:     0 d,  0 h,  0 min, 12.891 sec
 *  cpu-time:     0 d,  0 h,  0 min, 12.887 sec
 * ratio c/w:     1.000 speedup

