      -----------------------------------------------------------      
     |                   =====================                   |     
     |                           x T B                           |     
     |                   =====================                   |     
     |                         S. Grimme                         |     
     |          Mulliken Center for Theoretical Chemistry        |     
     |                    University of Bonn                     |     
     |                Version 6.1 RC1 (SAW190329)                |     
      -----------------------------------------------------------      

   This program is distributed in the hope that it will be useful,
   but WITHOUT ANY WARRANTY; without even the implied warranty of
   MERCHANTABILITY or FITNESS FOR A PARTICULAR PURPOSE.
   
   FOR NON-COMMERCIAL, ACADEMIA USE ONLY.
   
   Cite this work as:
   S. Grimme, C. Bannwarth, P. Shushkov, J. Comput. Theory Chem., 2017,
   13, 1989-2009. DOI: 10.1021/acs.jctc.7b00118
   C. Bannwarth, S. Ehlert and S. Grimme., J. Comput. Theory Chem., 2019,
   just accepted. DOI: 10.1021/acs.jctc.8b01176
   
   for sTDA-xTB:
   S. Grimme and C. Bannwarth, J. Chem. Phys., 2016, 145, 054103.
   DOI: 10.1063/1.4959605
   
   in the mass-spec context:
   V. Asgeirsson, C. Bauer and S. Grimme, Chem. Sci., 2017, 8, 4879.
   DOI: 10.1039/c7sc00601b
   
   for metadynamics refer to:
   S. Grimme, ChemRxiv, Preprint. DOI: 10.26434/chemrxiv.7660532.v1
   
   with help from (in alphabetical order)
   C. Bannwarth, F. Bohle, G. Brandenburg, E. Caldeweyher, M. Checinski,
   S. Dohm, S. Ehlert, S. Ehrlich, F. März, H. Neugebauer, J. Pisarek,
   P. Pracht, P. Shushkov, and S. Spicher.
   
 * started run on 2019/05/31 at 06:33:40.899     

           -------------------------------------------------
          |                Calculation Setup                |
           -------------------------------------------------

          program call               : /home/lum/qr/xtb-190329/bin/xtb xtb_tmp.xyz --chrg 1 --grad --gfn 2 --etemp 500 --acc 0.1 --gbsa h2o --parallel 2
          hostname                   : cu39
          coordinate file            : xtb_tmp.xyz
          omp threads                :                     2
          number of atoms            :                   315
          number of electrons        :                   828
          charge                     :                     1
          spin                       :                   0.0
          first test random number   :      0.41020999190763


molecular fragmentation (1/2 indicates fragments):
111111111111111111111111111111111111111111111111111111111111111111111111
111111111122222222222222222222222222222222222222222222222222222222222222
222222222222222222222222222222222222222222222222222222222222222222222222
222222222222222222222222222222222222222222222222222222222222222222222222
222222222222222222211222222
# atoms in fragment 1/2:    84   231
 fragment masses (1/2) :      553.68     1516.84
CMA distance (Bohr)    :  16.304
constraining FC (au)   :  0.0500

########################################################################
# WARNING! Please study the warnings concerning your input carefully
#  - XTBPATH is not set, using XTBHOME instead
#  - Process number higher than OMP_NUM_THREADS, I hope you know what you are doing.
########################################################################

           ------------------------------------------------- 
          |                 G F N 2 - x T B                 |
          | Geometry, Frequencies, Noncovalent interactions |
          |            JCTC 2018 parametrisation            |
           ------------------------------------------------- 
 
             k(s)              :                1.8500
             k(p)              :                2.2300
             k(d)              :                2.2300
             k(f)              :                2.0000
             kEN (H0ij)        :               -2.0000
             D4 a1             :                0.5200
             D4 a2             :                5.0000
             D4 s6             :                1.0000
             D4 s8             :                2.7000
             D4 s9             :                5.0000
             alphaj            :                2.0000

  Z AO/shell   Hii/eV     exponent
  1     Wed Apr 25 08:07:45 CEST 2018   EN: 2.200 GM2: 0.406  GM3: 0.0800  RAES: 1.40
     1s    -10.707211    1.230000
  6     Wed Apr 25 08:07:45 CEST 2018   EN: 2.550 GM2: 0.538  GM3: 0.1500  RAES: 3.00
     2s    -13.970922    2.096432
     2p    -10.063292    1.800000
  7     Wed Apr 25 08:07:45 CEST 2018   EN: 3.040 GM2: 0.461  GM3:-0.0640  RAES: 1.90
     2s    -16.686243    2.339881
     2p    -12.523956    2.014332
  8     Wed Apr 25 08:07:45 CEST 2018   EN: 3.440 GM2: 0.452  GM3:-0.0517  RAES: 1.80
     2s    -20.229985    2.439742
     2p    -15.503117    2.137023

 Solvent             : h2o
 Using internal parameter file: .param_gbsa2_h2o
 Gsolv ref. state (COSMO-RS): gsolv [1 M gas/solution]
 temperature (mdtemp)       :    298.150000000000     
 dielectric constant        :    80.2000000000000     
 rho                        :    1.00000000000000     
 mass                       :    18.0000000000000     
 surface tension            :    15.5689454083859     
 probe radius               :   0.975313790000000     
 vdW radii scaling          :    1.00000000000000     
 Gshift (Eh)                :   1.857443126794793E-003
 c1                         :    1.55243817000000     
 soset                      :   0.130326360000000     
 HB correction              :  T
 Number of grid points      :          230

            Z     q(EN)     CN     RAES       Cart. coordinates
     1  N   5.0   -0.70    3.00    1.93    43.13675    28.40120   101.60719
     2  C   4.0    0.07    3.99    3.60    42.03515    30.05310   103.48143
     3  C   4.0    0.27    3.02    3.02    43.83505    30.16345   105.73095
     4  O   6.0   -0.41    1.00    1.80    44.92619    28.26639   106.47589
     5  C   4.0   -0.15    3.98    3.59    39.48306    28.99991   104.40673
     6  C   4.0   -0.17    3.98    3.59    37.69069    31.12597   105.16812
     7  C   4.0   -0.16    3.98    3.59    35.36744    30.10445   106.54624
     8  C   4.0   -0.05    3.98    3.59    33.40143    32.18880   106.85216
     9  N   5.0   -0.72    3.98    2.82    31.33905    31.36523   108.57185
    10  H   1.0    0.29    1.00    1.43    43.82271    26.75096   102.28241
    11  H   1.0    0.12    0.99    1.43    41.81411    31.91025   102.60867
    12  H   1.0    0.10    0.99    1.43    38.66050    27.88370   102.88051
    13  H   1.0    0.13    0.99    1.43    39.83669    27.73136   105.99577
    14  H   1.0    0.12    0.99    1.43    38.69471    32.46210   106.37405
    15  H   1.0    0.10    0.99    1.43    37.11600    32.12738   103.46201
    16  H   1.0    0.11    0.99    1.43    34.59304    28.53073   105.46431
    17  H   1.0    0.12    0.99    1.43    35.96570    29.39253   108.38506
    18  H   1.0    0.13    0.99    1.43    34.25874    33.89222   107.63674
    19  H   1.0    0.11    0.99    1.43    32.59379    32.65433   105.01605
    20  H   1.0    0.26    1.00    1.43    30.08395    32.82921   108.83533
    21  H   1.0    0.24    1.00    1.43    30.40977    29.81982   107.83111
    22  H   1.0    0.25    1.00    1.43    32.08224    30.87246   110.30226
    23  N   5.0   -0.50    3.01    1.93    43.91413    32.39115   106.92638
    24  C   4.0    0.08    4.00    3.62    45.42821    32.66522   109.19158
    25  C   4.0    0.26    3.01    3.02    44.23439    34.80500   110.71840
    26  O   6.0   -0.46    1.00    1.80    43.93760    36.94596   109.91529
    27  C   4.0   -0.07    3.98    3.58    48.27733    33.03440   108.63278
    28  C   4.0   -0.16    3.98    3.59    49.64850    33.71996   111.09238
    29  C   4.0   -0.20    3.98    3.59    48.70854    34.98985   106.56160
    30  C   4.0   -0.23    3.98    3.58    52.48548    33.23621   110.97812
    31  H   1.0    0.28    1.00    1.43    43.31420    33.99942   106.06903
    32  H   1.0    0.13    0.99    1.43    45.24371    30.87368   110.22071
    33  H   1.0    0.13    0.99    1.43    48.97383    31.20515   107.95251
    34  H   1.0    0.12    0.99    1.43    49.29724    35.70848   111.51901
    35  H   1.0    0.12    0.99    1.43    48.86683    32.58999   112.63278
    36  H   1.0    0.10    0.99    1.43    50.71054    35.16787   106.14101
    37  H   1.0    0.13    0.99    1.43    47.77533    34.42996   104.81528
    38  H   1.0    0.12    0.99    1.43    47.98452    36.82086   107.14346
    39  H   1.0    0.11    0.99    1.43    53.36987    33.76849   112.75482
    40  H   1.0    0.11    0.99    1.43    52.85442    31.24128   110.64146
    41  H   1.0    0.11    0.99    1.43    53.36456    34.31823   109.46979
    42  N   5.0   -0.49    3.01    1.93    43.42436    34.06370   113.00260
    43  C   4.0    0.08    3.99    3.61    41.90899    35.62042   114.65437
    44  C   4.0    0.26    3.01    3.02    42.79915    35.33775   117.38067
    45  O   6.0   -0.42    1.00    1.80    42.99755    33.23076   118.34643
    46  C   4.0    0.05    3.98    3.58    39.09647    34.77233   114.50131
    47  O   6.0   -0.46    1.99    1.82    38.77247    32.28391   115.38316
    48  C   4.0   -0.19    3.98    3.59    38.16080    34.84214   111.76355
    49  H   1.0    0.25    1.00    1.43    43.63628    32.25282   113.56458
    50  H   1.0    0.13    0.99    1.43    42.09411    37.58304   114.05408
    51  H   1.0    0.12    0.99    1.43    38.00867    36.09744   115.69009
    52  H   1.0    0.30    0.99    1.43    39.81086    32.01334   116.87047
    53  H   1.0    0.12    0.99    1.43    36.13262    35.13644   111.72236
    54  H   1.0    0.12    0.99    1.43    39.08820    36.34070   110.71326
    55  H   1.0    0.13    0.99    1.43    38.61412    33.03849   110.89195
    56  N   5.0   -0.49    3.01    1.93    43.25458    37.49642   118.58661
    57  C   4.0    0.07    3.99    3.60    43.91530    37.60253   121.24529
    58  C   4.0    0.28    3.01    3.02    41.81340    39.07252   122.59987
    59  O   6.0   -0.45    1.00    1.80    41.28569    41.23568   121.98570
    60  C   4.0   -0.20    3.98    3.59    46.44842    38.95103   121.59647
    61  H   1.0    0.29    1.00    1.43    42.90952    39.18881   117.73826
    62  H   1.0    0.14    0.99    1.43    44.04375    35.65305   121.92361
    63  H   1.0    0.11    0.99    1.43    47.01511    38.89977   123.56825
    64  H   1.0    0.12    0.99    1.43    47.88586    38.02070   120.46311
    65  H   1.0    0.12    0.99    1.43    46.29990    40.91166   120.99951
    66  N   5.0   -0.48    3.01    1.93    40.58244    37.83476   124.42931
    67  C   4.0    0.08    3.99    3.60    38.73921    39.04093   126.05086
    68  C   4.0    0.08    3.01    3.02    39.40177    38.36995   128.77141
    69  O   6.0   -0.39    1.00    1.80    39.70602    36.16980   129.42118
    70  C   4.0   -0.11    3.99    3.59    36.01857    38.10340   125.54552
    71  C   4.0    0.12    3.32    3.06    34.25216    39.08758   127.51971
    72  N   5.0   -0.41    2.10    1.90    33.15722    41.42514   127.37062
    73  C   4.0    0.05    3.23    3.04    33.53296    37.95756   129.73536
    74  C   4.0    0.17    3.40    3.08    31.82989    41.69519   129.43869
    75  N   5.0   -0.46    3.13    1.94    31.98719    39.63844   130.93786
    76  H   1.0    0.26    1.00    1.43    41.09924    36.06822   124.93959
    77  H   1.0    0.16    0.99    1.43    38.85788    41.08069   125.76069
    78  H   1.0    0.12    0.99    1.43    35.43274    38.72633   123.67106
    79  H   1.0    0.13    0.99    1.43    36.01545    36.04305   125.60800
    80  H   1.0    0.13    1.00    1.43    33.98410    36.14648   130.51200
    81  H   1.0    0.11    1.00    1.43    30.73987    43.33739   129.92948
    82  H   1.0    0.24    1.00    1.43    31.11106    39.38140   132.61270
    83  N   5.0   -0.69    3.00    1.93    38.54422    48.98248   131.24054
    84  C   4.0    0.07    3.98    3.59    39.89444    49.50461   128.91774
    85  C   4.0    0.28    3.01    3.02    39.25969    47.35085   127.09123
    86  O   6.0   -0.42    1.00    1.80    39.74363    45.15376   127.62643
    87  C   4.0   -0.15    3.98    3.59    42.76079    49.62867   129.42969
    88  C   4.0   -0.17    3.98    3.59    43.32305    51.00159   131.91743
    89  C   4.0   -0.15    3.98    3.58    46.09117    51.76805   132.24683
    90  C   4.0   -0.06    3.98    3.58    46.74805    54.08388   130.65399
    91  N   5.0   -0.73    3.98    2.82    49.24514    55.14291   131.41468
    92  H   1.0    0.28    1.00    1.43    38.56804    47.15743   131.83073
    93  H   1.0    0.14    0.99    1.43    39.19709    51.30296   128.18559
    94  H   1.0    0.13    0.99    1.43    43.47415    47.69812   129.52559
    95  H   1.0    0.10    0.99    1.43    43.62269    50.57815   127.82090
    96  H   1.0    0.11    0.99    1.43    42.11009    52.66173   132.06210
    97  H   1.0    0.11    0.99    1.43    42.79461    49.74460   133.46209
    98  H   1.0    0.11    0.99    1.43    46.35715    52.20550   134.24394
    99  H   1.0    0.11    0.99    1.43    47.28004    50.16156   131.74888
   100  H   1.0    0.11    0.99    1.43    46.81884    53.58421   128.65940
   101  H   1.0    0.11    0.99    1.43    45.29637    55.52674   130.91054
   102  H   1.0    0.25    1.00    1.43    49.71281    56.64434   130.26496
   103  H   1.0    0.25    1.00    1.43    49.16407    55.75136   133.26475
   104  H   1.0    0.24    1.00    1.43    50.62790    53.77527   131.26722
   105  N   5.0   -0.49    3.01    1.93    38.19476    48.08563   124.92629
   106  C   4.0    0.07    3.99    3.60    37.19644    46.33822   123.06064
   107  C   4.0    0.27    3.01    3.02    38.22107    47.21012   120.49063
   108  O   6.0   -0.47    1.00    1.80    37.54205    49.23922   119.60233
   109  C   4.0   -0.12    3.99    3.60    34.30023    46.46518   123.07672
   110  C   4.0   -0.11    3.99    3.60    33.08048    44.15983   121.83275
   111  C   4.0    0.28    3.00    3.02    30.25773    44.62724   121.65606
   112  O   6.0   -0.39    1.00    1.80    29.20476    45.37450   119.73978
   113  N   5.0   -0.65    3.01    1.93    29.02418    44.18599   123.82735
   114  H   1.0    0.29    1.00    1.43    37.66157    49.91691   124.71037
   115  H   1.0    0.14    0.99    1.43    37.86593    44.44469   123.54108
   116  H   1.0    0.14    0.99    1.43    33.66136    46.60080   125.03474
   117  H   1.0    0.14    0.99    1.43    33.72479    48.18414   122.08327
   118  H   1.0    0.13    0.99    1.43    33.84712    43.87865   119.94285
   119  H   1.0    0.13    0.99    1.43    33.42124    42.51368   123.01863
   120  H   1.0    0.28    1.00    1.43    29.97415    43.58408   125.36634
   121  H   1.0    0.29    1.00    1.43    27.16948    44.58574   123.96297
   122  N   5.0   -0.49    3.01    1.93    39.88982    45.67562   119.40284
   123  C   4.0    0.08    3.99    3.61    41.29934    46.25263   117.12394
   124  C   4.0    0.27    3.02    3.02    40.97032    44.01187   115.33092
   125  O   6.0   -0.46    1.00    1.80    41.68644    41.88485   115.92987
   126  C   4.0   -0.08    3.98    3.59    44.14242    46.54214   117.70789
   127  C   4.0   -0.15    3.98    3.58    44.67184    48.61258   119.66483
   128  C   4.0   -0.22    3.98    3.59    45.55033    47.05486   115.24356
   129  C   4.0   -0.23    3.98    3.58    47.15565    48.13089   121.05351
   130  H   1.0    0.30    1.00    1.43    40.41892    44.05443   120.28973
   131  H   1.0    0.14    0.99    1.43    40.54441    47.98299   116.28785
   132  H   1.0    0.13    0.99    1.43    44.77434    44.72903   118.48539
   133  H   1.0    0.11    0.99    1.43    44.72412    50.45260   118.71925
   134  H   1.0    0.14    0.99    1.43    43.13664    48.66596   121.04627
   135  H   1.0    0.10    0.99    1.43    47.53416    47.42328   115.61179
   136  H   1.0    0.12    0.99    1.43    45.41404    45.45180   113.96494
   137  H   1.0    0.11    0.99    1.43    44.75994    48.70825   114.30786
   138  H   1.0    0.11    0.99    1.43    47.61905    49.74296   122.23789
   139  H   1.0    0.11    0.99    1.43    46.98957    46.45186   122.23109
   140  H   1.0    0.11    0.99    1.43    48.69144    47.85591   119.71525
   141  N   5.0   -0.49    3.01    1.93    39.85214    44.47842   113.12506
   142  C   4.0    0.07    4.00    3.62    39.36894    42.43930   111.35873
   143  C   4.0    0.26    3.00    3.02    40.18402    43.24712   108.70243
   144  O   6.0   -0.46    1.00    1.80    39.77633    45.35747   107.85499
   145  C   4.0   -0.13    3.98    3.59    36.58259    41.55942   111.57746
   146  C   4.0   -0.12    3.98    3.59    35.07940    41.46697   109.10302
   147  C   4.0    0.27    3.00    3.02    32.60139    40.13622   109.70582
   148  O   6.0   -0.43    1.00    1.80    32.29596    37.87302   109.39289
   149  N   5.0   -0.65    3.00    1.93    30.82000    41.61774   110.72412
   150  H   1.0    0.29    1.00    1.43    39.32686    46.26178   112.65481
   151  H   1.0    0.13    0.99    1.43    40.60831    40.89296   111.95001
   152  H   1.0    0.11    0.99    1.43    36.57233    39.67532   112.40887
   153  H   1.0    0.13    0.99    1.43    35.63447    42.82427   112.90394
   154  H   1.0    0.12    0.99    1.43    34.72820    43.36729   108.39242
   155  H   1.0    0.12    0.99    1.43    36.11046    40.38696   107.68142
   156  H   1.0    0.25    1.00    1.43    31.09628    43.47870   111.00116
   157  H   1.0    0.29    1.00    1.43    29.16921    40.84781   111.28319
   158  N   5.0   -0.50    3.01    1.93    41.35540    41.40266   107.42979
   159  C   4.0    0.07    3.99    3.61    42.52444    41.70195   104.97425
   160  C   4.0    0.26    3.02    3.02    41.75986    39.42285   103.35766
   161  O   6.0   -0.46    1.00    1.80    42.14607    37.24320   104.03755
   162  C   4.0   -0.08    3.98    3.59    45.43570    41.70152   105.22250
   163  C   4.0   -0.15    3.98    3.58    46.37070    43.86382   106.90497
   164  C   4.0   -0.22    3.98    3.59    46.64234    41.79171   102.60502
   165  C   4.0   -0.24    3.98    3.58    49.09468    43.48237   107.77564
   166  H   1.0    0.28    1.00    1.43    41.86774    39.77952   108.31464
   167  H   1.0    0.12    0.99    1.43    41.84290    43.46137   104.13545
   168  H   1.0    0.13    0.99    1.43    45.93143    39.91463   106.13735
   169  H   1.0    0.10    0.99    1.43    46.19171    45.64682   105.88486
   170  H   1.0    0.13    0.99    1.43    45.16954    43.98583   108.57915
   171  H   1.0    0.10    0.99    1.43    48.68550    41.84972   102.76714
   172  H   1.0    0.13    0.99    1.43    46.15220    40.11493   101.52434
   173  H   1.0    0.11    0.99    1.43    46.00002    43.44064   101.56306
   174  H   1.0    0.10    0.99    1.43    49.62288    44.95130   109.11380
   175  H   1.0    0.11    0.99    1.43    49.28755    41.66267   108.71766
   176  H   1.0    0.10    0.99    1.43    50.40130    43.54134   106.19252
   177  N   5.0   -0.49    3.01    1.93    40.62912    40.00575   101.17343
   178  C   4.0    0.07    4.00    3.61    40.16003    38.10780    99.26422
   179  C   4.0    0.05    3.00    3.02    41.71273    38.81085    96.92750
   180  O   6.0   -0.40    1.00    1.80    41.76035    40.96294    96.08899
   181  C   4.0   -0.08    3.98    3.58    37.33640    37.82500    98.59782
   182  C   4.0   -0.23    3.98    3.59    36.97351    35.34474    97.16914
   183  C   4.0   -0.21    3.98    3.59    35.73310    37.87155   100.99586
   184  H   1.0    0.25    1.00    1.43    40.45170    41.83908   100.64895
   185  H   1.0    0.13    0.99    1.43    40.85068    36.32345   100.05149
   186  H   1.0    0.13    0.99    1.43    36.78553    39.40501    97.38210
   187  H   1.0    0.11    0.99    1.43    34.98666    35.04675    96.76430
   188  H   1.0    0.11    0.99    1.43    38.01261    35.36151    95.39778
   189  H   1.0    0.10    0.99    1.43    37.66930    33.77123    98.29363
   190  H   1.0    0.10    0.99    1.43    33.75689    37.60249   100.51377
   191  H   1.0    0.11    0.99    1.43    36.33519    36.37575   102.26706
   192  H   1.0    0.13    0.99    1.43    35.93763    39.66742   101.97325
   193  N   5.0   -0.70    3.01    1.93    39.13751    49.57654   101.12222
   194  C   4.0    0.07    3.98    3.59    40.40133    49.92289   103.53737
   195  C   4.0    0.28    3.02    3.02    38.67434    51.59291   105.14399
   196  O   6.0   -0.45    1.00    1.80    37.87981    53.60325   104.30451
   197  C   4.0   -0.15    3.98    3.59    42.95784    51.22549   103.01999
   198  C   4.0   -0.16    3.97    3.58    44.63396    51.57627   105.35538
   199  C   4.0   -0.15    3.98    3.58    46.57872    53.71711   105.07383
   200  C   4.0   -0.06    3.97    3.58    49.01738    53.14609   103.62256
   201  N   5.0   -0.72    3.98    2.81    48.66672    52.79429   100.84255
   202  H   1.0    0.28    1.00    1.43    38.39274    51.16800   100.35100
   203  H   1.0    0.13    0.99    1.43    40.65379    48.08077   104.43245
   204  H   1.0    0.09    0.99    1.43    43.89451    50.05707   101.60130
   205  H   1.0    0.13    0.99    1.43    42.50267    53.07019   102.21443
   206  H   1.0    0.13    0.99    1.43    43.42150    52.06849   106.95275
   207  H   1.0    0.10    0.99    1.43    45.56646    49.80806   105.85302
   208  H   1.0    0.13    0.99    1.43    45.61596    55.35550   104.27950
   209  H   1.0    0.11    0.99    1.43    47.16419    54.26697   106.97433
   210  H   1.0    0.12    0.99    1.43    50.28942    54.74558   103.89901
   211  H   1.0    0.11    0.99    1.43    49.91011    51.45863   104.39703
   212  H   1.0    0.24    0.99    1.43    50.39857    52.62680    99.91390
   213  H   1.0    0.23    1.00    1.43    47.64030    51.17995   100.49254
   214  H   1.0    0.25    1.00    1.43    47.70566    54.30795   100.08466
   215  N   5.0   -0.49    3.01    1.93    38.07838    50.72673   107.44026
   216  C   4.0    0.08    4.00    3.62    36.69174    52.31343   109.18253
   217  C   4.0    0.26    3.02    3.02    37.64948    51.92147   111.85201
   218  O   6.0   -0.46    1.00    1.80    38.64039    49.93305   112.53550
   219  C   4.0   -0.13    3.98    3.59    33.80544    51.94123   109.00916
   220  C   4.0   -0.09    3.97    3.58    32.76238    49.47088   110.13392
   221  C   4.0   -0.20    3.98    3.59    31.84463    49.88358   112.84376
   222  C   4.0   -0.23    3.98    3.59    30.57885    48.50341   108.49385
   223  H   1.0    0.29    1.00    1.43    38.74144    49.04246   108.07532
   224  H   1.0    0.15    0.99    1.43    37.07124    54.28112   108.65522
   225  H   1.0    0.12    0.99    1.43    32.93801    53.56016   109.94834
   226  H   1.0    0.12    0.99    1.43    33.34758    52.05351   107.00052
   227  H   1.0    0.13    0.99    1.43    34.28575    48.06976   110.15607
   228  H   1.0    0.12    0.99    1.43    31.21862    48.11981   113.69708
   229  H   1.0    0.14    0.99    1.43    33.33353    50.66771   114.02550
   230  H   1.0    0.11    0.99    1.43    30.26898    51.20492   112.85856
   231  H   1.0    0.11    0.99    1.43    29.42591    47.15589   109.53125
   232  H   1.0    0.10    0.99    1.43    29.36703    50.07409   107.95866
   233  H   1.0    0.11    0.99    1.43    31.28555    47.61963   106.77942
   234  N   5.0   -0.50    3.01    1.93    37.27896    53.89101   113.38071
   235  C   4.0    0.08    4.00    3.62    37.83518    53.71717   116.03773
   236  C   4.0    0.28    3.01    3.02    35.98533    55.27992   117.58534
   237  O   6.0   -0.45    1.00    1.80    35.05692    57.25186   116.79195
   238  C   4.0   -0.12    3.98    3.59    40.55684    54.57084   116.64519
   239  C   4.0   -0.09    3.97    3.58    41.08876    57.30665   115.93372
   240  C   4.0    0.31    2.99    3.02    43.86730    58.00379   116.65379
   241  O   6.0   -0.37    1.00    1.80    44.22708    58.74488   118.86038
   242  O   6.0   -0.36    1.00    1.80    45.50059    57.72287   114.98402
   243  H   1.0    0.29    1.00    1.43    36.46157    55.49291   112.72361
   244  H   1.0    0.16    0.99    1.43    37.66945    51.72683   116.57076
   245  H   1.0    0.13    0.99    1.43    40.88744    54.31387   118.66549
   246  H   1.0    0.13    0.99    1.43    41.86564    53.35315   115.61081
   247  H   1.0    0.13    0.99    1.43    40.85948    57.57764   113.90000
   248  H   1.0    0.14    0.99    1.43    39.81753    58.58200   116.94708
   249  N   5.0   -0.46    3.01    1.93    35.61703    54.34083   119.89890
   250  C   4.0    0.09    3.99    3.60    34.11673    55.55121   121.82413
   251  C   4.0    0.05    3.00    3.02    35.45329    55.29551   124.36462
   252  O   6.0   -0.45    1.00    1.80    36.32654    53.25376   125.04716
   253  C   4.0    0.05    3.98    3.58    31.47473    54.32661   122.06741
   254  O   6.0   -0.45    1.99    1.82    30.44226    54.17423   119.61887
   255  C   4.0   -0.22    3.98    3.59    29.81448    55.88725   123.84004
   256  H   1.0    0.29    1.00    1.43    36.27466    52.57826   120.28649
   257  H   1.0    0.14    0.99    1.43    33.87712    57.52945   121.29957
   258  H   1.0    0.13    0.99    1.43    31.71874    52.40226   122.84357
   259  H   1.0    0.25    0.99    1.43    28.77494    53.44030   119.74133
   260  H   1.0    0.11    0.99    1.43    27.94636    55.04511   123.99868
   261  H   1.0    0.11    0.99    1.43    30.63630    55.97350   125.72107
   262  H   1.0    0.13    0.99    1.43    29.63817    57.80542   123.11851
   263  N   5.0   -0.69    3.00    1.93    32.96380    64.21939   119.51901
   264  C   4.0    0.10    3.98    3.59    32.11639    62.53837   117.53088
   265  C   4.0    0.27    3.01    3.02    33.14697    63.51356   115.00487
   266  O   6.0   -0.40    1.00    1.80    32.85460    65.72370   114.38402
   267  C   4.0    0.04    3.98    3.58    29.19529    62.46909   117.37755
   268  O   6.0   -0.49    1.99    1.82    28.26526    61.93622   119.82480
   269  C   4.0   -0.21    3.98    3.59    28.36061    60.48857   115.45292
   270  H   1.0    0.30    1.00    1.43    33.06911    66.07288   119.06480
   271  H   1.0    0.15    0.99    1.43    32.80207    60.63681   117.95440
   272  H   1.0    0.13    0.99    1.43    28.53687    64.35721   116.78591
   273  H   1.0    0.26    0.99    1.43    26.46548    61.65508   119.69936
   274  H   1.0    0.11    0.99    1.43    26.31122    60.35236   115.40823
   275  H   1.0    0.12    0.99    1.43    29.03718    60.99263   113.58163
   276  H   1.0    0.13    0.99    1.43    29.13358    58.65993   115.98177
   277  N   5.0   -0.49    3.01    1.93    34.25474    61.77461   113.55252
   278  C   4.0    0.07    3.99    3.60    35.28279    62.29398   111.06320
   279  C   4.0    0.26    3.01    3.02    34.79768    60.00419   109.35840
   280  O   6.0   -0.47    1.00    1.80    35.05616    57.85536   110.18266
   281  C   4.0   -0.12    3.98    3.59    38.16962    62.68664   111.22871
   282  C   4.0   -0.10    3.98    3.58    39.44738    62.81976   108.65936
   283  C   4.0    0.32    2.99    3.02    42.36742    63.13640   108.84850
   284  O   6.0   -0.36    1.00    1.80    43.59614    61.88598   107.24928
   285  O   6.0   -0.34    1.00    1.80    43.25197    64.64225   110.40165
   286  H   1.0    0.29    1.00    1.43    34.58006    60.02119   114.26438
   287  H   1.0    0.14    0.99    1.43    34.36265    63.99659   110.33789
   288  H   1.0    0.15    0.99    1.43    38.57326    64.41187   112.29140
   289  H   1.0    0.13    0.99    1.43    38.96552    61.10826   112.30153
   290  H   1.0    0.14    0.99    1.43    39.09162    61.10435   107.57091
   291  H   1.0    0.13    0.99    1.43    38.74910    64.45471   107.60360
   292  N   5.0   -0.49    3.01    1.93    34.19568    60.48731   106.95263
   293  C   4.0    0.07    3.99    3.60    34.11682    58.57746   104.98989
   294  C   4.0    0.06    3.00    3.02    35.27482    59.74667   102.61916
   295  O   6.0   -0.40    1.00    1.80    34.94113    61.97512   102.07498
   296  C   4.0   -0.08    3.98    3.58    31.39432    57.62919   104.47136
   297  C   4.0   -0.20    3.98    3.59    29.59394    59.83186   104.00081
   298  C   4.0   -0.23    3.98    3.59    31.36374    55.77985   102.25519
   299  H   1.0    0.26    1.00    1.43    34.04834    62.28088   106.31256
   300  H   1.0    0.14    0.99    1.43    35.25539    56.96842   105.60789
   301  H   1.0    0.11    0.99    1.43    30.77968    56.63081   106.17919
   302  H   1.0    0.11    0.99    1.43    27.74438    59.11274   103.47400
   303  H   1.0    0.12    0.99    1.43    29.40077    60.98184   105.69300
   304  H   1.0    0.14    0.99    1.43    30.28409    61.01821   102.47064
   305  H   1.0    0.10    0.99    1.43    29.52676    54.86930   102.10800
   306  H   1.0    0.12    0.99    1.43    31.69402    56.75186   100.47342
   307  H   1.0    0.12    0.99    1.43    32.79514    54.32343   102.48778
   308  H   1.0    0.29    1.00    1.43    41.96227    27.99828   100.44494
   309  H   1.0    0.15    1.00    1.43    39.59532    39.73718   130.06148
   310  H   1.0    0.29    1.00    1.43    39.21666    49.89814   132.50621
   311  H   1.0    0.12    1.00    1.43    42.73034    37.49080    96.03701
   312  H   1.0    0.29    1.00    1.43    40.24349    48.96194    99.98571
   313  H   1.0    0.13    1.00    1.43    35.62721    56.79887   125.49631
   314  H   1.0    0.33    1.00    1.43    31.89758    64.11897   120.84024
   315  H   1.0    0.14    1.00    1.43    36.33528    58.69007   101.46587

           ------------------------------------------------- 
          |        Self-Consistent Charge Iterations        |
           ------------------------------------------------- 

          ...................................................
          :                      SETUP                      :
          :.................................................:
          :  # basis functions                 750          :
          :  # atomic orbitals                 750          :
          :  # shells                          460          :
          :  # electrons                       828          :
          :  max. iterations                   250          :
          :  Hamiltonian                  GFN2-xTB          :
          :  restarted?                      false          :
          :  GBSA solvation                   true          :
          :  PC potential                    false          :
          :  electronic temp.          500.0000000     K    :
          :  accuracy                    0.1000000          :
          :  -> integral cutoff          0.3500000E+02      :
          :  -> integral neglect         0.1000000E-08      :
          :  -> SCF convergence          0.1000000E-06 Eh   :
          :  -> wf. convergence          0.1000000E-04 e    :
          :  Broyden damping             0.4000000          :
          ...................................................

 iter      E             dE          RMSdq      gap      omega  full diag
   1   -472.8989993 -0.472899E+03  0.413E+00    2.21       0.0  T
   2   -474.2973775 -0.139838E+01  0.212E+00    1.56       1.0  T
   3   -474.3472470 -0.498694E-01  0.117E+00    1.89       1.0  T
   4   -474.3584501 -0.112032E-01  0.302E-01    0.89       1.0  T
   5   -474.3723806 -0.139304E-01  0.124E-01    1.11       1.0  T
   6   -474.3730731 -0.692552E-03  0.613E-02    1.14       1.0  T
   7   -474.3731457 -0.725269E-04  0.289E-02    1.19       1.0  T
   8   -474.3732563 -0.110611E-03  0.954E-03    1.21       1.0  T
   9   -474.3732618 -0.550536E-05  0.511E-03    1.21       1.1  T
  10   -474.3732632 -0.138218E-05  0.182E-03    1.21       3.1  T
  11   -474.3732633 -0.166883E-06  0.684E-04    1.21       8.2  T
  12   -474.3732633 -0.246492E-07  0.308E-04    1.21      18.3  T
  13   -474.3732634 -0.610999E-08  0.136E-04    1.21      41.5  T
  14   -474.3732634 -0.927912E-09  0.511E-05    1.21     110.2  T
  15   -474.3732634 -0.197474E-09  0.198E-05    1.21     285.3  T

   *** convergence criteria satisfied after 15 iterations ***

         #    Occupation            Energy/Eh            Energy/eV
      -------------------------------------------------------------
         1        2.0000           -0.7485010             -20.3677
       ...           ...                  ...                  ...
       408        2.0000           -0.3764338             -10.2433
       409        2.0000           -0.3677753             -10.0077
       410        2.0000           -0.3668830              -9.9834
       411        2.0000           -0.3625182              -9.8646
       412        2.0000           -0.3600807              -9.7983
       413        2.0000           -0.3592860              -9.7767
       414        2.0000           -0.3556406              -9.6775 (HOMO)
       415        0.0000           -0.3112510              -8.4696 (LUMO)
       416                         -0.2980424              -8.1101
       417                         -0.2964451              -8.0667
       418                         -0.2917941              -7.9401
       419                         -0.2395846              -6.5194
       ...                                ...                  ...
       750                          0.6413557              17.4522
      -------------------------------------------------------------
                  HL-Gap            0.0443895 Eh            1.2079 eV
             Fermi-level           -0.3333185 Eh           -9.0701 eV

 SCC (total)                   0 d,  0 h,  0 min,  4.517 sec
 SCC setup                      ...        0 min,  0.087 sec (  1.919%)
 Dispersion                     ...        0 min,  0.029 sec (  0.652%)
 integral evaluation            ...        0 min,  0.310 sec (  6.859%)
 zeroth order Hamiltonian       ...        0 min,  0.011 sec (  0.249%)
 iterations                     ...        0 min,  3.530 sec ( 78.153%)
 molecular gradient             ...        0 min,  0.536 sec ( 11.875%)
 printout                       ...        0 min,  0.013 sec (  0.290%)

         :::::::::::::::::::::::::::::::::::::::::::::::::::::
         ::                     SUMMARY                     ::
         :::::::::::::::::::::::::::::::::::::::::::::::::::::
         :: total energy             -468.756924676047 Eh   ::
         :: total w/o Gsasa/hb       -468.682602443583 Eh   ::
         :: gradient norm               0.451034626774 Eh/α ::
         :: HOMO-LUMO gap               1.207900841577 eV   ::
         ::.................................................::
         :: SCC energy               -474.388871289108 Eh   ::
         :: -> isotropic ES             1.667021338425 Eh   ::
         :: -> anisotropic ES          -0.081466091275 Eh   ::
         :: -> anisotropic XC           0.156388461249 Eh   ::
         :: -> dispersion              -0.371506155005 Eh   ::
         :: -> Gsolv                   -0.554601596665 Eh   ::
         ::    -> Gborn                -0.480279364201 Eh   ::
         ::    -> Gsasa                -0.017465378294 Eh   ::
         ::    -> Ghb                  -0.058714297296 Eh   ::
         ::    -> Gshift                0.001857443127 Eh   ::
         :: repulsion energy            5.601575545456 Eh   ::
         :: add. restraining            0.000000000000 Eh   ::
         :::::::::::::::::::::::::::::::::::::::::::::::::::::

           -------------------------------------------------
          |                Property Printout                |
           -------------------------------------------------

    * Orbital Energies and Occupations

         #    Occupation            Energy/Eh            Energy/eV
      -------------------------------------------------------------
         1        2.0000           -0.7485010             -20.3677
       ...           ...                  ...                  ...
       402        2.0000           -0.3930562             -10.6956
       403        2.0000           -0.3925461             -10.6817
       404        2.0000           -0.3907563             -10.6330
       405        2.0000           -0.3902568             -10.6194
       406        2.0000           -0.3898517             -10.6084
       407        2.0000           -0.3781472             -10.2899
       408        2.0000           -0.3764338             -10.2433
       409        2.0000           -0.3677753             -10.0077
       410        2.0000           -0.3668830              -9.9834
       411        2.0000           -0.3625182              -9.8646
       412        2.0000           -0.3600807              -9.7983
       413        2.0000           -0.3592860              -9.7767
       414        2.0000           -0.3556406              -9.6775 (HOMO)
       415        0.0000           -0.3112510              -8.4696 (LUMO)
       416                         -0.2980424              -8.1101
       417                         -0.2964451              -8.0667
       418                         -0.2917941              -7.9401
       419                         -0.2395846              -6.5194
       420                         -0.2366902              -6.4407
       421                         -0.2349053              -6.3921
       422                         -0.2317112              -6.3052
       423                         -0.2309649              -6.2849
       424                         -0.2272766              -6.1845
       425                         -0.2271847              -6.1820
       ...                                ...                  ...
       750                          0.6413557              17.4522
      -------------------------------------------------------------
                  HL-Gap            0.0443895 Eh            1.2079 eV
             Fermi-level           -0.3333185 Eh           -9.0701 eV

   #   Z        covCN         q      C6AA      α(0)
   1   7 N      2.639    -0.398    30.320     8.178
   2   6 C      3.788     0.025    20.164     6.396
   3   6 C      2.766     0.278    22.300     7.734
   4   8 O      0.858    -0.503    23.841     6.546
   5   6 C      3.807    -0.075    21.929     6.666
   6   6 C      3.805    -0.077    21.968     6.673
   7   6 C      3.803    -0.092    22.251     6.716
   8   6 C      3.733    -0.054    21.631     6.638
   9   7 N      3.483    -0.144    24.101     7.291
  10   1 H      0.860     0.153     1.379     1.839
  11   1 H      0.924     0.050     2.325     2.384
  12   1 H      0.924     0.052     2.289     2.366
  13   1 H      0.924     0.038     2.475     2.460
  14   1 H      0.924     0.048     2.343     2.394
  15   1 H      0.925     0.059     2.210     2.325
  16   1 H      0.924     0.077     2.011     2.218
  17   1 H      0.924     0.070     2.089     2.260
  18   1 H      0.924     0.122     1.595     1.975
  19   1 H      0.925     0.121     1.606     1.982
  20   1 H      0.859     0.301     0.711     1.321
  21   1 H      0.859     0.298     0.718     1.327
  22   1 H      0.859     0.292     0.738     1.346
  23   7 N      2.693    -0.181    24.923     7.415
  24   6 C      3.805     0.017    20.278     6.411
  25   6 C      2.757     0.274    22.369     7.745
  26   8 O      0.858    -0.465    23.016     6.432
  27   6 C      3.850    -0.018    20.860     6.496
  28   6 C      3.803    -0.060    21.654     6.625
  29   6 C      3.754    -0.112    22.696     6.793
  30   6 C      3.751    -0.110    22.664     6.789
  31   1 H      0.860     0.226     0.982     1.553
  32   1 H      0.924     0.056     2.250     2.346
  33   1 H      0.924     0.044     2.399     2.422
  34   1 H      0.924     0.036     2.496     2.471
  35   1 H      0.924     0.027     2.629     2.535
  36   1 H      0.925     0.046     2.371     2.408
  37   1 H      0.925     0.042     2.424     2.435
  38   1 H      0.925     0.052     2.297     2.370
  39   1 H      0.925     0.041     2.437     2.441
  40   1 H      0.925     0.038     2.479     2.462
  41   1 H      0.925     0.044     2.401     2.423
  42   7 N      2.693    -0.165    24.569     7.362
  43   6 C      3.794    -0.002    20.622     6.467
  44   6 C      2.757     0.265    22.524     7.772
  45   8 O      0.858    -0.500    23.780     6.538
  46   6 C      3.726     0.117    18.761     6.184
  47   8 O      1.656    -0.468    22.224     6.364
  48   6 C      3.753    -0.137    23.204     6.869
  49   1 H      0.860     0.205     1.081     1.628
  50   1 H      0.924     0.078     2.000     2.212
  51   1 H      0.923     0.019     2.749     2.593
  52   1 H      0.804     0.323     0.656     1.273
  53   1 H      0.925     0.085     1.928     2.171
  54   1 H      0.925     0.052     2.291     2.367
  55   1 H      0.925     0.078     2.001     2.212
  56   7 N      2.693    -0.175    24.789     7.395
  57   6 C      3.793     0.019    20.270     6.411
  58   6 C      2.758     0.270    22.442     7.758
  59   8 O      0.859    -0.464    23.009     6.431
  60   6 C      3.756    -0.126    22.972     6.834
  61   1 H      0.860     0.240     0.925     1.507
  62   1 H      0.924     0.075     2.034     2.230
  63   1 H      0.925     0.065     2.137     2.286
  64   1 H      0.925     0.071     2.075     2.252
  65   1 H      0.925     0.064     2.150     2.293
  66   7 N      2.692    -0.163    24.526     7.355
  67   6 C      3.793     0.024    20.178     6.397
  68   6 C      2.772     0.206    23.631     7.962
  69   8 O      0.856    -0.356    20.813     6.117
  70   6 C      3.808    -0.075    21.931     6.666
  71   6 C      3.181     0.049    26.487     8.401
  72   7 N      1.919    -0.292    28.404     7.902
  73   6 C      3.041    -0.027    28.636     8.777
  74   6 C      3.139     0.080    25.989     8.343
  75   7 N      2.807    -0.095    23.096     7.138
  76   1 H      0.860     0.214     1.036     1.595
  77   1 H      0.924     0.101     1.779     2.086
  78   1 H      0.924     0.079     1.993     2.208
  79   1 H      0.924     0.071     2.077     2.254
  80   1 H      0.927     0.046     2.371     2.408
  81   1 H      0.926     0.052     2.300     2.371
  82   1 H      0.860     0.211     1.049     1.605
  83   7 N      2.640    -0.397    30.301     8.175
  84   6 C      3.787     0.021    20.236     6.407
  85   6 C      2.757     0.273    22.388     7.748
  86   8 O      0.858    -0.488    23.517     6.502
  87   6 C      3.803    -0.078    21.987     6.676
  88   6 C      3.803    -0.070    21.843     6.654
  89   6 C      3.801    -0.093    22.266     6.718
  90   6 C      3.731    -0.047    21.511     6.620
  91   7 N      3.483    -0.148    24.199     7.306
  92   1 H      0.860     0.155     1.366     1.831
  93   1 H      0.924     0.042     2.420     2.433
  94   1 H      0.924     0.049     2.327     2.386
  95   1 H      0.925     0.037     2.492     2.469
  96   1 H      0.924     0.051     2.312     2.378
  97   1 H      0.924     0.055     2.257     2.349
  98   1 H      0.924     0.084     1.936     2.176
  99   1 H      0.925     0.080     1.981     2.201
 100   1 H      0.925     0.104     1.748     2.068
 101   1 H      0.924     0.113     1.675     2.024
 102   1 H      0.859     0.297     0.722     1.331
 103   1 H      0.859     0.302     0.708     1.319
 104   1 H      0.859     0.301     0.710     1.320
 105   7 N      2.695    -0.189    25.087     7.439
 106   6 C      3.794     0.015    20.322     6.419
 107   6 C      2.756     0.273    22.377     7.746
 108   8 O      0.858    -0.504    23.864     6.550
 109   6 C      3.810    -0.064    21.721     6.634
 110   6 C      3.809    -0.108    22.558     6.761
 111   6 C      2.748     0.292    22.055     7.690
 112   8 O      0.858    -0.506    23.927     6.558
 113   7 N      2.640    -0.287    27.405     7.775
 114   1 H      0.860     0.215     1.033     1.592
 115   1 H      0.924     0.085     1.924     2.169
 116   1 H      0.924     0.068     2.111     2.272
 117   1 H      0.924     0.048     2.348     2.396
 118   1 H      0.925     0.058     2.228     2.334
 119   1 H      0.925     0.089     1.889     2.149
 120   1 H      0.860     0.224     0.994     1.561
 121   1 H      0.860     0.227     0.980     1.551
 122   7 N      2.692    -0.179    24.883     7.409
 123   6 C      3.796     0.016    20.313     6.418
 124   6 C      2.765     0.270    22.439     7.758
 125   8 O      0.859    -0.482    23.380     6.483
 126   6 C      3.856    -0.021    20.910     6.503
 127   6 C      3.801    -0.055    21.568     6.612
 128   6 C      3.756    -0.110    22.665     6.788
 129   6 C      3.752    -0.113    22.732     6.799
 130   1 H      0.860     0.246     0.898     1.485
 131   1 H      0.924     0.062     2.177     2.308
 132   1 H      0.924     0.060     2.194     2.316
 133   1 H      0.924     0.018     2.771     2.603
 134   1 H      0.924     0.027     2.631     2.537
 135   1 H      0.925     0.057     2.235     2.338
 136   1 H      0.925     0.043     2.410     2.428
 137   1 H      0.925     0.026     2.643     2.542
 138   1 H      0.925     0.043     2.403     2.424
 139   1 H      0.925     0.053     2.282     2.363
 140   1 H      0.925     0.045     2.388     2.417
 141   7 N      2.690    -0.168    24.638     7.372
 142   6 C      3.800     0.010    20.402     6.431
 143   6 C      2.751     0.273    22.379     7.746
 144   8 O      0.858    -0.476    23.261     6.466
 145   6 C      3.808    -0.073    21.890     6.660
 146   6 C      3.805    -0.101    22.427     6.742
 147   6 C      2.750     0.284    22.196     7.714
 148   8 O      0.859    -0.468    23.084     6.442
 149   7 N      2.639    -0.276    27.142     7.737
 150   1 H      0.860     0.220     1.007     1.572
 151   1 H      0.924     0.078     2.002     2.213
 152   1 H      0.925     0.073     2.050     2.239
 153   1 H      0.924     0.058     2.228     2.334
 154   1 H      0.925     0.061     2.192     2.316
 155   1 H      0.924     0.072     2.060     2.245
 156   1 H      0.860     0.201     1.099     1.643
 157   1 H      0.860     0.236     0.941     1.519
 158   7 N      2.694    -0.169    24.664     7.376
 159   6 C      3.795     0.009    20.428     6.436
 160   6 C      2.761     0.269    22.463     7.762
 161   8 O      0.858    -0.464    23.003     6.430
 162   6 C      3.855    -0.026    20.996     6.517
 163   6 C      3.802    -0.058    21.622     6.620
 164   6 C      3.755    -0.121    22.870     6.819
 165   6 C      3.751    -0.113    22.719     6.797
 166   1 H      0.860     0.227     0.977     1.549
 167   1 H      0.924     0.068     2.112     2.273
 168   1 H      0.924     0.062     2.176     2.307
 169   1 H      0.924     0.043     2.415     2.430
 170   1 H      0.924     0.021     2.714     2.576
 171   1 H      0.925     0.065     2.143     2.290
 172   1 H      0.925     0.034     2.530     2.487
 173   1 H      0.925     0.051     2.313     2.378
 174   1 H      0.925     0.038     2.479     2.462
 175   1 H      0.925     0.037     2.484     2.465
 176   1 H      0.925     0.051     2.301     2.372
 177   7 N      2.692    -0.154    24.339     7.327
 178   6 C      3.799     0.015    20.320     6.418
 179   6 C      2.768     0.199    23.763     7.984
 180   8 O      0.856    -0.362    20.933     6.134
 181   6 C      3.851    -0.014    20.798     6.487
 182   6 C      3.757    -0.127    22.983     6.835
 183   6 C      3.756    -0.128    23.011     6.840
 184   1 H      0.860     0.208     1.067     1.618
 185   1 H      0.924     0.094     1.844     2.124
 186   1 H      0.924     0.049     2.336     2.390
 187   1 H      0.925     0.065     2.139     2.287
 188   1 H      0.925     0.035     2.518     2.482
 189   1 H      0.925     0.058     2.218     2.329
 190   1 H      0.925     0.067     2.114     2.274
 191   1 H      0.925     0.062     2.170     2.304
 192   1 H      0.925     0.047     2.360     2.403
 193   7 N      2.641    -0.391    30.113     8.150
 194   6 C      3.784     0.021    20.230     6.407
 195   6 C      2.764     0.274    22.363     7.744
 196   8 O      0.859    -0.513    24.071     6.578
 197   6 C      3.804    -0.083    22.084     6.690
 198   6 C      3.798    -0.069    21.818     6.651
 199   6 C      3.799    -0.080    22.020     6.681
 200   6 C      3.728    -0.048    21.544     6.626
 201   7 N      3.480    -0.141    24.044     7.283
 202   1 H      0.860     0.154     1.373     1.836
 203   1 H      0.924     0.062     2.172     2.305
 204   1 H      0.924     0.062     2.175     2.306
 205   1 H      0.924     0.048     2.348     2.397
 206   1 H      0.924     0.015     2.815     2.624
 207   1 H      0.925     0.066     2.134     2.284
 208   1 H      0.925     0.056     2.250     2.346
 209   1 H      0.924     0.057     2.237     2.339
 210   1 H      0.924     0.111     1.687     2.031
 211   1 H      0.925     0.130     1.538     1.939
 212   1 H      0.858     0.312     0.677     1.289
 213   1 H      0.859     0.293     0.735     1.343
 214   1 H      0.859     0.290     0.745     1.352
 215   7 N      2.689    -0.183    24.966     7.421
 216   6 C      3.803     0.029    20.079     6.379
 217   6 C      2.762     0.274    22.372     7.746
 218   8 O      0.858    -0.490    23.575     6.510
 219   6 C      3.805    -0.073    21.887     6.660
 220   6 C      3.847    -0.012    20.758     6.481
 221   6 C      3.755    -0.109    22.649     6.786
 222   6 C      3.756    -0.125    22.955     6.831
 223   1 H      0.860     0.227     0.977     1.548
 224   1 H      0.924     0.052     2.297     2.370
 225   1 H      0.924     0.047     2.364     2.404
 226   1 H      0.924     0.063     2.159     2.298
 227   1 H      0.924     0.038     2.473     2.459
 228   1 H      0.925     0.051     2.307     2.375
 229   1 H      0.925     0.013     2.839     2.635
 230   1 H      0.925     0.040     2.449     2.447
 231   1 H      0.925     0.057     2.236     2.338
 232   1 H      0.925     0.045     2.386     2.415
 233   1 H      0.925     0.054     2.268     2.355
 234   7 N      2.692    -0.178    24.855     7.404
 235   6 C      3.805     0.023    20.191     6.397
 236   6 C      2.756     0.279    22.282     7.730
 237   8 O      0.858    -0.494    23.659     6.521
 238   6 C      3.806    -0.037    21.225     6.559
 239   6 C      3.797    -0.075    21.932     6.668
 240   6 C      2.684     0.372    20.702     7.446
 241   8 O      0.856    -0.641    27.137     6.984
 242   8 O      0.856    -0.651    27.394     7.017
 243   1 H      0.860     0.207     1.070     1.621
 244   1 H      0.924     0.098     1.807     2.102
 245   1 H      0.924     0.038     2.478     2.462
 246   1 H      0.924     0.037     2.490     2.468
 247   1 H      0.924    -0.009     3.210     2.802
 248   1 H      0.924     0.002     3.019     2.717
 249   7 N      2.694    -0.168    24.637     7.372
 250   6 C      3.792     0.025    20.158     6.394
 251   6 C      2.770     0.192    23.898     8.006
 252   8 O      0.856    -0.338    20.474     6.067
 253   6 C      3.727     0.125    18.633     6.163
 254   8 O      1.656    -0.483    22.537     6.409
 255   6 C      3.752    -0.146    23.378     6.895
 256   1 H      0.860     0.232     0.955     1.531
 257   1 H      0.924     0.082     1.959     2.189
 258   1 H      0.922     0.034     2.525     2.485
 259   1 H      0.805     0.348     0.592     1.208
 260   1 H      0.925     0.077     2.015     2.220
 261   1 H      0.925     0.058     2.228     2.334
 262   1 H      0.925     0.069     2.092     2.262
 263   7 N      2.636    -0.397    30.291     8.174
 264   6 C      3.787     0.024    20.178     6.398
 265   6 C      2.756     0.274    22.376     7.746
 266   8 O      0.858    -0.509    23.978     6.565
 267   6 C      3.726     0.117    18.762     6.185
 268   8 O      1.655    -0.484    22.558     6.412
 269   6 C      3.753    -0.134    23.140     6.860
 270   1 H      0.860     0.152     1.384     1.843
 271   1 H      0.924     0.060     2.194     2.317
 272   1 H      0.923     0.006     2.952     2.687
 273   1 H      0.805     0.345     0.600     1.217
 274   1 H      0.925     0.067     2.123     2.279
 275   1 H      0.925     0.029     2.605     2.524
 276   1 H      0.925     0.065     2.142     2.289
 277   7 N      2.690    -0.187    25.052     7.434
 278   6 C      3.791     0.029    20.103     6.385
 279   6 C      2.756     0.273    22.393     7.749
 280   8 O      0.859    -0.478    23.308     6.473
 281   6 C      3.806    -0.036    21.208     6.556
 282   6 C      3.798    -0.086    22.147     6.701
 283   6 C      2.684     0.372    20.691     7.444
 284   8 O      0.857    -0.648    27.329     7.009
 285   8 O      0.856    -0.643    27.202     6.993
 286   1 H      0.860     0.222     1.000     1.566
 287   1 H      0.924     0.057     2.235     2.338
 288   1 H      0.924     0.033     2.550     2.497
 289   1 H      0.924     0.018     2.767     2.601
 290   1 H      0.924     0.015     2.804     2.619
 291   1 H      0.924     0.020     2.730     2.584
 292   7 N      2.691    -0.162    24.505     7.352
 293   6 C      3.791     0.025    20.167     6.395
 294   6 C      2.769     0.206    23.626     7.961
 295   8 O      0.856    -0.370    21.094     6.158
 296   6 C      3.850    -0.010    20.725     6.475
 297   6 C      3.755    -0.121    22.878     6.820
 298   6 C      3.755    -0.125    22.961     6.833
 299   1 H      0.860     0.204     1.087     1.633
 300   1 H      0.924     0.094     1.841     2.122
 301   1 H      0.924     0.059     2.211     2.325
 302   1 H      0.925     0.068     2.107     2.270
 303   1 H      0.925     0.038     2.481     2.463
 304   1 H      0.925     0.047     2.355     2.400
 305   1 H      0.925     0.071     2.072     2.251
 306   1 H      0.925     0.047     2.357     2.401
 307   1 H      0.925     0.057     2.237     2.339
 308   1 H      0.862     0.186     1.178     1.700
 309   1 H      0.930     0.079     1.986     2.204
 310   1 H      0.862     0.192     1.150     1.680
 311   1 H      0.930     0.077     2.009     2.216
 312   1 H      0.862     0.194     1.135     1.669
 313   1 H      0.930     0.100     1.787     2.090
 314   1 H      0.862     0.203     1.092     1.637
 315   1 H      0.930     0.087     1.906     2.159

 Mol. C6AA /au·bohr⁶  :     855587.686642
 Mol. C8AA /au·bohr⁸  :   18736120.715388
 Mol. α(0) /au        :       1375.874876


Wiberg/Mayer (AO) data.
largest (>0.10) Wiberg bond orders for each atom
          total WBO             WBO to atom ...
     1  N   2.991        C    2 1.019    H   10 0.957    H  308 0.950
     2  C   3.982        N    1 1.019    C    5 0.960    H   11 0.958    C    3 0.947
     3  C   3.940        O    4 1.638    N   23 1.285    C    2 0.947
     4  O   1.950        C    3 1.638    N   23 0.190
     5  C   3.992        C    6 1.008    H   13 0.976    H   12 0.971    C    2 0.960
     6  C   3.993        C    5 1.008    C    7 1.003    H   14 0.973    H   15 0.972
     7  C   3.988        C    8 1.011    C    6 1.003    H   16 0.972    H   17 0.971
     8  C   3.909        C    7 1.011    H   19 0.964    H   18 0.959    N    9 0.955
     9  N   3.666        C    8 0.955    H   22 0.899    H   21 0.897    H   20 0.896
    10  H   0.976        N    1 0.957
    11  H   0.997        C    2 0.958
    12  H   0.997        C    5 0.971
    13  H   0.998        C    5 0.976
    14  H   0.998        C    6 0.973
    15  H   0.997        C    6 0.972
    16  H   0.994        C    7 0.972
    17  H   0.995        C    7 0.971
    18  H   0.985        C    8 0.959
    19  H   0.985        C    8 0.964
    20  H   0.909        N    9 0.896
    21  H   0.911        N    9 0.897
    22  H   0.915        N    9 0.899
    23  N   3.454        C    3 1.285    C   24 0.982    H   31 0.902    O    4 0.190
    24  C   3.969        N   23 0.982    H   32 0.956    C   27 0.951    C   25 0.943
    25  C   3.949        O   26 1.633    N   42 1.292    C   24 0.943
    26  O   1.979        C   25 1.633    N   42 0.199
    27  C   3.989        C   29 1.013    C   28 0.995    H   33 0.965    C   24 0.951
    28  C   3.997        C   30 1.019    C   27 0.995    H   35 0.977    H   34 0.976
    29  C   3.994        C   27 1.013    H   37 0.984    H   36 0.982    H   38 0.975
    30  C   3.995        C   28 1.019    H   40 0.987    H   39 0.986    H   41 0.985
    31  H   0.949        N   23 0.902
    32  H   0.997        C   24 0.956
    33  H   0.997        C   27 0.965
    34  H   0.999        C   28 0.976
    35  H   0.999        C   28 0.977
    36  H   0.997        C   29 0.982
    37  H   0.998        C   29 0.984
    38  H   0.997        C   29 0.975
    39  H   0.998        C   30 0.986
    40  H   0.998        C   30 0.987
    41  H   0.998        C   30 0.985
    42  N   3.477        C   25 1.292    C   43 0.986    H   49 0.923    O   26 0.199
    43  C   3.963        N   42 0.986    H   50 0.950    C   44 0.944    C   46 0.933
    44  C   3.952        O   45 1.594    N   56 1.334    C   43 0.944
    45  O   1.945        C   44 1.594    N   56 0.201
    46  C   3.956        O   47 1.006    C   48 0.997    H   51 0.958    C   43 0.933
    47  O   1.949        C   46 1.006    H   52 0.855
    48  C   3.984        C   46 0.997    H   54 0.980    H   55 0.979    H   53 0.978
    49  H   0.958        N   42 0.923
    50  H   0.994        C   43 0.950
    51  H   0.999        C   46 0.958
    52  H   0.896        O   47 0.855
    53  H   0.992        C   48 0.978
    54  H   0.997        C   48 0.980
    55  H   0.994        C   48 0.979
    56  N   3.492        C   44 1.334    C   57 0.978    H   61 0.879    O   45 0.201
    57  C   3.964        C   60 0.987    N   56 0.978    H   62 0.958    C   58 0.931
    58  C   3.946        O   59 1.627    N   66 1.303    C   57 0.931
    59  O   1.998        C   58 1.627    N   66 0.197
    60  C   3.984        C   57 0.987    H   63 0.982    H   65 0.981    H   64 0.980
    61  H   0.943        N   56 0.879
    62  H   0.994        C   57 0.958
    63  H   0.995        C   60 0.982
    64  H   0.994        C   60 0.980
    65  H   0.996        C   60 0.981
    66  N   3.481        C   58 1.303    C   67 0.977    H   76 0.920    O   59 0.197
    67  C   3.958        N   66 0.977    C   68 0.972    H   77 0.947    C   70 0.940
    68  C   3.897        O   69 1.908    C   67 0.972    H  309 0.953
    69  O   2.047        C   68 1.908
    70  C   3.986        C   71 1.011    H   79 0.970    H   78 0.962    C   67 0.940
    71  C   3.974        C   73 1.552    N   72 1.273    C   70 1.011
    72  N   3.028        C   74 1.534    C   71 1.273    N   75 0.105
    73  C   3.942        C   71 1.552    N   75 1.221    H   80 0.970    C   74 0.115
    74  C   3.957        N   72 1.534    N   75 1.278    H   81 0.962    C   73 0.115
    75  N   3.603        C   74 1.278    C   73 1.221    H   82 0.927    N   72 0.105
    76  H   0.954        N   66 0.920
    77  H   0.990        C   67 0.947
    78  H   0.994        C   70 0.962
    79  H   0.995        C   70 0.970
    80  H   0.998        C   73 0.970
    81  H   0.997        C   74 0.962
    82  H   0.955        N   75 0.927
    83  N   2.988        C   84 1.013    H   92 0.957    H  310 0.939
    84  C   3.983        N   83 1.013    C   87 0.969    H   93 0.960    C   85 0.942
    85  C   3.940        O   86 1.633    N  105 1.298    C   84 0.942
    86  O   1.951        C   85 1.633    N  105 0.194
    87  C   3.993        C   88 1.005    H   94 0.977    H   95 0.977    C   84 0.969
    88  C   3.993        C   87 1.005    C   89 1.002    H   96 0.972    H   97 0.971
    89  C   3.985        C   90 1.009    C   88 1.002    H   99 0.972    H   98 0.969
    90  C   3.915        C   89 1.009    H  100 0.967    H  101 0.964    N   91 0.956
    91  N   3.664        C   90 0.956    H  102 0.899    H  104 0.895    H  103 0.895
    92  H   0.976        N   83 0.957
    93  H   0.998        C   84 0.960
    94  H   0.997        C   87 0.977
    95  H   0.999        C   87 0.977
    96  H   0.997        C   88 0.972
    97  H   0.997        C   88 0.971
    98  H   0.992        C   89 0.969
    99  H   0.994        C   89 0.972
   100  H   0.989        C   90 0.967
   101  H   0.987        C   90 0.964
   102  H   0.911        N   91 0.899
   103  H   0.909        N   91 0.895
   104  H   0.909        N   91 0.895
   105  N   3.466        C   85 1.298    C  106 0.976    H  114 0.898    O   86 0.194
   106  C   3.962        N  105 0.976    C  109 0.974    H  115 0.950    C  107 0.932
   107  C   3.944        O  108 1.592    N  122 1.335    C  106 0.932
   108  O   1.968        C  107 1.592    N  122 0.198
   109  C   3.989        C  110 0.988    C  106 0.974    H  117 0.972    H  116 0.971
   110  C   3.990        C  109 0.988    H  118 0.974    C  111 0.968    H  119 0.955
   111  C   3.944        O  112 1.642    N  113 1.307    C  110 0.968
   112  O   1.939        C  111 1.642    N  113 0.200
   113  N   3.396        C  111 1.307    H  121 0.928    H  120 0.919    O  112 0.200
   114  H   0.954        N  105 0.898
   115  H   0.992        C  106 0.950
   116  H   0.995        C  109 0.971
   117  H   0.997        C  109 0.972
   118  H   0.997        C  110 0.974
   119  H   0.992        C  110 0.955
   120  H   0.950        N  113 0.919
   121  H   0.948        N  113 0.928
   122  N   3.490        C  107 1.335    C  123 0.978    H  130 0.872    O  108 0.198
   123  C   3.963        N  122 0.978    H  131 0.956    C  126 0.956    C  124 0.939
   124  C   3.951        O  125 1.594    N  141 1.333    C  123 0.939
   125  O   1.961        C  124 1.594    N  141 0.198
   126  C   3.989        C  128 1.009    C  127 0.996    H  132 0.961    C  123 0.956
   127  C   3.996        C  129 1.018    C  126 0.996    H  133 0.978    H  134 0.975
   128  C   3.994        C  126 1.009    H  137 0.986    H  136 0.983    H  135 0.981
   129  C   3.994        C  127 1.018    H  138 0.987    H  139 0.987    H  140 0.985
   130  H   0.939        N  122 0.872
   131  H   0.996        C  123 0.956
   132  H   0.996        C  126 0.961
   133  H   1.000        C  127 0.978
   134  H   0.999        C  127 0.975
   135  H   0.996        C  128 0.981
   136  H   0.998        C  128 0.983
   137  H   0.999        C  128 0.986
   138  H   0.998        C  129 0.987
   139  H   0.997        C  129 0.987
   140  H   0.998        C  129 0.985
   141  N   3.494        C  124 1.333    C  142 0.979    H  150 0.900    O  125 0.198
   142  C   3.955        N  141 0.979    C  145 0.957    H  151 0.948    C  143 0.937
   143  C   3.952        O  144 1.627    N  158 1.310    C  142 0.937
   144  O   1.982        C  143 1.627    N  158 0.203
   145  C   3.985        C  146 0.991    H  153 0.974    H  152 0.970    C  142 0.957
   146  C   3.992        C  145 0.991    H  155 0.970    H  154 0.970    C  147 0.963
   147  C   3.949        O  148 1.647    N  149 1.311    C  146 0.963
   148  O   1.952        C  147 1.647    N  149 0.202
   149  N   3.407        C  147 1.311    H  156 0.936    H  157 0.923    O  148 0.202
   150  H   0.951        N  141 0.900
   151  H   0.994        C  142 0.948
   152  H   0.995        C  145 0.970
   153  H   0.996        C  145 0.974
   154  H   0.996        C  146 0.970
   155  H   0.995        C  146 0.970
   156  H   0.959        N  149 0.936
   157  H   0.944        N  149 0.923
   158  N   3.482        C  143 1.310    C  159 0.980    H  166 0.897    O  144 0.203
   159  C   3.961        N  158 0.980    H  167 0.956    C  162 0.951    C  160 0.935
   160  C   3.953        O  161 1.637    N  177 1.300    C  159 0.935
   161  O   1.978        C  160 1.637    N  177 0.199
   162  C   3.986        C  164 1.008    C  163 0.996    H  168 0.953    C  159 0.951
   163  C   3.995        C  165 1.018    C  162 0.996    H  170 0.975    H  169 0.971
   164  C   3.992        C  162 1.008    H  173 0.985    H  172 0.984    H  171 0.979
   165  C   3.994        C  163 1.018    H  174 0.986    H  175 0.986    H  176 0.984
   166  H   0.948        N  158 0.897
   167  H   0.995        C  159 0.956
   168  H   0.996        C  162 0.953
   169  H   0.998        C  163 0.971
   170  H   1.000        C  163 0.975
   171  H   0.995        C  164 0.979
   172  H   0.999        C  164 0.984
   173  H   0.997        C  164 0.985
   174  H   0.998        C  165 0.986
   175  H   0.998        C  165 0.986
   176  H   0.997        C  165 0.984
   177  N   3.483        C  160 1.300    C  178 0.979    H  184 0.923    O  161 0.199
   178  C   3.958        N  177 0.979    C  179 0.974    H  185 0.948    C  181 0.937
   179  C   3.898        O  180 1.904    C  178 0.974    H  311 0.953
   180  O   2.048        C  179 1.904
   181  C   3.984        C  182 1.008    C  183 1.006    H  186 0.967    C  178 0.937
   182  C   3.991        C  181 1.008    H  188 0.986    H  189 0.983    H  187 0.982
   183  C   3.990        C  181 1.006    H  192 0.984    H  191 0.981    H  190 0.980
   184  H   0.957        N  177 0.923
   185  H   0.991        C  178 0.948
   186  H   0.997        C  181 0.967
   187  H   0.995        C  182 0.982
   188  H   0.999        C  182 0.986
   189  H   0.997        C  182 0.983
   190  H   0.995        C  183 0.980
   191  H   0.996        C  183 0.981
   192  H   0.998        C  183 0.984
   193  N   2.989        C  194 1.013    H  202 0.958    H  312 0.948
   194  C   3.982        N  193 1.013    C  197 0.970    H  203 0.956    C  195 0.946
   195  C   3.935        O  196 1.619    N  215 1.306    C  194 0.946
   196  O   1.939        C  195 1.619    N  215 0.194
   197  C   3.994        C  198 1.006    H  205 0.975    C  194 0.970    H  204 0.967
   198  C   3.991        C  197 1.006    C  199 1.002    H  206 0.976    H  207 0.969
   199  C   3.988        C  200 1.013    C  198 1.002    H  208 0.970    H  209 0.966
   200  C   3.920        C  199 1.013    H  210 0.967    H  211 0.961    N  201 0.957
   201  N   3.668        C  200 0.957    H  214 0.901    H  213 0.893    H  212 0.889
   202  H   0.976        N  193 0.958
   203  H   0.996        C  194 0.956
   204  H   0.996        C  197 0.967
   205  H   0.998        C  197 0.975
   206  H   1.000        C  198 0.976
   207  H   0.996        C  198 0.969
   208  H   0.997        C  199 0.970
   209  H   0.996        C  199 0.966
   210  H   0.987        C  200 0.967
   211  H   0.983        C  200 0.961
   212  H   0.902        N  201 0.889
   213  H   0.914        N  201 0.893
   214  H   0.916        N  201 0.901
   215  N   3.471        C  195 1.306    C  216 0.991    H  223 0.896    O  196 0.194
   216  C   3.971        N  215 0.991    C  219 0.956    C  217 0.955    H  224 0.942
   217  C   3.944        O  218 1.593    N  234 1.314    C  216 0.955
   218  O   1.942        C  217 1.593    N  234 0.191
   219  C   3.983        C  220 0.993    H  225 0.972    H  226 0.969    C  216 0.956
   220  C   3.994        C  221 1.011    C  222 1.007    C  219 0.993    H  227 0.968
   221  C   3.995        C  220 1.011    H  230 0.986    H  229 0.984    H  228 0.984
   222  C   3.993        C  220 1.007    H  233 0.986    H  232 0.986    H  231 0.980
   223  H   0.948        N  215 0.896
   224  H   0.997        C  216 0.942
   225  H   0.997        C  219 0.972
   226  H   0.996        C  219 0.969
   227  H   0.998        C  220 0.968
   228  H   0.997        C  221 0.984
   229  H   1.000        C  221 0.984
   230  H   0.998        C  221 0.986
   231  H   0.996        C  222 0.980
   232  H   0.998        C  222 0.986
   233  H   0.997        C  222 0.986
   234  N   3.486        C  217 1.314    C  235 0.991    H  243 0.902    O  218 0.191
   235  C   3.963        N  234 0.991    C  238 0.954    C  236 0.947    H  244 0.933
   236  C   3.949        O  237 1.612    N  249 1.311    C  235 0.947
   237  O   1.969        C  236 1.612    N  249 0.194
   238  C   3.994        C  239 1.005    H  245 0.975    H  246 0.973    C  235 0.954
   239  C   3.988        C  238 1.005    H  248 0.977    H  247 0.975    C  240 0.907
   240  C   3.934        O  242 1.505    O  241 1.500    C  239 0.907
   241  O   1.789        C  240 1.500    O  242 0.218
   242  O   1.794        C  240 1.505    O  241 0.218
   243  H   0.957        N  234 0.902
   244  H   0.990        C  235 0.933
   245  H   0.998        C  238 0.975
   246  H   0.998        C  238 0.973
   247  H   1.000        C  239 0.975
   248  H   1.000        C  239 0.977
   249  N   3.476        C  236 1.311    C  250 0.985    H  256 0.885    O  237 0.194
   250  C   3.966        N  249 0.985    C  251 0.983    H  257 0.954    C  253 0.926
   251  C   3.897        O  252 1.891    C  250 0.983    H  313 0.950
   252  O   2.074        C  251 1.891
   253  C   3.953        C  255 0.999    O  254 0.997    H  258 0.956    C  250 0.926
   254  O   1.933        C  253 0.997    H  259 0.861
   255  C   3.987        C  253 0.999    H  262 0.982    H  261 0.980    H  260 0.980
   256  H   0.946        N  249 0.885
   257  H   0.993        C  250 0.954
   258  H   0.999        C  253 0.956
   259  H   0.879        O  254 0.861
   260  H   0.993        C  255 0.980
   261  H   0.997        C  255 0.980
   262  H   0.995        C  255 0.982
   263  N   2.989        C  264 1.019    H  270 0.958    H  314 0.943
   264  C   3.982        N  263 1.019    H  271 0.951    C  267 0.949    C  265 0.943
   265  C   3.937        O  266 1.624    N  277 1.303    C  264 0.943
   266  O   1.934        C  265 1.624    N  277 0.193
   267  C   3.960        C  269 1.002    O  268 0.991    H  272 0.961    C  264 0.949
   268  O   1.930        C  267 0.991    H  273 0.864
   269  C   3.992        C  267 1.002    H  275 0.985    H  276 0.983    H  274 0.981
   270  H   0.977        N  263 0.958
   271  H   0.996        C  264 0.951
   272  H   1.000        C  267 0.961
   273  H   0.881        O  268 0.864
   274  H   0.996        C  269 0.981
   275  H   0.999        C  269 0.985
   276  H   0.996        C  269 0.983
   277  N   3.467        C  265 1.303    C  278 0.987    H  286 0.896    O  266 0.193
   278  C   3.971        N  277 0.987    H  287 0.959    C  281 0.958    C  279 0.941
   279  C   3.953        O  280 1.614    N  292 1.316    C  278 0.941
   280  O   1.968        C  279 1.614    N  292 0.196
   281  C   3.992        C  282 1.008    H  288 0.974    H  289 0.973    C  278 0.958
   282  C   3.988        C  281 1.008    H  290 0.978    H  291 0.968    C  283 0.910
   283  C   3.934        O  285 1.519    O  284 1.485    C  282 0.910
   284  O   1.773        C  283 1.485    O  285 0.217
   285  O   1.810        C  283 1.519    O  284 0.217
   286  H   0.951        N  277 0.896
   287  H   0.997        C  278 0.959
   288  H   0.998        C  281 0.974
   289  H   1.000        C  281 0.973
   290  H   1.000        C  282 0.978
   291  H   0.999        C  282 0.968
   292  N   3.482        C  279 1.316    C  293 0.971    H  299 0.921    O  280 0.196
   293  C   3.950        C  294 0.989    N  292 0.971    H  300 0.941    C  296 0.925
   294  C   3.897        O  295 1.889    C  293 0.989    H  315 0.952
   295  O   2.044        C  294 1.889
   296  C   3.980        C  297 1.012    C  298 1.007    H  301 0.963    C  293 0.925
   297  C   3.993        C  296 1.012    H  303 0.986    H  304 0.984    H  302 0.980
   298  C   3.990        C  296 1.007    H  306 0.984    H  307 0.983    H  305 0.982
   299  H   0.958        N  292 0.921
   300  H   0.991        C  293 0.941
   301  H   0.996        C  296 0.963
   302  H   0.995        C  297 0.980
   303  H   0.999        C  297 0.986
   304  H   0.998        C  297 0.984
   305  H   0.994        C  298 0.982
   306  H   0.998        C  298 0.984
   307  H   0.997        C  298 0.983
   308  H   0.965        N    1 0.950
   309  H   0.993        C   68 0.953
   310  H   0.963        N   83 0.939
   311  H   0.994        C  179 0.953
   312  H   0.962        N  193 0.948
   313  H   0.990        C  251 0.950
   314  H   0.958        N  263 0.943
   315  H   0.992        C  294 0.952
 
molecular dipole:
                 x           y           z       tot (Debye)
 q only:       37.659      16.309     118.797
   full:       37.806      17.849     120.049     323.114
molecular quadrupole (traceless):
                xx          xy          yy          xz          yz          zz
 q only:    -5213.235    1074.689   -9045.044    6824.747    3449.331   14258.280
  q+dip:    -5438.365    1158.011   -9027.776    6911.591    3770.703   14466.141
   full:    -5428.505    1164.983   -9038.074    6912.687    3775.175   14466.579


           -------------------------------------------------
          | TOTAL ENERGY             -468.756924676047 Eh   |
          | GRADIENT NORM               0.451034626774 Eh/α |
          | HOMO-LUMO GAP               1.207900841577 eV   |
           -------------------------------------------------

------------------------------------------------------------------------
 * finished run on 2019/05/31 at 06:33:45.916     
------------------------------------------------------------------------
 total:
 * wall-time:     0 d,  0 h,  0 min,  5.016 sec
 *  cpu-time:     0 d,  0 h,  0 min,  9.783 sec
 * ratio c/w:     1.950 speedup
 SCF:
 * wall-time:     0 d,  0 h,  0 min,  4.518 sec
 *  cpu-time:     0 d,  0 h,  0 min,  8.968 sec
 * ratio c/w:     1.985 speedup

