      -----------------------------------------------------------      
     |                   =====================                   |     
     |                           x T B                           |     
     |                   =====================                   |     
     |                         S. Grimme                         |     
     |          Mulliken Center for Theoretical Chemistry        |     
     |                    University of Bonn                     |     
     |                Version 6.1 RC1 (SAW190329)                |     
      -----------------------------------------------------------      

   This program is distributed in the hope that it will be useful,
   but WITHOUT ANY WARRANTY; without even the implied warranty of
   MERCHANTABILITY or FITNESS FOR A PARTICULAR PURPOSE.
   
   FOR NON-COMMERCIAL, ACADEMIA USE ONLY.
   
   Cite this work as:
   S. Grimme, C. Bannwarth, P. Shushkov, J. Comput. Theory Chem., 2017,
   13, 1989-2009. DOI: 10.1021/acs.jctc.7b00118
   C. Bannwarth, S. Ehlert and S. Grimme., J. Comput. Theory Chem., 2019,
   just accepted. DOI: 10.1021/acs.jctc.8b01176
   
   for sTDA-xTB:
   S. Grimme and C. Bannwarth, J. Chem. Phys., 2016, 145, 054103.
   DOI: 10.1063/1.4959605
   
   in the mass-spec context:
   V. Asgeirsson, C. Bauer and S. Grimme, Chem. Sci., 2017, 8, 4879.
   DOI: 10.1039/c7sc00601b
   
   for metadynamics refer to:
   S. Grimme, ChemRxiv, Preprint. DOI: 10.26434/chemrxiv.7660532.v1
   
   with help from (in alphabetical order)
   C. Bannwarth, F. Bohle, G. Brandenburg, E. Caldeweyher, M. Checinski,
   S. Dohm, S. Ehlert, S. Ehrlich, F. März, H. Neugebauer, J. Pisarek,
   P. Pracht, P. Shushkov, and S. Spicher.
   
 * started run on 2019/05/31 at 04:12:51.745     

           -------------------------------------------------
          |                Calculation Setup                |
           -------------------------------------------------

          program call               : /home/lum/install/xtb/xtb-190329/bin/xtb xtb_tmp.xyz --chrg 1 --grad --gfn 2 --etemp 500 --acc 0.1 --gbsa h2o --parallel 1
          hostname                   : cu08
          coordinate file            : xtb_tmp.xyz
          omp threads                :                     1
          number of atoms            :                   465
          number of electrons        :                  1200
          charge                     :                     1
          spin                       :                   0.0
          first test random number   :      0.78199431973953


molecular fragmentation (1/2 indicates fragments):
111111111111111111122222222222222222222222222222222222222222222222222222
222222222222222222222222222222222222222222222222222222222222222222222222
222222222222222222222222222222222222222222222222222222222222222222222222
222222222222222222222222222222222222222222222222222222222222222222222222
222222222222222222222222222222222222222222222222222222222222222222222222
222222222222222222222222222222222222222222222222222222222222222222222222
222222222222222222222112222222222
# atoms in fragment 1/2:    21   444
 fragment masses (1/2) :      115.17     2891.64
CMA distance (Bohr)    :  17.837
constraining FC (au)   :  0.0500

########################################################################
# WARNING! Please study the warnings concerning your input carefully
#  - XTBPATH is not set, using XTBHOME instead
########################################################################

           ------------------------------------------------- 
          |                 G F N 2 - x T B                 |
          | Geometry, Frequencies, Noncovalent interactions |
          |            JCTC 2018 parametrisation            |
           ------------------------------------------------- 
 
             k(s)              :                1.8500
             k(p)              :                2.2300
             k(d)              :                2.2300
             k(f)              :                2.0000
             kEN (H0ij)        :               -2.0000
             D4 a1             :                0.5200
             D4 a2             :                5.0000
             D4 s6             :                1.0000
             D4 s8             :                2.7000
             D4 s9             :                5.0000
             alphaj            :                2.0000

  Z AO/shell   Hii/eV     exponent
  1     Wed Apr 25 08:07:45 CEST 2018   EN: 2.200 GM2: 0.406  GM3: 0.0800  RAES: 1.40
     1s    -10.707211    1.230000
  6     Wed Apr 25 08:07:45 CEST 2018   EN: 2.550 GM2: 0.538  GM3: 0.1500  RAES: 3.00
     2s    -13.970922    2.096432
     2p    -10.063292    1.800000
  7     Wed Apr 25 08:07:45 CEST 2018   EN: 3.040 GM2: 0.461  GM3:-0.0640  RAES: 1.90
     2s    -16.686243    2.339881
     2p    -12.523956    2.014332
  8     Wed Apr 25 08:07:45 CEST 2018   EN: 3.440 GM2: 0.452  GM3:-0.0517  RAES: 1.80
     2s    -20.229985    2.439742
     2p    -15.503117    2.137023
 16     Tue Apr 24 11:44:34 CEST 2018   EN: 2.580 GM2: 0.340  GM3:-0.0502  RAES: 3.10
     3s    -20.029654    1.981333
     3p    -11.377694    2.025643
     3d     -0.420282    1.702555

 Solvent             : h2o
 Using internal parameter file: .param_gbsa2_h2o
 Gsolv ref. state (COSMO-RS): gsolv [1 M gas/solution]
 temperature (mdtemp)       :    298.150000000000     
 dielectric constant        :    80.2000000000000     
 rho                        :    1.00000000000000     
 mass                       :    18.0000000000000     
 surface tension            :    15.5689454083859     
 probe radius               :   0.975313790000000     
 vdW radii scaling          :    1.00000000000000     
 Gshift (Eh)                :   1.857443126794793E-003
 c1                         :    1.55243817000000     
 soset                      :   0.130326360000000     
 HB correction              :  T
 Number of grid points      :          230

            Z     q(EN)     CN     RAES       Cart. coordinates
     1  N   5.0   -0.72    3.00    1.93    40.45605    21.57823    32.87213
     2  C   4.0    0.06    3.98    3.58    43.14134    21.36790    32.48595
     3  C   4.0    0.06    3.00    3.02    43.93364    18.95965    31.09257
     4  O   6.0   -0.44    1.00    1.80    46.11514    18.65560    30.38806
     5  C   4.0   -0.13    3.99    3.60    44.60490    21.45782    34.97791
     6  C   4.0   -0.11    3.97    3.58    44.85668    24.05457    36.25101
     7  C   4.0   -0.24    3.98    3.59    46.29496    25.93943    34.60417
     8  C   4.0   -0.22    3.98    3.59    42.31193    25.16266    37.02865
     9  H   1.0    0.26    1.00    1.43    39.75722    21.22455    34.61733
    10  H   1.0    0.11    0.99    1.43    43.72836    22.92606    31.24855
    11  H   1.0    0.11    0.99    1.43    43.70976    20.11743    36.26832
    12  H   1.0    0.11    0.99    1.43    46.49208    20.72557    34.56854
    13  H   1.0    0.11    0.99    1.43    45.96290    23.71309    37.97017
    14  H   1.0    0.09    0.99    1.43    46.77752    27.60608    35.69989
    15  H   1.0    0.09    0.99    1.43    48.01812    25.08915    33.87906
    16  H   1.0    0.09    0.99    1.43    45.13183    26.53801    33.02058
    17  H   1.0    0.10    0.99    1.43    42.59855    26.80990    38.22148
    18  H   1.0    0.10    0.99    1.43    41.24185    25.73694    35.37505
    19  H   1.0    0.10    0.99    1.43    41.19046    23.78957    38.06597
    20  N   5.0   -0.67    3.00    1.93    44.25668    19.12836    22.63369
    21  C   4.0    0.07    3.98    3.59    46.25777    20.58061    21.47985
    22  C   4.0    0.27    3.01    3.02    48.67728    18.99364    21.40203
    23  O   6.0   -0.37    1.00    1.80    48.76998    16.86557    22.29570
    24  C   4.0   -0.14    3.99    3.59    46.45217    23.15687    22.80346
    25  C   4.0   -0.09    3.98    3.58    46.92423    23.05587    25.65965
    26  C   4.0   -0.20    3.98    3.59    49.67616    22.47866    26.28272
    27  C   4.0   -0.23    3.99    3.60    46.18400    25.58365    26.83728
    28  H   1.0    0.28    1.00    1.43    44.32705    18.90887    24.52609
    29  H   1.0    0.13    0.99    1.43    45.66349    20.88101    19.51425
    30  H   1.0    0.10    0.99    1.43    47.93887    24.29756    21.94353
    31  H   1.0    0.12    0.99    1.43    44.64514    24.09958    22.47079
    32  H   1.0    0.13    0.99    1.43    45.74358    21.58632    26.51945
    33  H   1.0    0.11    0.99    1.43    49.87398    22.22066    28.31179
    34  H   1.0    0.15    0.99    1.43    50.29369    20.74081    25.37889
    35  H   1.0    0.13    0.99    1.43    50.86770    24.04379    25.68225
    36  H   1.0    0.10    0.99    1.43    46.50996    25.53153    28.86389
    37  H   1.0    0.14    0.99    1.43    47.33494    27.09674    26.05167
    38  H   1.0    0.10    0.99    1.43    44.19606    25.98747    26.50260
    39  N   5.0   -0.49    3.01    1.93    50.60802    19.99873    20.07446
    40  C   4.0    0.09    4.00    3.62    52.94756    18.63154    19.80414
    41  C   4.0    0.29    3.01    3.02    54.90906    19.55193    21.71927
    42  O   6.0   -0.43    1.00    1.80    54.82598    21.64893    22.68287
    43  C   4.0    0.03    3.98    3.58    54.00113    18.90772    17.09402
    44  O   6.0   -0.51    1.99    1.82    54.74881    21.46475    16.75606
    45  C   4.0   -0.21    3.98    3.59    52.05344    18.07684    15.14559
    46  H   1.0    0.24    1.00    1.43    50.61108    21.84636    19.61499
    47  H   1.0    0.13    0.99    1.43    52.49064    16.64840    20.17960
    48  H   1.0    0.10    0.99    1.43    55.68988    17.70113    16.93506
    49  H   1.0    0.25    0.99    1.43    54.55703    21.88409    14.98900
    50  H   1.0    0.10    0.99    1.43    52.84881    18.17290    13.25256
    51  H   1.0    0.11    0.99    1.43    51.47505    16.14242    15.51194
    52  H   1.0    0.12    0.99    1.43    50.39122    19.28051    15.24661
    53  N   5.0   -0.51    3.01    1.93    56.78118    17.90893    22.17628
    54  C   4.0    0.07    3.99    3.61    58.86423    18.53498    23.85958
    55  C   4.0    0.30    3.01    3.02    60.02724    21.07457    23.07610
    56  O   6.0   -0.43    1.00    1.80    60.75494    22.62636    24.61537
    57  C   4.0   -0.21    3.98    3.59    60.85049    16.45234    23.76893
    58  H   1.0    0.22    1.00    1.43    56.68828    16.12385    21.51035
    59  H   1.0    0.12    0.99    1.43    58.14811    18.77170    25.79084
    60  H   1.0    0.11    0.99    1.43    62.40570    16.92342    25.02128
    61  H   1.0    0.11    0.99    1.43    60.03174    14.66969    24.37850
    62  H   1.0    0.12    0.99    1.43    61.58619    16.24772    21.86175
    63  N   5.0   -0.47    3.01    1.93    60.24560    21.39122    20.57624
    64  C   4.0    0.08    3.99    3.61    61.25226    23.68123    19.45573
    65  C   4.0    0.30    3.01    3.02    59.70673    25.96184    20.33216
    66  O   6.0   -0.43    1.00    1.80    60.64994    27.81802    21.34116
    67  C   4.0   -0.14    3.98    3.59    61.20058    23.41391    16.58253
    68  C   4.0   -0.12    3.97    3.58    62.42448    25.65230    15.25559
    69  C   4.0    0.31    2.99    3.02    65.37771    25.69623    15.48884
    70  O   6.0   -0.39    1.00    1.80    66.39340    24.10835    16.89670
    71  O   6.0   -0.38    1.00    1.80    66.46467    27.35679    14.22062
    72  H   1.0    0.25    1.00    1.43    59.59061    20.05632    19.38454
    73  H   1.0    0.16    0.99    1.43    63.21188    23.96041    20.06786
    74  H   1.0    0.13    0.99    1.43    62.26756    21.71766    16.08392
    75  H   1.0    0.11    0.99    1.43    59.24483    23.19698    15.95820
    76  H   1.0    0.12    0.99    1.43    61.99524    25.62238    13.23790
    77  H   1.0    0.12    0.99    1.43    61.72794    27.43821    16.02041
    78  N   5.0   -0.48    3.01    1.93    57.22737    25.77244    19.87812
    79  C   4.0    0.08    3.99    3.61    55.48294    27.78455    20.52656
    80  C   4.0    0.33    3.01    3.02    55.83265    28.57088    23.29076
    81  O   6.0   -0.44    1.00    1.80    56.10388    30.80228    23.86999
    82  C   4.0   -0.14    3.98    3.59    52.77820    26.93875    20.00004
    83  C   4.0   -0.12    3.97    3.58    50.91634    29.12847    19.93310
    84  C   4.0    0.31    2.99    3.02    50.33852    30.31172    22.58164
    85  O   6.0   -0.43    1.00    1.80    50.94409    29.07209    24.48517
    86  O   6.0   -0.44    1.00    1.80    49.24748    32.40117    22.54672
    87  H   1.0    0.28    1.00    1.43    56.48994    24.17547    19.12775
    88  H   1.0    0.12    0.99    1.43    55.93092    29.45566    19.37093
    89  H   1.0    0.11    0.99    1.43    52.75967    25.96987    18.17558
    90  H   1.0    0.14    0.99    1.43    52.20701    25.61198    21.47586
    91  H   1.0    0.11    0.99    1.43    51.57628    30.64520    18.69993
    92  H   1.0    0.11    0.99    1.43    49.09927    28.48110    19.19003
    93  N   5.0   -0.46    3.01    1.93    56.03999    26.66248    24.91078
    94  C   4.0    0.07    3.99    3.60    56.15008    27.00698    27.63297
    95  C   4.0    0.30    3.01    3.02    58.09677    29.02446    28.29690
    96  O   6.0   -0.47    1.00    1.80    57.69726    30.62052    29.93606
    97  C   4.0   -0.14    3.99    3.60    56.75974    24.40752    28.77285
    98  C   4.0   -0.10    3.97    3.58    57.08808    24.21794    31.65012
    99  C   4.0   -0.22    3.98    3.59    59.66126    25.19791    32.53075
   100  C   4.0   -0.23    3.98    3.59    54.92434    25.50113    33.06852
   101  H   1.0    0.29    1.00    1.43    55.65170    24.89747    24.28532
   102  H   1.0    0.13    0.99    1.43    54.30095    27.69262    28.28727
   103  H   1.0    0.11    0.99    1.43    55.20412    23.17039    28.20288
   104  H   1.0    0.15    0.99    1.43    58.46997    23.71849    27.84629
   105  H   1.0    0.10    0.99    1.43    57.01620    22.18881    32.05982
   106  H   1.0    0.09    0.99    1.43    60.04905    24.51747    34.42807
   107  H   1.0    0.11    0.99    1.43    61.13126    24.48495    31.28675
   108  H   1.0    0.12    0.99    1.43    59.70813    27.24723    32.47434
   109  H   1.0    0.09    0.99    1.43    54.95538    24.96887    35.05082
   110  H   1.0    0.11    0.99    1.43    55.05199    27.54177    32.88039
   111  H   1.0    0.09    0.99    1.43    53.11820    24.91220    32.28155
   112  N   5.0   -0.48    3.01    1.93    60.32527    28.83698    27.12680
   113  C   4.0    0.07    4.00    3.61    62.31998    30.65914    27.59863
   114  C   4.0    0.29    3.01    3.02    61.49643    33.34963    26.91869
   115  O   6.0   -0.45    1.00    1.80    61.76702    35.10555    28.40077
   116  C   4.0   -0.15    3.98    3.59    64.72251    29.92697    26.16556
   117  C   4.0   -0.17    3.98    3.59    66.67533    32.06598    26.21798
   118  C   4.0   -0.16    3.98    3.58    69.36569    31.14630    25.68817
   119  C   4.0   -0.06    3.98    3.58    70.57103    30.06089    28.07292
   120  N   5.0   -0.73    3.98    2.82    73.20912    29.22877    27.55927
   121  H   1.0    0.29    1.00    1.43    60.51876    27.64184    25.64896
   122  H   1.0    0.12    0.99    1.43    62.68106    30.68267    29.64210
   123  H   1.0    0.11    0.99    1.43    65.47279    28.21262    27.02337
   124  H   1.0    0.14    0.99    1.43    64.21715    29.47538    24.21627
   125  H   1.0    0.11    0.99    1.43    66.14533    33.45681    24.79648
   126  H   1.0    0.11    0.99    1.43    66.61654    33.00438    28.05125
   127  H   1.0    0.12    0.99    1.43    69.29893    29.73957    24.18262
   128  H   1.0    0.10    0.99    1.43    70.47827    32.74812    25.02634
   129  H   1.0    0.10    0.99    1.43    70.60942    31.51073    29.53735
   130  H   1.0    0.11    0.99    1.43    69.48492    28.44756    28.74875
   131  H   1.0    0.24    1.00    1.43    74.04369    28.52428    29.17164
   132  H   1.0    0.24    1.00    1.43    73.21321    27.84609    26.18766
   133  H   1.0    0.24    1.00    1.43    74.26661    30.73040    26.90790
   134  N   5.0   -0.48    3.01    1.93    60.61351    33.66428    24.57332
   135  C   4.0    0.07    4.00    3.62    59.62998    36.10969    23.82403
   136  C   4.0    0.30    3.01    3.02    57.81243    37.13701    25.82970
   137  O   6.0   -0.45    1.00    1.80    57.96066    39.31884    26.58552
   138  C   4.0   -0.15    3.98    3.59    58.26475    35.96953    21.28404
   139  C   4.0   -0.15    3.98    3.58    60.03130    35.47702    19.04571
   140  C   4.0   -0.15    3.98    3.58    61.91586    37.60365    18.49146
   141  C   4.0   -0.06    3.98    3.58    60.73097    40.18787    18.01817
   142  N   5.0   -0.73    3.98    2.82    59.10479    40.15905    15.71906
   143  H   1.0    0.28    1.00    1.43    60.12355    32.13843    23.53396
   144  H   1.0    0.11    0.99    1.43    61.20602    37.45378    23.74031
   145  H   1.0    0.13    0.99    1.43    56.89228    34.43070    21.39875
   146  H   1.0    0.11    0.99    1.43    57.20645    37.72182    21.03233
   147  H   1.0    0.12    0.99    1.43    61.09635    33.74774    19.41094
   148  H   1.0    0.11    0.99    1.43    58.86307    35.08750    17.39163
   149  H   1.0    0.10    0.99    1.43    63.20464    37.78728    20.08293
   150  H   1.0    0.11    0.99    1.43    63.04517    37.03821    16.86244
   151  H   1.0    0.11    0.99    1.43    59.58129    40.77108    19.62556
   152  H   1.0    0.10    0.99    1.43    62.23462    41.56452    17.72413
   153  H   1.0    0.24    1.00    1.43    58.46246    41.95000    15.30985
   154  H   1.0    0.24    1.00    1.43    60.11059    39.47770    14.19536
   155  H   1.0    0.24    1.00    1.43    57.56134    39.01262    16.01091
   156  N   5.0   -0.48    3.01    1.93    56.09165    35.48941    26.65262
   157  C   4.0    0.08    4.00    3.62    54.16167    36.23456    28.44024
   158  C   4.0    0.31    3.01    3.02    55.40218    37.48542    30.73620
   159  O   6.0   -0.44    1.00    1.80    54.67637    39.52719    31.56211
   160  C   4.0   -0.12    3.99    3.60    52.60055    33.92851    29.24097
   161  C   4.0   -0.03    3.03    3.02    50.45396    34.72919    30.91413
   162  C   4.0   -0.10    3.03    3.02    48.11804    35.31223    29.86751
   163  C   4.0   -0.09    3.03    3.02    50.77845    34.98647    33.50591
   164  C   4.0   -0.11    3.03    3.02    46.15064    36.13500    31.38011
   165  C   4.0   -0.11    3.03    3.02    48.81957    35.82553    35.01946
   166  C   4.0   -0.11    3.03    3.02    46.49904    36.40445    33.95958
   167  H   1.0    0.30    1.00    1.43    55.95939    33.74687    25.86934
   168  H   1.0    0.12    0.99    1.43    52.90903    37.65468    27.57918
   169  H   1.0    0.14    0.99    1.43    51.86769    33.01462    27.53793
   170  H   1.0    0.14    0.99    1.43    53.83798    32.58701    30.19931
   171  H   1.0    0.12    0.99    1.43    47.84799    35.09050    27.85084
   172  H   1.0    0.11    1.00    1.43    52.58412    34.53122    34.33492
   173  H   1.0    0.10    1.00    1.43    44.34396    36.57615    30.53921
   174  H   1.0    0.10    1.00    1.43    49.09513    36.03505    37.02907
   175  H   1.0    0.10    1.00    1.43    44.96410    37.05722    35.13339
   176  N   5.0   -0.47    3.01    1.93    57.27043    36.15672    31.77726
   177  C   4.0    0.07    4.00    3.61    58.57632    37.04111    34.02174
   178  C   4.0    0.30    3.01    3.02    59.48703    39.76728    33.66746
   179  O   6.0   -0.43    1.00    1.80    59.06931    41.41432    35.23079
   180  C   4.0   -0.15    3.98    3.59    60.85654    35.35852    34.59723
   181  C   4.0   -0.16    3.98    3.58    60.13809    32.77661    35.68452
   182  C   4.0   -0.16    3.98    3.59    58.67161    33.02737    38.17273
   183  C   4.0   -0.07    3.98    3.58    59.20226    30.88292    40.01500
   184  N   5.0   -0.73    3.98    2.82    58.45127    28.39458    38.94826
   185  H   1.0    0.29    1.00    1.43    57.75491    34.43830    31.08239
   186  H   1.0    0.11    0.99    1.43    57.25147    37.08362    35.61314
   187  H   1.0    0.14    0.99    1.43    61.91534    35.10195    32.84873
   188  H   1.0    0.10    0.99    1.43    62.05844    36.34809    35.94647
   189  H   1.0    0.13    0.99    1.43    59.03781    31.73786    34.28570
   190  H   1.0    0.10    0.99    1.43    61.89088    31.74690    36.03208
   191  H   1.0    0.10    0.99    1.43    59.24659    34.76664    39.11183
   192  H   1.0    0.10    0.99    1.43    56.64756    33.14142    37.81181
   193  H   1.0    0.10    0.99    1.43    61.20349    30.79258    40.49887
   194  H   1.0    0.09    0.99    1.43    58.15811    31.16456    41.76716
   195  H   1.0    0.22    0.99    1.43    58.88217    26.96963    40.23784
   196  H   1.0    0.22    1.00    1.43    56.54720    28.34590    38.56764
   197  H   1.0    0.23    1.00    1.43    59.42985    28.02888    37.30986
   198  N   5.0   -0.48    3.01    1.93    60.89830    40.14486    31.60588
   199  C   4.0    0.07    4.00    3.62    61.86165    42.64964    31.04988
   200  C   4.0    0.30    3.02    3.02    59.72882    44.59285    31.06794
   201  O   6.0   -0.42    1.00    1.80    59.80886    46.54432    32.31126
   202  C   4.0   -0.14    3.99    3.60    63.16433    42.71206    28.46846
   203  C   4.0   -0.10    3.98    3.58    65.96267    41.96274    28.57524
   204  C   4.0   -0.23    3.98    3.59    66.87392    41.22340    25.93857
   205  C   4.0   -0.23    3.98    3.59    67.55129    44.14391    29.60050
   206  H   1.0    0.29    1.00    1.43    61.06488    38.77552    30.27868
   207  H   1.0    0.12    0.99    1.43    63.16219    43.20251    32.56680
   208  H   1.0    0.13    0.99    1.43    62.12114    41.44819    27.21715
   209  H   1.0    0.11    0.99    1.43    63.02113    44.62021    27.69969
   210  H   1.0    0.12    0.99    1.43    66.15813    40.33446    29.83238
   211  H   1.0    0.10    0.99    1.43    68.88570    40.81646    25.96468
   212  H   1.0    0.10    0.99    1.43    65.87098    39.55699    25.28005
   213  H   1.0    0.10    0.99    1.43    66.54352    42.76351    24.62038
   214  H   1.0    0.10    0.99    1.43    69.52177    43.59316    29.77603
   215  H   1.0    0.10    0.99    1.43    67.44448    45.75876    28.33250
   216  H   1.0    0.10    0.99    1.43    66.88521    44.74795    31.44811
   217  N   5.0   -0.48    3.01    1.93    57.84216    44.08223    29.46032
   218  C   4.0    0.08    4.00    3.62    55.92098    45.97173    29.02634
   219  C   4.0    0.30    3.01    3.02    54.60227    46.69825    31.47790
   220  O   6.0   -0.48    1.00    1.80    53.97913    48.91620    31.88097
   221  C   4.0   -0.15    3.98    3.59    53.99621    45.09105    27.05470
   222  C   4.0   -0.16    3.98    3.59    52.41028    47.29052    26.05084
   223  C   4.0   -0.15    3.98    3.58    53.90523    48.98581    24.24714
   224  C   4.0   -0.04    3.98    3.58    52.37311    51.29883    23.41703
   225  N   5.0   -0.73    3.98    2.81    53.60237    53.67934    24.28273
   226  H   1.0    0.30    1.00    1.43    57.73156    42.40748    28.53782
   227  H   1.0    0.12    0.99    1.43    56.87128    47.69653    28.37217
   228  H   1.0    0.12    0.99    1.43    55.00250    44.19199    25.49612
   229  H   1.0    0.12    0.99    1.43    52.77790    43.66676    27.91498
   230  H   1.0    0.11    0.99    1.43    50.77504    46.54231    25.04390
   231  H   1.0    0.13    0.99    1.43    51.70265    48.39916    27.63838
   232  H   1.0    0.11    0.99    1.43    55.62412    49.61849    25.18545
   233  H   1.0    0.10    0.99    1.43    54.44629    47.85660    22.61614
   234  H   1.0    0.12    0.99    1.43    52.16680    51.36949    21.37092
   235  H   1.0    0.13    0.99    1.43    50.46813    51.20112    24.19404
   236  H   1.0    0.25    1.00    1.43    52.49397    55.20694    23.83149
   237  H   1.0    0.30    0.99    1.43    53.85668    53.65677    26.25785
   238  H   1.0    0.24    1.00    1.43    55.33640    53.88143    23.42678
   239  N   5.0   -0.47    3.01    1.93    54.14188    44.84591    33.09140
   240  C   4.0    0.07    3.99    3.61    52.77922    45.20918    35.45232
   241  C   4.0    0.30    3.01    3.02    53.52636    47.72375    36.66328
   242  O   6.0   -0.46    1.00    1.80    51.95108    49.31714    37.26335
   243  C   4.0   -0.14    3.98    3.59    53.33015    42.91668    37.13732
   244  C   4.0   -0.11    3.97    3.58    51.93474    42.80174    39.67891
   245  C   4.0   -0.21    3.98    3.59    52.93351    44.70239    41.60664
   246  C   4.0   -0.23    3.98    3.59    49.08348    43.10631    39.35105
   247  H   1.0    0.30    1.00    1.43    54.58797    43.03403    32.63388
   248  H   1.0    0.11    0.99    1.43    50.74742    45.32949    35.05308
   249  H   1.0    0.12    0.99    1.43    52.78648    41.25915    36.03118
   250  H   1.0    0.14    0.99    1.43    55.36518    42.80928    37.45590
   251  H   1.0    0.10    0.99    1.43    52.28559    40.90780    40.43430
   252  H   1.0    0.10    0.99    1.43    52.07589    44.33986    43.43735
   253  H   1.0    0.11    0.99    1.43    54.97285    44.55040    41.78420
   254  H   1.0    0.14    0.99    1.43    52.44496    46.61901    41.06195
   255  H   1.0    0.10    0.99    1.43    48.11562    42.68978    41.11483
   256  H   1.0    0.11    0.99    1.43    48.61283    45.03609    38.82297
   257  H   1.0    0.09    0.99    1.43    48.37059    41.82754    37.90646
   258  N   5.0   -0.48    3.01    1.93    55.99964    48.02005    37.07003
   259  C   4.0    0.07    3.99    3.60    57.06751    50.18702    38.36732
   260  C   4.0    0.29    3.01    3.02    55.97937    52.71134    37.47793
   261  O   6.0   -0.40    1.00    1.80    55.76128    54.49311    38.93331
   262  C   4.0   -0.14    3.99    3.60    59.94552    50.11634    37.99442
   263  C   4.0   -0.10    3.97    3.58    61.35427    52.45666    38.99373
   264  C   4.0   -0.23    3.98    3.59    63.82469    51.64861    40.25116
   265  C   4.0   -0.21    3.98    3.59    61.90188    54.33380    36.86904
   266  H   1.0    0.27    1.00    1.43    57.22701    46.71636    36.40064
   267  H   1.0    0.12    0.99    1.43    56.61139    50.06498    40.38905
   268  H   1.0    0.11    0.99    1.43    60.61947    48.43453    38.97645
   269  H   1.0    0.14    0.99    1.43    60.32501    49.87072    35.98230
   270  H   1.0    0.14    0.99    1.43    60.16276    53.40734    40.38513
   271  H   1.0    0.11    0.99    1.43    64.88028    53.30341    40.85578
   272  H   1.0    0.10    0.99    1.43    63.43996    50.46497    41.88332
   273  H   1.0    0.11    0.99    1.43    64.94147    50.59164    38.89112
   274  H   1.0    0.11    0.99    1.43    62.91774    55.96711    37.59321
   275  H   1.0    0.11    0.99    1.43    63.03881    53.45768    35.39846
   276  H   1.0    0.12    0.99    1.43    60.15584    55.00791    36.02495
   277  N   5.0   -0.49    3.01    1.93    55.52556    52.86427    34.98852
   278  C   4.0    0.09    3.99    3.60    54.69984    55.16333    33.78863
   279  C   4.0    0.30    3.02    3.02    51.85346    55.70066    33.85886
   280  O   6.0   -0.41    1.00    1.80    51.05918    57.70323    32.99618
   281  C   4.0   -0.01    3.98    3.59    55.59823    55.19945    31.02464
   282  O   6.0   -0.53    1.99    1.82    54.31741    53.47751    29.45299
   283  H   1.0    0.31    1.00    1.43    55.35304    51.23845    33.98422
   284  H   1.0    0.13    0.99    1.43    55.59041    56.74475    34.79452
   285  H   1.0    0.13    0.99    1.43    55.22832    57.07833    30.25625
   286  H   1.0    0.11    0.99    1.43    57.63640    54.81628    31.00332
   287  H   1.0    0.32    0.99    1.43    54.23473    51.80579    30.25108
   288  N   5.0   -0.46    3.00    1.93    50.32430    53.89452    34.72606
   289  C   4.0    0.08    4.00    3.63    47.62835    54.40512    34.77691
   290  C   4.0    0.28    3.02    3.02    47.06991    56.44490    36.75152
   291  O   6.0   -0.36    1.00    1.80    48.06655    56.43026    38.84438
   292  C   4.0   -0.09    3.98    3.58    46.08837    51.98204    35.24574
   293  C   4.0   -0.19    3.98    3.59    46.17316    51.10922    37.98865
   294  C   4.0   -0.23    3.98    3.59    43.34442    52.38608    34.44793
   295  H   1.0    0.31    1.00    1.43    50.97269    52.36847    35.68977
   296  H   1.0    0.12    0.99    1.43    47.14161    55.13898    32.90623
   297  H   1.0    0.12    0.99    1.43    46.93689    50.52042    34.04857
   298  H   1.0    0.10    0.99    1.43    45.20048    49.30775    38.16353
   299  H   1.0    0.15    0.99    1.43    48.10673    50.89153    38.63432
   300  H   1.0    0.15    0.99    1.43    45.23015    52.48059    39.19139
   301  H   1.0    0.10    0.99    1.43    42.28515    50.64041    34.67320
   302  H   1.0    0.14    0.99    1.43    42.47874    53.80936    35.65180
   303  H   1.0    0.10    0.99    1.43    43.21199    52.97614    32.48344
   304  N   5.0   -0.32    3.03    1.93    45.41198    58.24722    36.10200
   305  C   4.0    0.06    4.03    3.67    44.50412    59.97642    38.04086
   306  C   4.0    0.08    3.00    3.02    43.24919    58.47078    40.16545
   307  O   6.0   -0.40    1.00    1.80    42.25211    56.42527    39.79079
   308  C   4.0   -0.14    4.01    3.64    42.57294    61.63663    36.66170
   309  C   4.0   -0.14    4.01    3.64    43.56106    61.64820    33.95310
   310  C   4.0   -0.05    4.02    3.65    44.49657    58.93817    33.60569
   311  H   1.0    0.13    0.99    1.43    46.08849    61.07271    38.80416
   312  H   1.0    0.12    0.99    1.43    40.72161    60.73119    36.73688
   313  H   1.0    0.10    0.99    1.43    42.44016    63.51300    37.48511
   314  H   1.0    0.10    0.99    1.43    42.11894    62.14976    32.57947
   315  H   1.0    0.12    0.99    1.43    45.13804    62.96152    33.78394
   316  H   1.0    0.10    0.99    1.43    42.94670    57.69595    33.03128
   317  H   1.0    0.12    0.99    1.43    46.02866    58.82932    32.22974
   318  N   5.0   -0.71    3.00    1.93    55.10617    19.97898    40.50298
   319  C   4.0    0.05    3.98    3.58    52.46168    20.68351    40.21266
   320  C   4.0    0.07    3.00    3.02    51.04982    20.28547    42.70574
   321  O   6.0   -0.43    1.00    1.80    49.70976    21.92758    43.62750
   322  C   4.0   -0.21    3.98    3.59    51.22268    19.19382    38.08799
   323  H   1.0    0.26    1.00    1.43    55.93196    18.83458    39.21841
   324  H   1.0    0.10    0.99    1.43    52.34825    22.71502    39.80549
   325  H   1.0    0.10    0.99    1.43    49.22402    19.64879    37.96320
   326  H   1.0    0.10    0.99    1.43    52.10871    19.64178    36.29167
   327  H   1.0    0.12    0.99    1.43    51.37755    17.16803    38.39850
   328  N   5.0   -0.69    3.00    1.93    52.79528    24.97099    47.85239
   329  C   4.0    0.07    3.98    3.59    51.73840    27.40559    47.17460
   330  C   4.0    0.09    3.00    3.02    49.01068    27.56880    48.09820
   331  O   6.0   -0.41    1.00    1.80    48.27328    29.36507    49.35171
   332  C   4.0   -0.14    3.99    3.60    51.89842    27.78622    44.30971
   333  C   4.0   -0.10    3.98    3.58    50.33463    30.04883    43.37821
   334  C   4.0   -0.22    3.98    3.59    51.28806    32.53917    44.48449
   335  C   4.0   -0.24    3.98    3.59    50.38159    30.14380    40.49308
   336  H   1.0    0.27    1.00    1.43    53.41436    23.83637    46.44027
   337  H   1.0    0.12    0.99    1.43    52.78985    28.86919    48.19522
   338  H   1.0    0.09    0.99    1.43    53.88322    28.01754    43.80418
   339  H   1.0    0.13    0.99    1.43    51.20064    26.06470    43.41080
   340  H   1.0    0.13    0.99    1.43    48.38530    29.72975    43.99473
   341  H   1.0    0.10    0.99    1.43    50.31111    34.11262    43.59955
   342  H   1.0    0.13    0.99    1.43    50.93073    32.60622    46.50365
   343  H   1.0    0.09    0.99    1.43    53.30090    32.75064    44.14892
   344  H   1.0    0.09    0.99    1.43    49.09913    31.59203    39.80536
   345  H   1.0    0.09    0.99    1.43    52.27039    30.58700    39.82820
   346  H   1.0    0.09    0.99    1.43    49.79126    28.34000    39.70667
   347  N   5.0   -0.72    3.00    1.93    38.75652    44.82659    30.21905
   348  C   4.0    0.07    3.99    3.60    41.25548    44.15350    29.31702
   349  C   4.0    0.27    3.01    3.02    41.02259    42.33564    27.08028
   350  O   6.0   -0.46    1.00    1.80    42.29358    42.53987    25.14539
   351  C   4.0   -0.09    3.98    3.58    42.88950    42.97321    31.41065
   352  C   4.0   -0.22    3.98    3.59    45.56295    42.55223    30.40513
   353  C   4.0   -0.23    3.98    3.59    42.99122    44.66331    33.74891
   354  H   1.0    0.25    1.00    1.43    38.27921    44.44633    32.03353
   355  H   1.0    0.10    0.99    1.43    42.18087    45.86745    28.59514
   356  H   1.0    0.11    0.99    1.43    42.04657    41.15422    31.92146
   357  H   1.0    0.11    0.99    1.43    46.70069    41.54437    31.78497
   358  H   1.0    0.12    0.99    1.43    45.53784    41.46005    28.66633
   359  H   1.0    0.10    0.99    1.43    46.45398    44.36035    30.00257
   360  H   1.0    0.09    0.99    1.43    44.30476    43.86184    35.10929
   361  H   1.0    0.10    0.99    1.43    43.65379    46.53894    33.23795
   362  H   1.0    0.10    0.99    1.43    41.15717    44.83056    34.65565
   363  N   5.0   -0.49    3.01    1.93    39.38245    40.45654    27.44155
   364  C   4.0    0.06    3.99    3.61    39.05255    38.51960    25.54344
   365  C   4.0    0.09    3.00    3.02    38.28861    39.67183    23.01457
   366  O   6.0   -0.45    1.00    1.80    39.44437    39.13617    21.06861
   367  C   4.0   -0.15    3.99    3.60    37.05759    36.58889    26.33458
   368  C   4.0   -0.11    3.98    3.58    37.83917    34.89155    28.55131
   369  C   4.0   -0.23    3.99    3.60    35.58005    33.25379    29.28863
   370  C   4.0   -0.23    3.98    3.59    40.08432    33.20552    27.89078
   371  H   1.0    0.24    1.00    1.43    38.34329    40.34253    29.04957
   372  H   1.0    0.13    0.99    1.43    40.88327    37.59853    25.21409
   373  H   1.0    0.11    0.99    1.43    35.34942    37.62525    26.84297
   374  H   1.0    0.11    0.99    1.43    36.63864    35.40240    24.70000
   375  H   1.0    0.11    0.99    1.43    38.33993    36.09442    30.15512
   376  H   1.0    0.10    0.99    1.43    36.06739    32.01096    30.84771
   377  H   1.0    0.10    0.99    1.43    33.98865    34.42417    29.85265
   378  H   1.0    0.11    0.99    1.43    35.00287    32.09134    27.69800
   379  H   1.0    0.10    0.99    1.43    40.55740    32.00033    29.48488
   380  H   1.0    0.11    0.99    1.43    39.63370    31.99942    26.28841
   381  H   1.0    0.10    0.99    1.43    41.75182    34.30987    27.42686
   382  N   5.0   -0.69    3.00    1.93    38.71620    45.18670    20.91281
   383  C   4.0    0.08    3.99    3.59    40.58539    46.97446    20.00397
   384  C   4.0    0.30    3.01    3.02    42.70238    45.70168    18.49572
   385  O   6.0   -0.41    1.00    1.80    43.29646    46.41801    16.38367
   386  C   4.0   -0.10    3.98    3.59    41.76807    48.38243    22.21422
   387  C   4.0    0.32    2.99    3.02    43.97343    50.09215    21.21143
   388  O   6.0   -0.38    1.00    1.80    43.35053    52.11963    20.19928
   389  O   6.0   -0.42    1.00    1.80    46.15722    49.28537    21.54127
   390  H   1.0    0.27    1.00    1.43    38.48519    45.07199    22.81114
   391  H   1.0    0.13    0.99    1.43    39.69200    48.31773    18.69472
   392  H   1.0    0.11    0.99    1.43    40.34500    49.56602    23.11846
   393  H   1.0    0.13    0.99    1.43    42.52679    47.03330    23.57558
   394  N   5.0   -0.48    3.00    1.93    43.84682    43.77159    19.69701
   395  C   4.0    0.07    3.99    3.61    46.17581    42.69906    18.75478
   396  C   4.0    0.26    3.01    3.02    46.04589    39.84054    18.33758
   397  O   6.0   -0.43    1.00    1.80    47.43715    38.77282    16.83018
   398  C   4.0   -0.13    4.00    3.62    48.42072    43.30492    20.51456
   399  C   4.0   -0.13    3.98    3.58    50.92779    42.70041    19.21381
   400  S   6.0   -0.17    2.01    3.10    53.20096    41.03750    21.19358
   401  C   4.0   -0.18    3.98    3.58    51.51988    38.14031    21.79163
   402  H   1.0    0.28    1.00    1.43    43.38325    43.49881    21.53279
   403  H   1.0    0.14    0.99    1.43    46.50288    43.58890    16.91129
   404  H   1.0    0.14    0.99    1.43    48.29227    45.30659    21.00673
   405  H   1.0    0.12    0.99    1.43    48.18251    42.21625    22.25438
   406  H   1.0    0.14    0.99    1.43    50.59925    41.47821    17.58943
   407  H   1.0    0.11    0.99    1.43    51.87250    44.41790    18.60283
   408  H   1.0    0.13    0.99    1.43    52.81292    36.76727    22.59152
   409  H   1.0    0.12    0.99    1.43    49.98987    38.46694    23.12412
   410  H   1.0    0.14    0.99    1.43    50.74862    37.41666    20.03259
   411  N   5.0   -0.48    3.00    1.93    44.43325    38.60048    19.84748
   412  C   4.0    0.03    3.99    3.61    43.99196    35.91686    19.59448
   413  C   4.0    0.29    3.00    3.02    42.73521    35.24874    17.07621
   414  O   6.0   -0.45    1.00    1.80    43.40822    33.42474    15.82161
   415  H   1.0    0.29    1.00    1.43    43.16210    39.61530    20.84897
   416  H   1.0    0.14    0.99    1.43    45.78742    34.89627    19.73083
   417  H   1.0    0.11    0.99    1.43    42.76509    35.30716    21.13374
   418  N   5.0   -0.48    3.01    1.93    40.79124    36.74702    16.46382
   419  C   4.0    0.07    3.99    3.60    39.63243    36.81151    13.97412
   420  C   4.0    0.28    3.01    3.02    38.55544    34.22764    13.19255
   421  O   6.0   -0.42    1.00    1.80    38.66497    33.44967    11.03025
   422  C   4.0   -0.11    3.99    3.60    41.49457    37.73021    11.95737
   423  C   4.0   -0.09    3.98    3.58    42.43569    40.43691    12.35386
   424  C   4.0   -0.21    3.98    3.59    44.62328    40.95375    10.54372
   425  C   4.0   -0.21    3.98    3.59    40.35532    42.39312    11.96215
   426  H   1.0    0.29    1.00    1.43    40.35243    38.16715    17.67053
   427  H   1.0    0.11    0.99    1.43    38.03415    38.12023    14.08496
   428  H   1.0    0.15    0.99    1.43    43.10596    36.44005    11.96567
   429  H   1.0    0.12    0.99    1.43    40.57425    37.57185    10.12053
   430  H   1.0    0.15    0.99    1.43    43.14817    40.62804    14.29101
   431  H   1.0    0.12    0.99    1.43    45.31509    42.87094    10.80793
   432  H   1.0    0.12    0.99    1.43    46.17297    39.64895    10.89350
   433  H   1.0    0.11    0.99    1.43    44.00183    40.73899     8.59696
   434  H   1.0    0.13    0.99    1.43    41.13578    44.28059    12.19897
   435  H   1.0    0.11    0.99    1.43    39.55725    42.23373    10.07586
   436  H   1.0    0.12    0.99    1.43    38.85394    42.20630    13.34939
   437  N   5.0   -0.46    3.01    1.93    37.33526    32.97973    15.04585
   438  C   4.0    0.06    3.99    3.60    36.33046    30.46910    14.67295
   439  C   4.0    0.07    3.00    3.02    33.53156    30.39212    15.38358
   440  O   6.0   -0.39    1.00    1.80    32.75158    31.30405    17.35878
   441  C   4.0   -0.12    3.99    3.60    37.69789    28.53594    16.35560
   442  C   4.0   -0.10    3.99    3.59    40.43691    28.10656    15.53013
   443  C   4.0    0.27    3.00    3.02    41.95480    27.15835    17.78077
   444  O   6.0   -0.42    1.00    1.80    41.48894    25.16496    18.85197
   445  N   5.0   -0.66    3.00    1.93    43.78517    28.74252    18.51877
   446  H   1.0    0.27    1.00    1.43    37.39086    33.64931    16.83006
   447  H   1.0    0.14    0.99    1.43    36.61164    30.02092    12.67533
   448  H   1.0    0.14    0.99    1.43    37.67309    29.24555    18.29420
   449  H   1.0    0.12    0.99    1.43    36.68957    26.74013    16.32450
   450  H   1.0    0.12    0.99    1.43    40.51145    26.69357    14.03363
   451  H   1.0    0.16    0.99    1.43    41.26181    29.85956    14.83862
   452  H   1.0    0.30    1.00    1.43    44.07539    30.40702    17.61003
   453  H   1.0    0.27    1.00    1.43    44.84989    28.34220    20.04601
   454  H   1.0    0.28    1.00    1.43    39.95361    23.16343    32.51538
   455  H   1.0    0.15    1.00    1.43    42.66090    17.60648    30.74592
   456  H   1.0    0.30    1.00    1.43    42.76013    19.87115    22.31563
   457  H   1.0    0.13    1.00    1.43    43.22916    59.15755    41.92585
   458  H   1.0    0.28    1.00    1.43    56.07159    21.37909    40.48844
   459  H   1.0    0.14    1.00    1.43    51.20886    18.64499    43.63018
   460  H   1.0    0.30    1.00    1.43    54.14624    25.19921    48.86005
   461  H   1.0    0.15    1.00    1.43    47.78761    26.19012    47.68055
   462  H   1.0    0.29    1.00    1.43    38.53186    46.50572    30.06865
   463  H   1.0    0.14    1.00    1.43    36.83506    40.87614    22.92554
   464  H   1.0    0.30    1.00    1.43    37.18852    45.59508    20.28673
   465  H   1.0    0.13    1.00    1.43    32.28329    29.58024    14.22007

           ------------------------------------------------- 
          |        Self-Consistent Charge Iterations        |
           ------------------------------------------------- 

          ...................................................
          :                      SETUP                      :
          :.................................................:
          :  # basis functions                1101          :
          :  # atomic orbitals                1100          :
          :  # shells                          676          :
          :  # electrons                      1200          :
          :  max. iterations                   250          :
          :  Hamiltonian                  GFN2-xTB          :
          :  restarted?                      false          :
          :  GBSA solvation                   true          :
          :  PC potential                    false          :
          :  electronic temp.          500.0000000     K    :
          :  accuracy                    0.1000000          :
          :  -> integral cutoff          0.3500000E+02      :
          :  -> integral neglect         0.1000000E-08      :
          :  -> SCF convergence          0.1000000E-06 Eh   :
          :  -> wf. convergence          0.1000000E-04 e    :
          :  Broyden damping             0.4000000          :
          ...................................................

 iter      E             dE          RMSdq      gap      omega  full diag
   1   -681.5982153 -0.681598E+03  0.405E+00    1.89       0.0  T
   2   -683.5846381 -0.198642E+01  0.211E+00    1.52       1.0  T
   3   -683.6575480 -0.729098E-01  0.115E+00    1.91       1.0  T
   4   -683.6756252 -0.180772E-01  0.291E-01    1.04       1.0  T
   5   -683.6914667 -0.158415E-01  0.139E-01    1.20       1.0  T
   6   -683.6926129 -0.114620E-02  0.702E-02    1.19       1.0  T
   7   -683.6927681 -0.155220E-03  0.285E-02    1.21       1.0  T
   8   -683.6928732 -0.105102E-03  0.141E-02    1.20       1.0  T
   9   -683.6928871 -0.139471E-04  0.724E-03    1.19       1.0  T
  10   -683.6928922 -0.508125E-05  0.300E-03    1.19       1.5  T
  11   -683.6928930 -0.737535E-06  0.148E-03    1.19       3.1  T
  12   -683.6928931 -0.151525E-06  0.739E-04    1.19       6.3  T
  13   -683.6928932 -0.530614E-07  0.355E-04    1.19      13.1  T
  14   -683.6928932 -0.998421E-08  0.152E-04    1.19      30.4  T
  15   -683.6928932 -0.315526E-08  0.651E-05    1.19      71.3  T
  16   -683.6928932 -0.354134E-09  0.329E-05    1.19     141.1  T

   *** convergence criteria satisfied after 16 iterations ***

         #    Occupation            Energy/Eh            Energy/eV
      -------------------------------------------------------------
         1        2.0000           -0.7507032             -20.4277
       ...           ...                  ...                  ...
       594        2.0000           -0.3696820             -10.0596
       595        2.0000           -0.3692996             -10.0492
       596        2.0000           -0.3675137             -10.0006
       597        2.0000           -0.3668120              -9.9815
       598        2.0000           -0.3603888              -9.8067
       599        2.0000           -0.3593792              -9.7792
       600        2.0000           -0.3568334              -9.7099 (HOMO)
       601        0.0000           -0.3132540              -8.5241 (LUMO)
       602                         -0.3037621              -8.2658
       603                         -0.2896256              -7.8811
       604                         -0.2846431              -7.7455
       605                         -0.2831483              -7.7049
       ...                                ...                  ...
      1100                          0.6613902              17.9973
      -------------------------------------------------------------
                  HL-Gap            0.0435794 Eh            1.1859 eV
             Fermi-level           -0.3348318 Eh           -9.1112 eV

 SCC (total)                   0 d,  0 h,  0 min,  9.094 sec
 SCC setup                      ...        0 min,  0.111 sec (  1.215%)
 Dispersion                     ...        0 min,  0.098 sec (  1.081%)
 integral evaluation            ...        0 min,  0.359 sec (  3.943%)
 zeroth order Hamiltonian       ...        0 min,  0.003 sec (  0.038%)
 iterations                     ...        0 min,  6.615 sec ( 72.735%)
 molecular gradient             ...        0 min,  1.850 sec ( 20.345%)
 printout                       ...        0 min,  0.058 sec (  0.642%)

         :::::::::::::::::::::::::::::::::::::::::::::::::::::
         ::                     SUMMARY                     ::
         :::::::::::::::::::::::::::::::::::::::::::::::::::::
         :: total energy             -675.379373389723 Eh   ::
         :: total w/o Gsasa/hb       -675.303452876980 Eh   ::
         :: gradient norm               0.536343337325 Eh/α ::
         :: HOMO-LUMO gap               1.185854942332 eV   ::
         ::.................................................::
         :: SCC energy               -683.714362163061 Eh   ::
         :: -> isotropic ES             2.195646118081 Eh   ::
         :: -> anisotropic ES          -0.157027716121 Eh   ::
         :: -> anisotropic XC           0.238977676195 Eh   ::
         :: -> dispersion              -0.591003967852 Eh   ::
         :: -> Gsolv                   -0.652831448382 Eh   ::
         ::    -> Gborn                -0.576910935639 Eh   ::
         ::    -> Gsasa                -0.023326425243 Eh   ::
         ::    -> Ghb                  -0.054451530626 Eh   ::
         ::    -> Gshift                0.001857443127 Eh   ::
         :: repulsion energy            8.281469140437 Eh   ::
         :: add. restraining            0.000000000000 Eh   ::
         :::::::::::::::::::::::::::::::::::::::::::::::::::::

           -------------------------------------------------
          |                Property Printout                |
           -------------------------------------------------

    * Orbital Energies and Occupations

         #    Occupation            Energy/Eh            Energy/eV
      -------------------------------------------------------------
         1        2.0000           -0.7507032             -20.4277
       ...           ...                  ...                  ...
       588        2.0000           -0.3854370             -10.4883
       589        2.0000           -0.3818289             -10.3901
       590        2.0000           -0.3803137             -10.3489
       591        2.0000           -0.3797000             -10.3322
       592        2.0000           -0.3754755             -10.2172
       593        2.0000           -0.3707414             -10.0884
       594        2.0000           -0.3696820             -10.0596
       595        2.0000           -0.3692996             -10.0492
       596        2.0000           -0.3675137             -10.0006
       597        2.0000           -0.3668120              -9.9815
       598        2.0000           -0.3603888              -9.8067
       599        2.0000           -0.3593792              -9.7792
       600        2.0000           -0.3568334              -9.7099 (HOMO)
       601        0.0000           -0.3132540              -8.5241 (LUMO)
       602                         -0.3037621              -8.2658
       603                         -0.2896256              -7.8811
       604                         -0.2846431              -7.7455
       605                         -0.2831483              -7.7049
       606                         -0.2747631              -7.4767
       607                         -0.2503605              -6.8127
       608                         -0.2451836              -6.6718
       609                         -0.2414723              -6.5708
       610                         -0.2402530              -6.5376
       611                         -0.2356474              -6.4123
       ...                                ...                  ...
      1100                          0.6613902              17.9973
      -------------------------------------------------------------
                  HL-Gap            0.0435794 Eh            1.1859 eV
             Fermi-level           -0.3348318 Eh           -9.1112 eV

   #   Z        covCN         q      C6AA      α(0)
   1   7 N      2.634    -0.395    30.221     8.165
   2   6 C      3.782     0.043    19.876     6.351
   3   6 C      2.767     0.195    23.837     7.996
   4   8 O      0.856    -0.386    21.405     6.203
   5   6 C      3.809    -0.066    21.755     6.639
   6   6 C      3.848    -0.009    20.709     6.473
   7   6 C      3.755    -0.112    22.701     6.794
   8   6 C      3.755    -0.112    22.697     6.793
   9   1 H      0.860     0.168     1.286     1.776
  10   1 H      0.924     0.063     2.162     2.299
  11   1 H      0.924     0.039     2.463     2.455
  12   1 H      0.924     0.046     2.368     2.407
  13   1 H      0.924     0.044     2.395     2.420
  14   1 H      0.925     0.055     2.256     2.349
  15   1 H      0.925     0.041     2.440     2.443
  16   1 H      0.925     0.027     2.629     2.535
  17   1 H      0.925     0.046     2.370     2.407
  18   1 H      0.925     0.036     2.505     2.475
  19   1 H      0.925     0.034     2.526     2.485
  20   7 N      2.638    -0.381    29.855     8.115
  21   6 C      3.784     0.035    20.004     6.371
  22   6 C      2.757     0.275    22.342     7.740
  23   8 O      0.858    -0.472    23.182     6.455
  24   6 C      3.808    -0.064    21.728     6.635
  25   6 C      3.849     0.001    20.532     6.445
  26   6 C      3.756    -0.096    22.385     6.746
  27   6 C      3.758    -0.104    22.531     6.767
  28   1 H      0.860     0.153     1.383     1.842
  29   1 H      0.923     0.045     2.386     2.416
  30   1 H      0.924     0.014     2.826     2.629
  31   1 H      0.924     0.039     2.464     2.455
  32   1 H      0.924     0.022     2.697     2.568
  33   1 H      0.925     0.044     2.392     2.419
  34   1 H      0.925     0.021     2.716     2.577
  35   1 H      0.925     0.037     2.491     2.468
  36   1 H      0.925     0.043     2.405     2.425
  37   1 H      0.925     0.038     2.479     2.462
  38   1 H      0.925     0.022     2.700     2.570
  39   7 N      2.689    -0.175    24.783     7.394
  40   6 C      3.800     0.012    20.383     6.428
  41   6 C      2.756     0.273    22.387     7.748
  42   8 O      0.859    -0.478    23.302     6.472
  43   6 C      3.726     0.111    18.857     6.200
  44   8 O      1.654    -0.491    22.693     6.431
  45   6 C      3.753    -0.141    23.284     6.881
  46   1 H      0.860     0.191     1.151     1.681
  47   1 H      0.924     0.087     1.913     2.163
  48   1 H      0.923     0.040     2.450     2.448
  49   1 H      0.805     0.340     0.612     1.228
  50   1 H      0.925     0.072     2.062     2.246
  51   1 H      0.925     0.068     2.112     2.273
  52   1 H      0.925     0.060     2.204     2.322
  53   7 N      2.691    -0.192    25.155     7.449
  54   6 C      3.795     0.020    20.243     6.407
  55   6 C      2.755     0.280    22.255     7.725
  56   8 O      0.859    -0.469    23.107     6.445
  57   6 C      3.757    -0.140    23.245     6.874
  58   1 H      0.860     0.220     1.008     1.573
  59   1 H      0.924     0.085     1.931     2.173
  60   1 H      0.925     0.086     1.914     2.164
  61   1 H      0.925     0.084     1.937     2.176
  62   1 H      0.925     0.065     2.139     2.287
  63   7 N      2.693    -0.184    24.985     7.424
  64   6 C      3.797     0.029    20.089     6.382
  65   6 C      2.756     0.283    22.207     7.717
  66   8 O      0.859    -0.487    23.493     6.499
  67   6 C      3.807    -0.062    21.678     6.628
  68   6 C      3.798    -0.094    22.305     6.725
  69   6 C      2.682     0.371    20.714     7.448
  70   8 O      0.856    -0.633    26.934     6.958
  71   8 O      0.856    -0.648    27.338     7.010
  72   1 H      0.860     0.195     1.132     1.667
  73   1 H      0.924     0.085     1.931     2.173
  74   1 H      0.924     0.054     2.274     2.358
  75   1 H      0.924     0.039     2.459     2.452
  76   1 H      0.924     0.025     2.659     2.550
  77   1 H      0.924     0.019     2.754     2.595
  78   7 N      2.692    -0.192    25.158     7.449
  79   6 C      3.798     0.041    19.883     6.349
  80   6 C      2.754     0.303    21.863     7.657
  81   8 O      0.858    -0.508    23.962     6.563
  82   6 C      3.806    -0.052    21.504     6.602
  83   6 C      3.797    -0.092    22.250     6.716
  84   6 C      2.682     0.369    20.742     7.453
  85   8 O      0.856    -0.616    26.524     6.905
  86   8 O      0.856    -0.646    27.265     7.001
  87   1 H      0.860     0.211     1.052     1.607
  88   1 H      0.923     0.045     2.380     2.413
  89   1 H      0.924     0.039     2.460     2.453
  90   1 H      0.924     0.045     2.379     2.412
  91   1 H      0.924     0.018     2.764     2.600
  92   1 H      0.924     0.015     2.810     2.621
  93   7 N      2.695    -0.186    25.033     7.431
  94   6 C      3.793     0.038    19.943     6.359
  95   6 C      2.757     0.283    22.211     7.718
  96   8 O      0.859    -0.487    23.503     6.500
  97   6 C      3.808    -0.078    21.979     6.674
  98   6 C      3.848    -0.019    20.884     6.500
  99   6 C      3.754    -0.140    23.264     6.878
 100   6 C      3.754    -0.125    22.964     6.833
 101   1 H      0.860     0.211     1.050     1.605
 102   1 H      0.923     0.057     2.233     2.337
 103   1 H      0.924     0.031     2.579     2.511
 104   1 H      0.924     0.066     2.134     2.284
 105   1 H      0.924     0.046     2.372     2.408
 106   1 H      0.925     0.073     2.052     2.240
 107   1 H      0.925     0.049     2.327     2.386
 108   1 H      0.925     0.056     2.243     2.342
 109   1 H      0.925     0.064     2.147     2.291
 110   1 H      0.925     0.054     2.276     2.359
 111   1 H      0.925     0.022     2.697     2.568
 112   7 N      2.689    -0.166    24.587     7.364
 113   6 C      3.798     0.012    20.385     6.429
 114   6 C      2.760     0.271    22.420     7.754
 115   8 O      0.859    -0.468    23.093     6.443
 116   6 C      3.805    -0.086    22.145     6.699
 117   6 C      3.803    -0.077    21.965     6.672
 118   6 C      3.802    -0.095    22.305     6.724
 119   6 C      3.732    -0.056    21.671     6.645
 120   7 N      3.483    -0.148    24.194     7.305
 121   1 H      0.860     0.194     1.136     1.670
 122   1 H      0.923     0.100     1.783     2.088
 123   1 H      0.925     0.079     1.994     2.208
 124   1 H      0.924     0.050     2.318     2.381
 125   1 H      0.925     0.052     2.300     2.372
 126   1 H      0.924     0.076     2.017     2.221
 127   1 H      0.924     0.067     2.119     2.277
 128   1 H      0.925     0.085     1.925     2.170
 129   1 H      0.924     0.132     1.521     1.929
 130   1 H      0.925     0.119     1.619     1.990
 131   1 H      0.859     0.306     0.695     1.306
 132   1 H      0.859     0.290     0.743     1.351
 133   1 H      0.859     0.298     0.719     1.329
 134   7 N      2.689    -0.170    24.675     7.378
 135   6 C      3.802     0.015    20.328     6.419
 136   6 C      2.759     0.278    22.300     7.733
 137   8 O      0.858    -0.477    23.274     6.468
 138   6 C      3.805    -0.082    22.063     6.687
 139   6 C      3.800    -0.075    21.927     6.667
 140   6 C      3.801    -0.097    22.349     6.731
 141   6 C      3.730    -0.062    21.788     6.663
 142   7 N      3.483    -0.143    24.076     7.288
 143   1 H      0.860     0.199     1.113     1.653
 144   1 H      0.924     0.097     1.814     2.106
 145   1 H      0.924     0.038     2.480     2.463
 146   1 H      0.924     0.072     2.060     2.244
 147   1 H      0.924     0.050     2.326     2.385
 148   1 H      0.924     0.049     2.332     2.388
 149   1 H      0.925     0.092     1.857     2.131
 150   1 H      0.924     0.085     1.933     2.174
 151   1 H      0.924     0.126     1.563     1.955
 152   1 H      0.925     0.139     1.466     1.894
 153   1 H      0.859     0.305     0.699     1.309
 154   1 H      0.859     0.297     0.723     1.332
 155   1 H      0.859     0.276     0.791     1.393
 156   7 N      2.692    -0.193    25.191     7.454
 157   6 C      3.802     0.044    19.839     6.341
 158   6 C      2.758     0.280    22.259     7.726
 159   8 O      0.858    -0.502    23.828     6.545
 160   6 C      3.812    -0.068    21.789     6.644
 161   6 C      2.972     0.013    27.729     8.638
 162   6 C      2.925    -0.034    28.836     8.806
 163   6 C      2.925    -0.042    29.046     8.838
 164   6 C      2.919    -0.031    28.782     8.798
 165   6 C      2.919    -0.035    28.866     8.810
 166   6 C      2.920    -0.038    28.951     8.823
 167   1 H      0.860     0.213     1.042     1.599
 168   1 H      0.923     0.035     2.518     2.482
 169   1 H      0.924     0.039     2.468     2.457
 170   1 H      0.924     0.069     2.101     2.266
 171   1 H      0.925     0.004     2.986     2.702
 172   1 H      0.926     0.053     2.283     2.363
 173   1 H      0.926     0.024     2.675     2.558
 174   1 H      0.926     0.057     2.237     2.339
 175   1 H      0.926     0.042     2.421     2.433
 176   7 N      2.690    -0.171    24.691     7.380
 177   6 C      3.798     0.011    20.386     6.429
 178   6 C      2.761     0.277    22.319     7.737
 179   8 O      0.859    -0.500    23.775     6.537
 180   6 C      3.808    -0.092    22.239     6.713
 181   6 C      3.801    -0.094    22.299     6.723
 182   6 C      3.802    -0.097    22.345     6.730
 183   6 C      3.731    -0.055    21.657     6.643
 184   7 N      3.482    -0.123    23.671     7.226
 185   1 H      0.860     0.228     0.975     1.547
 186   1 H      0.924     0.078     2.001     2.212
 187   1 H      0.925     0.082     1.956     2.187
 188   1 H      0.925     0.072     2.061     2.245
 189   1 H      0.924     0.065     2.145     2.291
 190   1 H      0.924     0.087     1.906     2.159
 191   1 H      0.925     0.089     1.889     2.149
 192   1 H      0.925     0.067     2.122     2.278
 193   1 H      0.924     0.131     1.528     1.933
 194   1 H      0.925     0.115     1.657     2.013
 195   1 H      0.858     0.296     0.727     1.336
 196   1 H      0.859     0.273     0.800     1.401
 197   1 H      0.859     0.285     0.758     1.364
 198   7 N      2.690    -0.179    24.883     7.409
 199   6 C      3.802     0.019    20.259     6.408
 200   6 C      2.765     0.278    22.299     7.733
 201   8 O      0.859    -0.500    23.787     6.539
 202   6 C      3.812    -0.089    22.181     6.704
 203   6 C      3.850    -0.015    20.808     6.488
 204   6 C      3.757    -0.126    22.969     6.833
 205   6 C      3.756    -0.119    22.838     6.814
 206   1 H      0.860     0.223     0.996     1.563
 207   1 H      0.924     0.075     2.036     2.231
 208   1 H      0.924     0.073     2.052     2.240
 209   1 H      0.924     0.059     2.214     2.327
 210   1 H      0.924     0.049     2.339     2.391
 211   1 H      0.925     0.055     2.255     2.348
 212   1 H      0.925     0.044     2.393     2.419
 213   1 H      0.925     0.049     2.328     2.386
 214   1 H      0.925     0.048     2.348     2.396
 215   1 H      0.925     0.041     2.441     2.443
 216   1 H      0.925     0.030     2.582     2.513
 217   7 N      2.691    -0.188    25.077     7.437
 218   6 C      3.805     0.017    20.282     6.411
 219   6 C      2.756     0.279    22.280     7.729
 220   8 O      0.859    -0.514    24.092     6.581
 221   6 C      3.806    -0.079    22.011     6.679
 222   6 C      3.803    -0.072    21.867     6.658
 223   6 C      3.802    -0.100    22.399     6.738
 224   6 C      3.730    -0.039    21.361     6.597
 225   7 N      3.481    -0.166    24.584     7.364
 226   1 H      0.860     0.230     0.964     1.538
 227   1 H      0.923     0.089     1.892     2.151
 228   1 H      0.924     0.091     1.868     2.138
 229   1 H      0.924     0.041     2.431     2.438
 230   1 H      0.924     0.045     2.383     2.414
 231   1 H      0.924     0.048     2.351     2.398
 232   1 H      0.925     0.090     1.876     2.142
 233   1 H      0.925     0.093     1.851     2.128
 234   1 H      0.925     0.106     1.734     2.059
 235   1 H      0.925     0.092     1.856     2.130
 236   1 H      0.859     0.282     0.768     1.373
 237   1 H      0.857     0.299     0.716     1.326
 238   1 H      0.859     0.300     0.713     1.322
 239   7 N      2.692    -0.171    24.702     7.382
 240   6 C      3.794     0.026    20.144     6.391
 241   6 C      2.752     0.293    22.038     7.687
 242   8 O      0.858    -0.507    23.948     6.561
 243   6 C      3.807    -0.083    22.081     6.689
 244   6 C      3.848    -0.015    20.805     6.488
 245   6 C      3.755    -0.116    22.772     6.804
 246   6 C      3.755    -0.114    22.747     6.800
 247   1 H      0.860     0.235     0.942     1.521
 248   1 H      0.924     0.064     2.159     2.298
 249   1 H      0.924     0.065     2.146     2.291
 250   1 H      0.924     0.073     2.058     2.244
 251   1 H      0.924     0.058     2.228     2.334
 252   1 H      0.925     0.046     2.368     2.406
 253   1 H      0.925     0.043     2.403     2.424
 254   1 H      0.925     0.024     2.667     2.554
 255   1 H      0.925     0.046     2.371     2.408
 256   1 H      0.925     0.031     2.565     2.505
 257   1 H      0.925     0.039     2.458     2.452
 258   7 N      2.691    -0.176    24.801     7.396
 259   6 C      3.793     0.026    20.152     6.393
 260   6 C      2.754     0.290    22.085     7.696
 261   8 O      0.858    -0.507    23.948     6.561
 262   6 C      3.810    -0.084    22.097     6.691
 263   6 C      3.849    -0.011    20.731     6.476
 264   6 C      3.757    -0.122    22.883     6.820
 265   6 C      3.756    -0.114    22.738     6.799
 266   1 H      0.860     0.217     1.023     1.585
 267   1 H      0.923     0.059     2.210     2.325
 268   1 H      0.924     0.068     2.102     2.267
 269   1 H      0.924     0.073     2.053     2.241
 270   1 H      0.924     0.029     2.597     2.520
 271   1 H      0.925     0.045     2.383     2.414
 272   1 H      0.925     0.043     2.404     2.425
 273   1 H      0.925     0.055     2.259     2.351
 274   1 H      0.925     0.042     2.429     2.437
 275   1 H      0.925     0.052     2.289     2.366
 276   1 H      0.925     0.023     2.688     2.564
 277   7 N      2.689    -0.200    25.343     7.477
 278   6 C      3.792     0.016    20.323     6.420
 279   6 C      2.764     0.276    22.341     7.741
 280   8 O      0.859    -0.507    23.950     6.561
 281   6 C      3.679     0.057    19.825     6.377
 282   8 O      1.653    -0.461    22.072     6.342
 283   1 H      0.860     0.228     0.973     1.545
 284   1 H      0.923     0.070     2.083     2.257
 285   1 H      0.924     0.081     1.969     2.195
 286   1 H      0.924     0.062     2.179     2.309
 287   1 H      0.803     0.340     0.611     1.228
 288   7 N      2.688    -0.178    24.852     7.404
 289   6 C      3.807     0.026    20.124     6.386
 290   6 C      2.763     0.276    22.324     7.738
 291   8 O      0.859    -0.517    24.155     6.589
 292   6 C      3.851    -0.011    20.731     6.476
 293   6 C      3.756    -0.108    22.615     6.780
 294   6 C      3.757    -0.120    22.855     6.816
 295   1 H      0.860     0.219     1.013     1.577
 296   1 H      0.924     0.061     2.188     2.313
 297   1 H      0.924     0.044     2.393     2.419
 298   1 H      0.925     0.047     2.356     2.400
 299   1 H      0.925     0.052     2.300     2.372
 300   1 H      0.925     0.034     2.530     2.487
 301   1 H      0.925     0.054     2.270     2.356
 302   1 H      0.925     0.051     2.311     2.377
 303   1 H      0.925     0.039     2.467     2.456
 304   7 N      2.759    -0.081    22.810     7.093
 305   6 C      3.829     0.028    20.085     6.377
 306   6 C      2.766     0.209    23.567     7.950
 307   8 O      0.856    -0.367    21.024     6.147
 308   6 C      3.833    -0.067    21.757     6.636
 309   6 C      3.832    -0.072    21.857     6.652
 310   6 C      3.768    -0.012    20.823     6.504
 311   1 H      0.924     0.071     2.071     2.250
 312   1 H      0.924     0.066     2.135     2.285
 313   1 H      0.925     0.077     2.005     2.214
 314   1 H      0.925     0.078     2.000     2.212
 315   1 H      0.925     0.069     2.096     2.264
 316   1 H      0.924     0.065     2.143     2.289
 317   1 H      0.924     0.072     2.058     2.244
 318   7 N      2.635    -0.394    30.203     8.162
 319   6 C      3.781     0.042    19.896     6.354
 320   6 C      2.766     0.196    23.809     7.991
 321   8 O      0.856    -0.370    21.090     6.157
 322   6 C      3.756    -0.118    22.821     6.811
 323   1 H      0.860     0.174     1.252     1.752
 324   1 H      0.923     0.056     2.244     2.342
 325   1 H      0.925     0.039     2.463     2.454
 326   1 H      0.925     0.065     2.138     2.287
 327   1 H      0.925     0.053     2.286     2.364
 328   7 N      2.637    -0.395    30.247     8.168
 329   6 C      3.783     0.041    19.910     6.356
 330   6 C      2.766     0.209    23.565     7.950
 331   8 O      0.856    -0.398    21.640     6.237
 332   6 C      3.809    -0.085    22.111     6.694
 333   6 C      3.849    -0.010    20.729     6.476
 334   6 C      3.755    -0.120    22.852     6.816
 335   6 C      3.757    -0.121    22.869     6.818
 336   1 H      0.860     0.166     1.300     1.786
 337   1 H      0.924     0.051     2.305     2.374
 338   1 H      0.924     0.067     2.115     2.274
 339   1 H      0.924     0.066     2.134     2.284
 340   1 H      0.924     0.011     2.875     2.651
 341   1 H      0.925     0.039     2.467     2.456
 342   1 H      0.925     0.030     2.580     2.512
 343   1 H      0.925     0.060     2.199     2.319
 344   1 H      0.925     0.036     2.507     2.476
 345   1 H      0.925     0.060     2.198     2.318
 346   1 H      0.925     0.042     2.428     2.437
 347   7 N      2.635    -0.399    30.338     8.180
 348   6 C      3.791     0.031    20.056     6.378
 349   6 C      2.760     0.269    22.450     7.759
 350   8 O      0.858    -0.511    24.020     6.571
 351   6 C      3.852    -0.018    20.862     6.496
 352   6 C      3.758    -0.106    22.578     6.775
 353   6 C      3.756    -0.112    22.703     6.794
 354   1 H      0.860     0.174     1.252     1.753
 355   1 H      0.923     0.030     2.582     2.513
 356   1 H      0.924     0.041     2.439     2.442
 357   1 H      0.925     0.050     2.318     2.381
 358   1 H      0.925     0.024     2.679     2.560
 359   1 H      0.925     0.040     2.445     2.445
 360   1 H      0.925     0.055     2.257     2.349
 361   1 H      0.925     0.042     2.428     2.437
 362   1 H      0.925     0.046     2.377     2.411
 363   7 N      2.691    -0.166    24.593     7.365
 364   6 C      3.796     0.031    20.053     6.376
 365   6 C      2.768     0.203    23.688     7.971
 366   8 O      0.856    -0.374    21.161     6.168
 367   6 C      3.812    -0.081    22.029     6.681
 368   6 C      3.849    -0.012    20.749     6.479
 369   6 C      3.759    -0.122    22.895     6.822
 370   6 C      3.756    -0.112    22.698     6.793
 371   1 H      0.860     0.228     0.973     1.545
 372   1 H      0.923     0.073     2.049     2.238
 373   1 H      0.924     0.073     2.051     2.240
 374   1 H      0.924     0.063     2.168     2.302
 375   1 H      0.924     0.047     2.355     2.400
 376   1 H      0.925     0.055     2.262     2.352
 377   1 H      0.925     0.049     2.328     2.386
 378   1 H      0.925     0.044     2.392     2.419
 379   1 H      0.925     0.052     2.295     2.369
 380   1 H      0.925     0.035     2.513     2.479
 381   1 H      0.925     0.029     2.595     2.519
 382   7 N      2.635    -0.397    30.292     8.174
 383   6 C      3.788     0.051    19.733     6.327
 384   6 C      2.758     0.282    22.227     7.720
 385   8 O      0.858    -0.502    23.826     6.544
 386   6 C      3.804    -0.096    22.324     6.726
 387   6 C      2.684     0.366    20.792     7.462
 388   8 O      0.856    -0.646    27.269     7.001
 389   8 O      0.856    -0.618    26.574     6.911
 390   1 H      0.860     0.153     1.381     1.841
 391   1 H      0.923     0.013     2.842     2.636
 392   1 H      0.925     0.014     2.830     2.631
 393   1 H      0.924     0.027     2.633     2.537
 394   7 N      2.687    -0.194    25.215     7.458
 395   6 C      3.797     0.026    20.141     6.390
 396   6 C      2.755     0.275    22.358     7.743
 397   8 O      0.858    -0.481    23.369     6.481
 398   6 C      3.820    -0.058    21.605     6.615
 399   6 C      3.796    -0.030    21.116     6.543
 400  16 S      1.959    -0.168   148.144    20.486
 401   6 C      3.746    -0.035    21.275     6.579
 402   1 H      0.860     0.213     1.041     1.598
 403   1 H      0.924     0.076     2.020     2.223
 404   1 H      0.924     0.071     2.079     2.255
 405   1 H      0.924     0.035     2.518     2.482
 406   1 H      0.925     0.064     2.150     2.293
 407   1 H      0.925     0.090     1.880     2.144
 408   1 H      0.925     0.048     2.346     2.395
 409   1 H      0.925     0.014     2.823     2.627
 410   1 H      0.925     0.040     2.449     2.447
 411   7 N      2.686    -0.181    24.930     7.416
 412   6 C      3.746    -0.021    21.012     6.538
 413   6 C      2.749     0.280    22.260     7.726
 414   8 O      0.858    -0.479    23.324     6.475
 415   1 H      0.860     0.215     1.032     1.591
 416   1 H      0.924     0.087     1.904     2.158
 417   1 H      0.924     0.082     1.964     2.191
 418   7 N      2.688    -0.184    24.998     7.426
 419   6 C      3.792     0.018    20.285     6.414
 420   6 C      2.754     0.279    22.281     7.730
 421   8 O      0.858    -0.465    23.026     6.434
 422   6 C      3.810    -0.067    21.783     6.644
 423   6 C      3.849    -0.002    20.590     6.454
 424   6 C      3.758    -0.113    22.723     6.796
 425   6 C      3.756    -0.113    22.723     6.797
 426   1 H      0.860     0.224     0.993     1.561
 427   1 H      0.924     0.075     2.032     2.229
 428   1 H      0.924     0.051     2.306     2.375
 429   1 H      0.924     0.067     2.119     2.277
 430   1 H      0.924     0.009     2.901     2.663
 431   1 H      0.925     0.043     2.406     2.426
 432   1 H      0.925     0.041     2.440     2.443
 433   1 H      0.925     0.048     2.346     2.395
 434   1 H      0.925     0.042     2.423     2.434
 435   1 H      0.925     0.048     2.343     2.394
 436   1 H      0.925     0.027     2.628     2.535
 437   7 N      2.690    -0.168    24.635     7.372
 438   6 C      3.792     0.020    20.242     6.407
 439   6 C      2.769     0.198    23.773     7.985
 440   8 O      0.856    -0.350    20.713     6.102
 441   6 C      3.811    -0.057    21.588     6.614
 442   6 C      3.808    -0.104    22.480     6.749
 443   6 C      2.746     0.293    22.039     7.687
 444   8 O      0.858    -0.500    23.785     6.539
 445   7 N      2.639    -0.284    27.325     7.764
 446   1 H      0.860     0.201     1.100     1.643
 447   1 H      0.924     0.101     1.779     2.086
 448   1 H      0.924     0.057     2.236     2.339
 449   1 H      0.925     0.073     2.050     2.239
 450   1 H      0.925     0.078     2.004     2.214
 451   1 H      0.925     0.072     2.059     2.244
 452   1 H      0.860     0.227     0.978     1.549
 453   1 H      0.860     0.189     1.165     1.691
 454   1 H      0.862     0.179     1.220     1.730
 455   1 H      0.930     0.065     2.136     2.285
 456   1 H      0.862     0.181     1.207     1.721
 457   1 H      0.930     0.073     2.047     2.237
 458   1 H      0.862     0.192     1.148     1.678
 459   1 H      0.930     0.069     2.101     2.267
 460   1 H      0.862     0.187     1.172     1.696
 461   1 H      0.930     0.063     2.164     2.300
 462   1 H      0.862     0.178     1.224     1.733
 463   1 H      0.930     0.085     1.928     2.171
 464   1 H      0.862     0.186     1.180     1.702
 465   1 H      0.930     0.090     1.878     2.143

 Mol. C6AA /au·bohr⁶  :    1865653.231357
 Mol. C8AA /au·bohr⁸  :   41233191.050445
 Mol. α(0) /au        :       2036.937344


Wiberg/Mayer (AO) data.
largest (>0.10) Wiberg bond orders for each atom
          total WBO             WBO to atom ...
     1  N   3.000        C    2 1.026    H  454 0.953    H    9 0.951
     2  C   3.985        N    1 1.026    C    3 0.982    C    5 0.957    H   10 0.931
     3  C   3.892        O    4 1.878    C    2 0.982    H  455 0.954
     4  O   2.029        C    3 1.878
     5  C   3.990        C    6 0.991    H   11 0.973    H   12 0.969    C    2 0.957
     6  C   3.995        C    8 1.010    C    7 1.010    C    5 0.991    H   13 0.964
     7  C   3.995        C    6 1.010    H   15 0.985    H   14 0.983    H   16 0.981
     8  C   3.996        C    6 1.010    H   17 0.985    H   19 0.985    H   18 0.982
     9  H   0.972        N    1 0.951
    10  H   0.996        C    2 0.931
    11  H   0.998        C    5 0.973
    12  H   0.998        C    5 0.969
    13  H   0.998        C    6 0.964
    14  H   0.996        C    7 0.983
    15  H   0.998        C    7 0.985
    16  H   0.999        C    7 0.981
    17  H   0.997        C    8 0.985
    18  H   0.999        C    8 0.982
    19  H   0.999        C    8 0.985
    20  N   2.998        C   21 1.026    H  456 0.954    H   28 0.950
    21  C   3.987        N   20 1.026    C   24 0.969    C   22 0.949    H   29 0.948
    22  C   3.943        O   23 1.663    N   39 1.253    C   21 0.949
    23  O   1.971        C   22 1.663    N   39 0.186
    24  C   3.994        C   25 0.997    H   30 0.970    H   31 0.970    C   21 0.969
    25  C   3.996        C   26 1.010    C   27 1.006    C   24 0.997    H   32 0.957
    26  C   3.997        C   25 1.010    H   33 0.985    H   35 0.982    H   34 0.981
    27  C   3.996        C   25 1.006    H   38 0.987    H   37 0.981    H   36 0.980
    28  H   0.977        N   20 0.950
    29  H   0.998        C   21 0.948
    30  H   1.000        C   24 0.970
    31  H   0.998        C   24 0.970
    32  H   0.999        C   25 0.957
    33  H   0.998        C   26 0.985
    34  H   1.000        C   26 0.981
    35  H   0.999        C   26 0.982
    36  H   0.998        C   27 0.980
    37  H   0.999        C   27 0.981
    38  H   0.999        C   27 0.987
    39  N   3.439        C   22 1.253    C   40 0.995    H   46 0.926    O   23 0.186
    40  C   3.967        N   39 0.995    C   43 0.951    H   47 0.944    C   41 0.936
    41  C   3.951        O   42 1.629    N   53 1.298    C   40 0.936
    42  O   1.981        C   41 1.629    N   53 0.196
    43  C   3.952        C   45 1.007    O   44 0.979    H   48 0.957    C   40 0.951
    44  O   1.942        C   43 0.979    H   49 0.865
    45  C   3.987        C   43 1.007    H   52 0.982    H   51 0.981    H   50 0.979
    46  H   0.963        N   39 0.926
    47  H   0.992        C   40 0.944
    48  H   0.998        C   43 0.957
    49  H   0.884        O   44 0.865
    50  H   0.994        C   45 0.979
    51  H   0.995        C   45 0.981
    52  H   0.996        C   45 0.982
    53  N   3.458        C   41 1.298    C   54 0.967    H   58 0.919    O   42 0.196
    54  C   3.956        C   57 0.995    N   53 0.967    H   59 0.950    C   55 0.934
    55  C   3.948        O   56 1.643    N   63 1.290    C   54 0.934
    56  O   1.971        C   55 1.643    N   63 0.194
    57  C   3.979        C   54 0.995    H   62 0.983    H   60 0.978    H   61 0.977
    58  H   0.951        N   53 0.919
    59  H   0.992        C   54 0.950
    60  H   0.992        C   57 0.978
    61  H   0.992        C   57 0.977
    62  H   0.996        C   57 0.983
    63  N   3.462        C   55 1.290    C   64 0.974    H   72 0.925    O   56 0.194
    64  C   3.962        C   67 0.984    N   63 0.974    H   73 0.949    C   65 0.936
    65  C   3.946        O   66 1.622    N   78 1.306    C   64 0.936
    66  O   1.948        C   65 1.622    N   78 0.194
    67  C   3.993        C   68 1.011    C   64 0.984    H   74 0.970    H   75 0.970
    68  C   3.984        C   67 1.011    H   76 0.972    H   77 0.969    C   69 0.906
    69  C   3.936        O   70 1.507    O   71 1.502    C   68 0.906
    70  O   1.807        C   69 1.507    O   71 0.217
    71  O   1.793        C   69 1.502    O   70 0.217
    72  H   0.962        N   63 0.925
    73  H   0.992        C   64 0.949
    74  H   0.997        C   67 0.970
    75  H   0.998        C   67 0.970
    76  H   0.999        C   68 0.972
    77  H   1.000        C   68 0.969
    78  N   3.467        C   65 1.306    C   79 0.976    H   87 0.904    O   66 0.194
    79  C   3.966        C   82 0.986    N   78 0.976    H   88 0.954    C   80 0.935
    80  C   3.948        O   81 1.579    N   93 1.336    C   79 0.935
    81  O   1.940        C   80 1.579    N   93 0.185
    82  C   3.993        C   83 1.011    C   79 0.986    H   89 0.968    H   90 0.964
    83  C   3.982        C   82 1.011    H   91 0.974    H   92 0.962    C   84 0.907
    84  C   3.938        O   85 1.506    O   86 1.499    C   83 0.907
    85  O   1.828        C   84 1.506    O   86 0.216
    86  O   1.793        C   84 1.499    O   85 0.216
    87  H   0.955        N   78 0.904
    88  H   0.997        C   79 0.954
    89  H   0.998        C   82 0.968
    90  H   0.998        C   82 0.964
    91  H   1.000        C   83 0.974
    92  H   0.999        C   83 0.962
    93  N   3.472        C   80 1.336    C   94 0.960    H  101 0.900    O   81 0.185
    94  C   3.950        C   97 0.971    N   93 0.960    H  102 0.951    C   95 0.949
    95  C   3.953        O   96 1.595    N  112 1.318    C   94 0.949
    96  O   1.936        C   95 1.595    N  112 0.189
    97  C   3.978        C   98 0.991    C   94 0.971    H  103 0.971    H  104 0.961
    98  C   3.988        C  100 1.009    C   99 1.008    C   97 0.991    H  105 0.967
[...]
   128  H   0.992        C  118 0.970
   129  H   0.983        C  119 0.961
   130  H   0.986        C  119 0.962
   131  H   0.906        N  120 0.893
   132  H   0.916        N  120 0.901
   133  H   0.911        N  120 0.896
   134  N   3.470        C  114 1.302    C  135 0.979    H  143 0.917    O  115 0.193
   135  C   3.964        C  138 0.983    N  134 0.979    H  144 0.944    C  136 0.933
   136  C   3.944        O  137 1.612    N  156 1.309    C  135 0.933
   137  O   1.968        C  136 1.612    N  156 0.193
   138  C   3.985        C  139 1.003    C  135 0.983    H  145 0.967    H  146 0.960
   139  C   3.991        C  140 1.007    C  138 1.003    H  147 0.973    H  148 0.972
   140  C   3.986        C  141 1.015    C  139 1.007    H  150 0.968    H  149 0.961
   141  C   3.904        C  140 1.015    H  152 0.959    H  151 0.959    N  142 0.948
   142  N   3.667        C  141 0.948    H  155 0.906    H  154 0.896    H  153 0.894
   143  H   0.960        N  134 0.917
   144  H   0.990        C  135 0.944
   145  H   0.999        C  138 0.967
   146  H   0.994        C  138 0.960
   147  H   0.997        C  139 0.973
   148  H   0.997        C  139 0.972
   149  H   0.991        C  140 0.961
   150  H   0.993        C  140 0.968
   151  H   0.984        C  141 0.959
   152  H   0.981        C  141 0.959
   153  H   0.907        N  142 0.894
   154  H   0.912        N  142 0.896
   155  H   0.924        N  142 0.906
   156  N   3.469        C  136 1.309    C  157 0.978    H  167 0.894    O  137 0.193
   157  C   3.968        N  156 0.978    C  160 0.967    H  168 0.955    C  158 0.935
   158  C   3.954        O  159 1.600    N  176 1.333    C  157 0.935
   159  O   1.951        C  158 1.600    N  176 0.199
   160  C   3.989        C  161 1.009    H  169 0.967    C  157 0.967    H  170 0.960
   161  C   3.987        C  162 1.413    C  163 1.412    C  160 1.009    C  166 0.110
   162  C   3.992        C  164 1.446    C  161 1.413    H  171 0.970    C  165 0.111
   163  C   3.989        C  165 1.445    C  161 1.412    H  172 0.966    C  164 0.111
   164  C   3.992        C  162 1.446    C  166 1.437    H  173 0.969    C  163 0.111
   165  C   3.990        C  163 1.445    C  166 1.438    H  174 0.968    C  162 0.111
   166  C   3.991        C  165 1.438    C  164 1.437    H  175 0.971    C  161 0.110
   167  H   0.954        N  156 0.894
   168  H   0.998        C  157 0.955
   169  H   0.998        C  160 0.967
   170  H   0.995        C  160 0.960
   171  H   1.000        C  162 0.970
   172  H   0.997        C  163 0.966
   173  H   0.999        C  164 0.969
   174  H   0.996        C  165 0.968
   175  H   0.998        C  166 0.971
   176  N   3.484        C  158 1.333    C  177 0.969    H  185 0.898    O  159 0.199
   177  C   3.954        C  180 0.979    N  176 0.969    H  186 0.949    C  178 0.933
   178  C   3.947        O  179 1.627    N  198 1.307    C  177 0.933
   179  O   1.951        C  178 1.627    N  198 0.196
   180  C   3.980        C  181 1.005    C  177 0.979    H  188 0.970    H  187 0.963
   181  C   3.989        C  180 1.005    C  182 1.004    H  189 0.971    H  190 0.968
   182  C   3.986        C  183 1.014    C  181 1.004    H  192 0.972    H  191 0.961
   183  C   3.909        C  182 1.014    H  194 0.964    H  193 0.960    N  184 0.949
   184  N   3.678        C  183 0.949    H  196 0.907    H  195 0.899    H  197 0.895
   185  H   0.948        N  176 0.898
   186  H   0.993        C  177 0.949
   187  H   0.993        C  180 0.963
   188  H   0.994        C  180 0.970
   189  H   0.996        C  181 0.971
   190  H   0.992        C  181 0.968
   191  H   0.992        C  182 0.961
   192  H   0.996        C  182 0.972
   193  H   0.983        C  183 0.960
   194  H   0.987        C  183 0.964
   195  H   0.913        N  184 0.899
   196  H   0.926        N  184 0.907
   197  H   0.918        N  184 0.895
   198  N   3.468        C  178 1.307    C  199 0.977    H  206 0.905    O  179 0.196
   199  C   3.963        C  202 0.979    N  198 0.977    H  207 0.949    C  200 0.937
   200  C   3.944        O  201 1.626    N  217 1.298    C  199 0.937
   201  O   1.946        C  200 1.626    N  217 0.192
   202  C   3.982        C  203 0.992    C  199 0.979    H  209 0.970    H  208 0.963
   203  C   3.993        C  205 1.010    C  204 1.008    C  202 0.992    H  210 0.968
   204  C   3.993        C  203 1.008    H  213 0.986    H  212 0.985    H  211 0.984
   205  C   3.995        C  203 1.010    H  215 0.986    H  214 0.985    H  216 0.983
   206  H   0.950        N  198 0.905
   207  H   0.994        C  199 0.949
   208  H   0.995        C  202 0.963
   209  H   0.996        C  202 0.970
   210  H   0.998        C  203 0.968
   211  H   0.996        C  204 0.984
   212  H   0.998        C  204 0.985
   213  H   0.998        C  204 0.986
   214  H   0.998        C  205 0.985
   215  H   0.998        C  205 0.986
   216  H   0.999        C  205 0.983
   217  N   3.462        C  200 1.298    C  218 0.987    H  226 0.892    O  201 0.192
   218  C   3.969        N  217 0.987    C  221 0.976    C  219 0.946    H  227 0.941
   219  C   3.940        O  220 1.529    N  239 1.364    C  218 0.946
   220  O   1.958        C  219 1.529    N  239 0.182
   221  C   3.985        C  222 1.006    C  218 0.976    H  229 0.975    H  228 0.962
   222  C   3.993        C  223 1.008    C  221 1.006    H  230 0.975    H  231 0.973
   223  C   3.983        C  222 1.008    C  224 1.005    H  233 0.971    H  232 0.961
   224  C   3.921        C  223 1.005    H  234 0.969    H  235 0.969    N  225 0.961
   225  N   3.650        C  224 0.961    H  236 0.906    H  238 0.896    H  237 0.829
   226  H   0.947        N  217 0.892
   227  H   0.992        C  218 0.941
   228  H   0.991        C  221 0.962
   229  H   0.998        C  221 0.975
   230  H   0.998        C  222 0.975
   231  H   0.998        C  222 0.973
   232  H   0.992        C  223 0.961
   233  H   0.991        C  223 0.971
   234  H   0.988        C  224 0.969
   235  H   0.991        C  224 0.969
   236  H   0.920        N  225 0.906
   237  H   0.910        N  225 0.829
   238  H   0.910        N  225 0.896
   239  N   3.502        C  219 1.364    C  240 0.971    H  247 0.886    O  220 0.182
   240  C   3.962        C  243 0.977    N  239 0.971    H  248 0.950    C  241 0.942
   241  C   3.943        O  242 1.592    N  258 1.309    C  240 0.942
   242  O   1.951        C  241 1.592    N  258 0.187
   243  C   3.983        C  244 0.995    C  240 0.977    H  249 0.968    H  250 0.966
   244  C   3.994        C  245 1.010    C  246 1.009    C  243 0.995    H  251 0.965
   245  C   3.995        C  244 1.010    H  253 0.986    H  252 0.985    H  254 0.983
   246  C   3.995        C  244 1.009    H  255 0.986    H  257 0.985    H  256 0.985
   247  H   0.944        N  239 0.886
   248  H   0.995        C  240 0.950
   249  H   0.995        C  243 0.968
   250  H   0.995        C  243 0.966
   251  H   0.996        C  244 0.965
   252  H   0.998        C  245 0.985
   253  H   0.998        C  245 0.986
   254  H   0.999        C  245 0.983
   255  H   0.998        C  246 0.986
   256  H   0.999        C  246 0.985
   257  H   0.998        C  246 0.985
   258  N   3.474        C  241 1.309    C  259 0.978    H  266 0.915    O  242 0.187
   259  C   3.964        N  258 0.978    C  262 0.973    H  267 0.951    C  260 0.942
   260  C   3.944        O  261 1.638    N  277 1.281    C  259 0.942
   261  O   1.946        C  260 1.638    N  277 0.188
   262  C   3.982        C  263 0.992    C  259 0.973    H  269 0.970    H  268 0.970
   263  C   3.993        C  265 1.010    C  264 1.009    C  262 0.992    H  270 0.968
   264  C   3.994        C  263 1.009    H  272 0.986    H  273 0.986    H  271 0.986
   265  C   3.995        C  263 1.010    H  274 0.986    H  275 0.985    H  276 0.985
   266  H   0.953        N  258 0.915
   267  H   0.996        C  259 0.951
   268  H   0.995        C  262 0.970
   269  H   0.995        C  262 0.970
   270  H   0.999        C  263 0.968
   271  H   0.998        C  264 0.986
   272  H   0.998        C  264 0.986
   273  H   0.997        C  264 0.986
   274  H   0.998        C  265 0.986
   275  H   0.997        C  265 0.985
   276  H   0.999        C  265 0.985
   277  N   3.442        C  260 1.281    C  278 0.995    H  283 0.873    O  261 0.188
   278  C   3.969        N  277 0.995    C  281 0.966    H  284 0.943    C  279 0.934
   279  C   3.948        O  280 1.612    N  288 1.321    C  278 0.934
   280  O   1.927        C  279 1.612    N  288 0.195
   281  C   3.954        O  282 1.002    H  285 0.968    C  278 0.966    H  286 0.964
   282  O   1.993        C  281 1.002    H  287 0.816
   283  H   0.948        N  277 0.873
   284  H   0.994        C  278 0.943
   285  H   0.993        C  281 0.968
   286  H   0.996        C  281 0.964
   287  H   0.884        O  282 0.816
   288  N   3.476        C  279 1.321    C  289 0.980    H  295 0.887    O  280 0.195
   289  C   3.966        N  288 0.980    C  292 0.963    H  296 0.949    C  290 0.938
   290  C   3.946        O  291 1.616    N  304 1.292    C  289 0.938
   291  O   1.939        C  290 1.616    N  304 0.192
   292  C   3.990        C  293 1.011    C  294 1.008    H  297 0.964    C  289 0.963
   293  C   3.994        C  292 1.011    H  300 0.984    H  298 0.984    H  299 0.979
   294  C   3.993        C  292 1.008    H  303 0.985    H  302 0.982    H  301 0.982
   295  H   0.952        N  288 0.887
   296  H   0.996        C  289 0.949
   297  H   0.998        C  292 0.964
   298  H   0.998        C  293 0.984
   299  H   0.997        C  293 0.979
   300  H   0.999        C  293 0.984
   301  H   0.997        C  294 0.982
   302  H   0.997        C  294 0.982
   303  H   0.998        C  294 0.985
   304  N   3.515        C  290 1.292    C  310 0.973    C  305 0.970    O  291 0.192
   305  C   3.973        C  306 0.981    N  304 0.970    C  308 0.959    H  311 0.949
   306  C   3.901        O  307 1.894    C  305 0.981    H  457 0.953
   307  O   2.045        C  306 1.894
   308  C   3.984        C  309 1.002    H  312 0.975    H  313 0.974    C  305 0.959
   309  C   3.989        C  310 1.003    C  308 1.002    H  315 0.977    H  314 0.972
   310  C   3.961        C  309 1.003    N  304 0.973    H  316 0.964    H  317 0.963
   311  H   0.995        C  305 0.949
   312  H   0.996        C  308 0.975
   313  H   0.994        C  308 0.974
   314  H   0.993        C  309 0.972
   315  H   0.995        C  309 0.977
   316  H   0.996        C  310 0.964
   317  H   0.995        C  310 0.963
   318  N   2.995        C  319 1.011    H  458 0.953    H  323 0.952
   319  C   3.986        N  318 1.011    C  322 0.984    C  320 0.969    H  324 0.959
   320  C   3.890        O  321 1.897    C  319 0.969    H  459 0.955
   321  O   2.041        C  320 1.897
   322  C   3.990        C  319 0.984    H  327 0.984    H  325 0.981    H  326 0.978
   323  H   0.970        N  318 0.952
   324  H   0.997        C  319 0.959
   325  H   0.998        C  322 0.981
   326  H   0.996        C  322 0.978
   327  H   0.997        C  322 0.984
   328  N   3.001        C  329 1.008    H  460 0.955    H  336 0.953
   329  C   3.981        N  328 1.008    C  330 0.971    C  332 0.966    H  337 0.962
   330  C   3.881        O  331 1.882    C  329 0.971    H  461 0.955
   331  O   2.020        C  330 1.882
   332  C   3.988        C  333 0.993    H  338 0.971    C  329 0.966    H  339 0.965
   333  C   3.995        C  334 1.009    C  335 1.008    C  332 0.993    H  340 0.964
   334  C   3.994        C  333 1.009    H  341 0.986    H  342 0.985    H  343 0.984
   335  C   3.994        C  333 1.008    H  344 0.986    H  346 0.985    H  345 0.983
   336  H   0.973        N  328 0.953
   337  H   0.997        C  329 0.962
   338  H   0.995        C  332 0.971
   339  H   0.996        C  332 0.965
   340  H   1.000        C  333 0.964
   341  H   0.998        C  334 0.986
   342  H   0.999        C  334 0.985
   343  H   0.996        C  334 0.984
   344  H   0.998        C  335 0.986
   345  H   0.996        C  335 0.983
   346  H   0.998        C  335 0.985
   347  N   2.992        C  348 1.014    H  462 0.957    H  354 0.945
   348  C   3.984        N  347 1.014    H  355 0.963    C  351 0.960    C  349 0.939
   349  C   3.938        O  350 1.607    N  363 1.307    C  348 0.939
   350  O   1.951        C  349 1.607    N  363 0.191
   351  C   3.993        C  352 1.009    C  353 1.007    H  356 0.966    C  348 0.960
   352  C   3.995        C  351 1.009    H  359 0.986    H  358 0.985    H  357 0.983
   353  C   3.993        C  351 1.007    H  361 0.983    H  360 0.981    H  362 0.980
   354  H   0.970        N  347 0.945
   355  H   0.999        C  348 0.963
   356  H   0.998        C  351 0.966
   357  H   0.997        C  352 0.983
   358  H   0.999        C  352 0.985
   359  H   0.998        C  352 0.986
   360  H   0.996        C  353 0.981
   361  H   0.998        C  353 0.983
   362  H   0.998        C  353 0.980
   363  N   3.474        C  349 1.307    C  364 0.979    H  371 0.910    O  350 0.191
   364  C   3.967        N  363 0.979    C  365 0.978    C  367 0.963    H  372 0.944
   365  C   3.888        O  366 1.852    C  364 0.978    H  463 0.951
   366  O   2.056        C  365 1.852
   367  C   3.980        C  368 0.988    H  374 0.969    H  373 0.969    C  364 0.963
   368  C   3.993        C  370 1.011    C  369 1.005    C  367 0.988    H  375 0.965
   369  C   3.991        C  368 1.005    H  378 0.986    H  377 0.985    H  376 0.983
   370  C   3.995        C  368 1.011    H  380 0.986    H  379 0.984    H  381 0.980
   371  H   0.948        N  363 0.910
   372  H   0.994        C  364 0.944
   373  H   0.995        C  367 0.969
   374  H   0.995        C  367 0.969
   375  H   0.998        C  368 0.965
   376  H   0.995        C  369 0.983
   377  H   0.998        C  369 0.985
   378  H   0.998        C  369 0.986
   379  H   0.997        C  370 0.984
   380  H   0.999        C  370 0.986
   381  H   0.999        C  370 0.980
   382  N   2.993        C  383 1.005    H  464 0.956    H  390 0.956
   383  C   3.984        N  382 1.005    C  386 0.976    H  391 0.967    C  384 0.937
   384  C   3.938        O  385 1.646    N  394 1.279    C  383 0.937
   385  O   1.948        C  384 1.646    N  394 0.187
   386  C   3.984        C  383 0.976    H  392 0.975    H  393 0.972    C  387 0.900
   387  C   3.938        O  388 1.509    O  389 1.506    C  386 0.900
   388  O   1.801        C  387 1.509    O  389 0.220
   389  O   1.807        C  387 1.506    O  388 0.220
   390  H   0.977        N  382 0.956
   391  H   0.999        C  383 0.967
   392  H   0.999        C  386 0.975
   393  H   0.999        C  386 0.972
   394  N   3.444        C  384 1.279    C  395 0.984    H  402 0.904    O  385 0.187
   395  C   3.961        N  394 0.984    C  398 0.956    H  403 0.948    C  396 0.944
   396  C   3.948        O  397 1.635    N  411 1.286    C  395 0.944
   397  O   1.958        C  396 1.635    N  411 0.191
   398  C   3.985        C  399 1.009    H  405 0.972    H  404 0.967    C  395 0.956
   399  C   3.973        C  398 1.009    S  400 0.991    H  407 0.969    H  406 0.967
   400  S   2.090        C  401 1.010    C  399 0.991
   401  C   3.982        S  400 1.010    H  409 0.985    H  410 0.983    H  408 0.978
   402  H   0.955        N  394 0.904
   403  H   0.994        C  395 0.948
   404  H   0.995        C  398 0.967
   405  H   0.999        C  398 0.972
   406  H   0.996        C  399 0.967
   407  H   0.992        C  399 0.969
   408  H   0.998        C  401 0.978
   409  H   1.000        C  401 0.985
   410  H   0.998        C  401 0.983
   411  N   3.457        C  396 1.286    C  412 0.996    H  415 0.898    O  397 0.191
   412  C   3.966        N  411 0.996    H  416 0.960    H  417 0.954    C  413 0.945
   413  C   3.949        O  414 1.616    N  418 1.311    C  412 0.945
   414  O   1.981        C  413 1.616    N  418 0.190
   415  H   0.954        N  411 0.898
   416  H   0.992        C  412 0.960
   417  H   0.993        C  412 0.954
   418  N   3.470        C  413 1.311    C  419 0.974    H  426 0.901    O  414 0.190
   419  C   3.962        C  422 0.982    N  418 0.974    H  427 0.943    C  420 0.934
   420  C   3.950        O  421 1.666    N  437 1.273    C  419 0.934
   421  O   1.983        C  420 1.666    N  437 0.195
   422  C   3.988        C  423 0.996    C  419 0.982    H  428 0.972    H  429 0.968
   423  C   3.995        C  425 1.010    C  424 1.007    C  422 0.996    H  430 0.966
   424  C   3.995        C  423 1.007    H  432 0.986    H  433 0.986    H  431 0.986
   425  C   3.995        C  423 1.010    H  435 0.986    H  434 0.984    H  436 0.984
   426  H   0.950        N  418 0.901
   427  H   0.994        C  419 0.943
   428  H   0.997        C  422 0.972
   429  H   0.995        C  422 0.968
   430  H   1.000        C  423 0.966
   431  H   0.998        C  424 0.986
   432  H   0.998        C  424 0.986
   433  H   0.998        C  424 0.986
   434  H   0.998        C  425 0.984
   435  H   0.998        C  425 0.986
   436  H   0.999        C  425 0.984
   437  N   3.459        C  420 1.273    C  438 0.984    H  446 0.926    O  421 0.195
   438  C   3.964        N  437 0.984    C  439 0.971    C  441 0.954    H  447 0.951
   439  C   3.899        O  440 1.912    C  438 0.971    H  465 0.951
   440  O   2.048        C  439 1.912
   441  C   3.988        C  442 0.989    H  448 0.972    H  449 0.971    C  438 0.954
   442  C   3.991        C  441 0.989    H  451 0.965    C  443 0.964    H  450 0.962
   443  C   3.941        O  444 1.639    N  445 1.309    C  442 0.964
   444  O   1.939        C  443 1.639    N  445 0.200
   445  N   3.401        C  443 1.309    H  453 0.937    H  452 0.895    O  444 0.200
   446  H   0.960        N  437 0.926
   447  H   0.990        C  438 0.951
   448  H   0.997        C  441 0.972
   449  H   0.994        C  441 0.971
   450  H   0.994        C  442 0.962
   451  H   0.995        C  442 0.965
   452  H   0.948        N  445 0.895
   453  H   0.964        N  445 0.937
   454  H   0.968        N    1 0.953
   455  H   0.996        C    3 0.954
   456  H   0.967        N   20 0.954
   457  H   0.994        C  306 0.953
   458  H   0.963        N  318 0.953
   459  H   0.995        C  320 0.955
   460  H   0.965        N  328 0.955
   461  H   0.996        C  330 0.955
   462  H   0.968        N  347 0.957
   463  H   0.993        C  365 0.951
   464  H   0.965        N  382 0.956
   465  H   0.991        C  439 0.951
 
molecular dipole:
                 x           y           z       tot (Debye)
 q only:       84.403      28.501      41.383
   full:       81.093      26.653      39.624     239.205
molecular quadrupole (traceless):
                xx          xy          yy          xz          yz          zz
 q only:     5367.548    3940.315   -3206.660    4646.429    1550.047   -2160.889
  q+dip:     5133.091    3572.196   -3112.581    4357.975    1417.897   -2020.510
   full:     5135.942    3573.199   -3112.985    4360.281    1413.855   -2022.957


           -------------------------------------------------
          | TOTAL ENERGY             -675.379373389723 Eh   |
          | GRADIENT NORM               0.536343337325 Eh/α |
          | HOMO-LUMO GAP               1.185854942332 eV   |
           -------------------------------------------------

------------------------------------------------------------------------
 * finished run on 2019/05/31 at 04:13:01.354     
------------------------------------------------------------------------
 total:
 * wall-time:     0 d,  0 h,  0 min,  9.608 sec
 *  cpu-time:     0 d,  0 h,  0 min,  9.558 sec
 * ratio c/w:     0.995 speedup
 SCF:
 * wall-time:     0 d,  0 h,  0 min,  9.096 sec
 *  cpu-time:     0 d,  0 h,  0 min,  9.101 sec
 * ratio c/w:     1.001 speedup

