      -----------------------------------------------------------      
     |                   =====================                   |     
     |                           x T B                           |     
     |                   =====================                   |     
     |                         S. Grimme                         |     
     |          Mulliken Center for Theoretical Chemistry        |     
     |                    University of Bonn                     |     
     |                 Version 6.0.1 (SAW181210)                 |     
      -----------------------------------------------------------      

   This program is distributed in the hope that it will be useful,
   but WITHOUT ANY WARRANTY; without even the implied warranty of
   MERCHANTABILITY or FITNESS FOR A PARTICULAR PURPOSE.
   
   FOR NON-COMMERCIAL, ACADEMIA USE ONLY.
   
   Cite this work as:
   S. Grimme, C. Bannwarth, P. Shushkov, J. Comput. Theory Chem., 2017,
   13, 1989-2009.
   C. Bannwarth, S. Ehlert and S. Grimme., ChemRxiv, 2018, preprint.
   http://doi.org/10.26434/chemrxiv.7246238.v1
   
   for sTDA-xTB:
   S. Grimme and C. Bannwarth, J. Chem. Phys., 2016, 145, 054103.
   
   in the mass-spec context:
   V. Asgeirsson, C. Bauer and S. Grimme, Chem. Sci., 2017, 8, 4879.
   
   if GBSA is used:
   P. Shushkov, F. März and S. Grimme, unpublished.
   
   for ANC optimizer:
   S. Grimme, unpublished.
   Rational Function algorithm used in ANCopt:
   F. Eckert, P. Pulay, H.-J. Werner, J. Comput. Chem., 1997, 18, 1473.
   
   with help from (in alphabetical order)
   C. Bannwarth, F. Bohle, G. Brandenburg, E. Caldeweyher, M. Checinski,
   S. Dohm, S. Ehlert, S. Ehrlich, F. März, H. Neugebauer, J. Pisarek,
   P. Pracht, P. Shushkov, and S. Spicher.
   
 * started run on 2019/03/14 at 16:03:17.193     
========================================================================
 # omp threads = 1
========================================================================
number of atoms            : 405
number of electrons        : 1068
charge                     : 0
spin                       : .0
first test random number   : .0885

########################################################################
# WARNING! Please study the warnings concerning your input carefully
#  - XTBPATH is not set, using XTBHOME instead
########################################################################

           ------------------------------------------------- 
          |                 G F N 2 - x T B                 |
          | Geometry, Frequencies, Noncovalent interactions |
          |            JCTC 2018 parametrisation            |
           ------------------------------------------------- 
 
      method parameters     
 k(s)        :  1.8500
 k(p)        :  2.2300
 k(d)        :  2.2300
 k(f)        :  2.0000
 kEN (H0ij)  : -2.0000
 D4 a1       :  0.5200
 D4 a2       :  5.0000
 D4 s6       :  1.0000
 D4 s8       :  2.7000
 D4 s9       :  5.0000
 alphaj      :  2.0000

 Solvent             : h2o
 Using internal parameter file: .param_gbsa2_h2o
 Gsolv ref. state (COSMO-RS): gsolv [1 M gas/solution]
 temperature (mdtemp)       :    298.150000000000     
 dielectric constant        :    80.2000000000000     
 rho                        :    1.00000000000000     
 mass                       :    18.0000000000000     
 surface tension            :    15.5689454083859     
 probe radius               :   0.975313790000000     
 vdW radii scaling          :    1.00000000000000     
 Gshift (Eh)                :   1.857443126794793E-003
 c1                         :    1.55243817000000     
 soset                      :   0.130326360000000     
 HB correction              :  T

            Z     q(EN)     CN     RAES       Cart. coordinates
     1  N   5.0   -0.22    3.21    1.96    31.22698    22.96679    41.71780
     2  C   4.0    0.03    4.31    4.21    33.37955    24.42217    40.86490
     3  C   4.0    0.07    3.24    3.04    35.67033    22.75017    40.35607
     4  O   6.0   -0.31    1.16    1.80    37.21243    23.28706    38.71124
     5  C   4.0   -0.02    4.33    4.25    34.23049    26.48230    42.72576
     6  C   4.0   -0.05    4.20    3.99    31.99699    27.81178    44.00435
     7  C   4.0   -0.07    4.12    3.84    35.97149    28.35893    41.39168
     8  C   4.0   -0.08    4.00    3.63    30.16472    29.28086    42.34170
     9  H   1.0    0.08    1.03    1.43    30.83857    22.86813    43.58019
    10  H   1.0    0.04    1.06    1.44    32.83211    25.28434    39.06310
    11  H   1.0    0.04    1.06    1.44    35.28536    25.50757    44.21785
    12  H   1.0    0.04    1.04    1.43    30.91483    26.39016    45.02345
    13  H   1.0    0.04    1.03    1.43    32.79397    29.12574    45.37587
    14  H   1.0    0.04    1.00    1.43    36.56337    29.80555    42.71941
    15  H   1.0    0.06    1.00    1.43    37.64214    27.44115    40.62491
    16  H   1.0    0.04    1.00    1.43    34.98696    29.25122    39.82945
    17  H   1.0    0.04    1.00    1.43    28.57866    29.85767    43.51496
    18  H   1.0    0.04    1.00    1.43    31.05480    30.95572    41.55878
    19  H   1.0    0.04    1.00    1.43    29.40627    28.12980    40.82121
    20  N   5.0   -0.20    3.21    1.96    35.76275    20.96178    33.92459
    21  C   4.0    0.03    4.15    3.91    36.49359    22.87855    32.11823
    22  C   4.0    0.08    3.20    3.04    39.20209    22.55454    31.15901
    23  O   6.0   -0.29    1.15    1.80    39.78910    23.16535    29.00818
    24  C   4.0   -0.07    4.13    3.86    36.26749    25.46416    33.34416
    25  H   1.0    0.11    1.06    1.44    35.61706    21.49389    35.75303
    26  H   1.0    0.04    1.05    1.44    35.24643    22.69454    30.47109
    27  H   1.0    0.04    1.00    1.43    36.81288    26.94634    32.03445
    28  H   1.0    0.04    1.01    1.43    34.32752    25.72087    33.95321
    29  H   1.0    0.06    1.01    1.43    37.48718    25.52835    34.99258
    30  N   5.0   -0.22    3.21    1.96    55.98972    35.24156    26.97011
    31  C   4.0    0.03    4.23    4.06    54.08762    36.10712    28.74083
    32  C   4.0    0.08    3.20    3.04    55.35609    37.47217    30.95893
    33  O   6.0   -0.31    1.13    1.80    54.55050    39.47393    31.79625
    34  C   4.0   -0.04    4.32    4.24    52.45707    33.87724    29.59702
    35  C   4.0   -0.01    3.57    3.15    50.20228    34.76491    31.06397
    36  C   4.0   -0.04    3.48    3.11    48.15256    35.78450    29.77575
    37  C   4.0   -0.04    3.46    3.10    50.09255    34.60374    33.67823
    38  C   4.0   -0.05    3.38    3.07    46.03262    36.59063    31.06522
    39  C   4.0   -0.04    3.38    3.07    47.97231    35.42013    34.97052
    40  C   4.0   -0.04    3.37    3.07    45.93388    36.41097    33.67298
    41  H   1.0    0.08    1.02    1.43    55.86565    33.47367    26.25450
    42  H   1.0    0.04    1.05    1.44    52.86840    37.52477    27.83411
    43  H   1.0    0.04    1.03    1.43    51.79984    32.88845    27.90208
    44  H   1.0    0.04    1.03    1.43    53.61834    32.57013    30.68477
    45  H   1.0    0.04    1.03    1.43    48.22985    35.89880    27.73846
    46  H   1.0    0.05    1.03    1.43    51.67403    33.82119    34.69182
    47  H   1.0    0.05    1.03    1.43    44.45099    37.35356    30.02824
    48  H   1.0    0.05    1.03    1.43    47.88197    35.27605    37.00169
    49  H   1.0    0.05    1.03    1.43    44.27782    37.02969    34.68814
    50  N   5.0   -0.21    3.23    1.96    57.61045    44.26666    29.77767
    51  C   4.0    0.03    4.32    4.24    55.64010    46.11969    29.44194
    52  C   4.0    0.15    3.41    3.08    54.22699    46.75690    31.88379
    53  O   6.0   -0.30    1.25    1.80    53.34098    48.89955    32.18623
    54  C   4.0   -0.05    4.25    4.10    53.85680    45.32394    27.29845
    55  C   4.0   -0.05    4.18    3.96    52.43838    47.57223    26.16505
    56  C   4.0   -0.05    4.20    3.99    54.24722    49.42601    24.88800
    57  C   4.0   -0.03    4.13    3.86    52.88268    51.78540    23.96413
    58  N   5.0   -0.12    4.02    2.92    54.73089    53.89383    23.73493
    59  H   1.0    0.09    1.03    1.43    57.35051    42.49459    29.11236
    60  H   1.0    0.04    1.07    1.44    56.60296    47.88633    28.94039
    61  H   1.0    0.04    1.03    1.43    54.97384    44.40916    25.82422
    62  H   1.0    0.05    1.03    1.43    52.53510    43.92097    28.02759
    63  H   1.0    0.04    1.02    1.43    51.06335    46.89571    24.78606
    64  H   1.0    0.05    1.03    1.43    51.38728    48.53643    27.65225
    65  H   1.0    0.04    1.04    1.43    55.65693    50.02093    26.26279
    66  H   1.0    0.04    1.03    1.43    55.18449    48.46885    23.32726
    67  H   1.0    0.05    1.02    1.43    51.97613    51.44120    22.14946
    68  H   1.0    0.05    1.02    1.43    51.43079    52.34175    25.31412
    69  H   1.0    0.06    1.02    1.43    53.84570    55.51333    23.12842
    70  H   1.0    0.06    1.02    1.43    55.50151    54.21704    25.50649
    71  H   1.0    0.06    1.02    1.43    56.14136    53.41241    22.48198
    72  N   5.0   -0.14    3.45    2.05    54.08450    44.97404    33.64345
    73  C   4.0    0.03    4.28    4.17    52.74334    45.32961    36.03515
    74  C   4.0    0.09    3.26    3.05    53.44482    47.90031    37.18333
    75  O   6.0   -0.30    1.14    1.80    51.86373    49.49972    37.73156
    76  C   4.0   -0.05    4.31    4.21    53.38622    43.10162    37.78467
    77  C   4.0   -0.02    4.14    3.89    51.88019    42.82877    40.26824
    78  C   4.0   -0.07    4.09    3.78    52.60253    44.79805    42.25685
    79  C   4.0   -0.08    4.10    3.79    49.02784    42.86218    39.81409
    80  H   1.0    0.10    1.08    1.44    54.82243    43.23906    33.28995
    81  H   1.0    0.05    1.05    1.44    50.70639    45.39815    35.65235
    82  H   1.0    0.05    1.03    1.43    53.10278    41.38144    36.67627
    83  H   1.0    0.04    1.03    1.43    55.39619    43.20605    38.22498
    84  H   1.0    0.04    1.06    1.44    52.38693    40.96576    41.01757
    85  H   1.0    0.04    1.00    1.43    51.59028    44.44817    44.01197
    86  H   1.0    0.04    1.00    1.43    54.61750    44.74275    42.64891
    87  H   1.0    0.06    1.01    1.43    52.09518    46.68346    41.62644
    88  H   1.0    0.04    1.00    1.43    47.99409    42.36482    41.52117
    89  H   1.0    0.04    1.00    1.43    48.42394    44.74492    39.25736
    90  H   1.0    0.04    1.00    1.43    48.50052    41.52867    38.34004
    91  N   5.0   -0.18    3.22    1.96    50.38512    54.19985    34.70034
    92  C   4.0    0.03    4.29    4.18    47.70055    54.73922    34.54221
    93  C   4.0    0.08    3.22    3.04    46.97153    56.83654    36.39843
    94  O   6.0   -0.28    1.13    1.80    47.87699    56.95514    38.52967
    95  C   4.0   -0.02    4.26    4.12    46.17950    52.29911    34.98564
    96  C   4.0   -0.06    4.13    3.87    46.14194    51.50698    37.75471
    97  C   4.0   -0.08    4.11    3.81    43.47481    52.59172    34.02639
    98  H   1.0    0.12    1.04    1.44    50.94098    52.78635    35.86515
    99  H   1.0    0.04    1.05    1.44    47.36396    55.41043    32.61433
   100  H   1.0    0.05    1.06    1.44    47.14171    50.83608    33.88024
   101  H   1.0    0.04    1.00    1.43    45.14122    49.72343    37.94279
   102  H   1.0    0.07    1.01    1.43    48.03529    51.27992    38.50851
   103  H   1.0    0.05    1.01    1.43    45.16526    52.92102    38.87494
   104  H   1.0    0.04    1.00    1.43    42.48317    50.79703    34.16254
   105  H   1.0    0.04    1.00    1.43    42.47310    53.95449    35.19369
   106  H   1.0    0.04    1.00    1.43    43.42989    53.20471    32.06563
   107  N   5.0   -0.21    3.14    1.94    30.78434    42.40365    48.73112
   108  C   4.0    0.00    4.16    3.91    32.57477    40.80229    47.43573
   109  C   4.0    0.15    3.35    3.06    31.51741    39.77697    44.96494
   110  O   6.0   -0.33    1.36    1.80    32.78098    39.82130    43.00970
   111  H   1.0    0.08    1.02    1.43    30.49066    41.96124    50.56819
   112  H   1.0    0.04    1.02    1.43    34.30153    41.85121    46.99202
   113  H   1.0    0.04    1.03    1.43    33.03826    39.25045    48.70724
   114  N   5.0   -0.15    3.47    2.06    29.20254    38.80777    45.05328
   115  C   4.0    0.03    4.34    4.28    27.94743    37.90544    42.78478
   116  C   4.0    0.16    3.47    3.10    28.09256    39.89219    40.66747
   117  O   6.0   -0.30    1.23    1.80    28.69902    39.34176    38.50702
   118  C   4.0   -0.07    4.11    3.83    25.19452    37.28670    43.34934
   119  H   1.0    0.08    1.06    1.44    28.26436    38.69727    46.72264
   120  H   1.0    0.05    1.05    1.44    28.92384    36.21517    42.07814
   121  H   1.0    0.05    1.00    1.43    24.23648    36.75644    41.61323
   122  H   1.0    0.04    1.00    1.43    25.07527    35.72694    44.68077
   123  H   1.0    0.05    1.00    1.43    24.24760    38.92122    44.15693
   124  N   5.0   -0.14    3.51    2.08    27.41787    42.22129    41.36742
   125  C   4.0    0.03    4.41    4.40    27.45208    44.32735    39.61271
   126  C   4.0    0.16    3.46    3.10    30.14406    44.70668    38.57396
   127  O   6.0   -0.28    1.26    1.80    30.63183    44.68142    36.32038
   128  C   4.0   -0.04    4.28    4.16    26.53298    46.73851    40.90962
   129  C   4.0   -0.03    4.17    3.94    23.78023    46.59336    41.76044
   130  C   4.0    0.25    3.10    3.02    23.08044    48.92558    43.39770
   131  O   6.0   -0.28    1.17    1.80    24.36776    49.31870    45.34593
   132  O   6.0   -0.27    1.16    1.80    21.30757    50.28051    42.66347
   133  H   1.0    0.08    1.07    1.44    27.02349    42.58868    43.19896
   134  H   1.0    0.06    1.05    1.44    26.23498    43.87744    37.99433
   135  H   1.0    0.06    1.03    1.43    27.72517    47.10156    42.55146
   136  H   1.0    0.06    1.03    1.43    26.75630    48.30458    39.58410
   137  H   1.0    0.05    1.02    1.43    22.50467    46.55450    40.14092
   138  H   1.0    0.05    1.02    1.43    23.44864    44.90796    42.90591
   139  N   5.0   -0.14    3.52    2.09    31.87236    45.07705    40.37528
   140  C   4.0    0.03    4.42    4.41    34.51512    45.55678    39.82587
   141  C   4.0    0.16    3.49    3.11    35.47629    43.69859    37.82957
   142  O   6.0   -0.31    1.25    1.80    36.75867    44.36406    36.02275
   143  C   4.0   -0.05    4.35    4.30    36.04425    45.36752    42.27904
   144  C   4.0   -0.02    4.16    3.93    38.73342    46.44404    42.10969
   145  C   4.0   -0.08    4.10    3.81    38.70744    49.30420    41.70987
   146  C   4.0   -0.08    4.10    3.81    40.16084    45.82540    44.54598
   147  H   1.0    0.08    1.07    1.44    31.32900    45.04626    42.21167
   148  H   1.0    0.05    1.05    1.44    34.69024    47.45001    39.00400
   149  H   1.0    0.04    1.03    1.43    35.00845    46.38915    43.74448
   150  H   1.0    0.05    1.03    1.43    36.11222    43.38025    42.83293
   151  H   1.0    0.04    1.05    1.44    39.69810    45.55002    40.51298
   152  H   1.0    0.04    1.00    1.43    40.62401    50.03733    41.66526
   153  H   1.0    0.04    1.00    1.43    37.80915    49.81860    39.93728
   154  H   1.0    0.04    1.00    1.43    37.69452    50.22420    43.23895
   155  H   1.0    0.04    1.00    1.43    42.06169    46.59286    44.47262
   156  H   1.0    0.04    1.00    1.43    39.19316    46.64324    46.16305
   157  H   1.0    0.04    1.00    1.43    40.29564    43.79842    44.84870
   158  N   5.0   -0.13    3.53    2.10    34.87550    41.29837    38.31129
   159  C   4.0    0.04    4.46    4.48    35.66273    39.22591    36.70310
   160  C   4.0    0.16    3.52    3.12    35.01535    39.82222    33.95390
   161  O   6.0   -0.31    1.28    1.80    36.58460    39.82156    32.25390
   162  C   4.0    0.05    4.25    4.09    34.36545    36.74318    37.53956
   163  O   6.0   -0.26    2.12    1.84    35.04884    36.09067    40.02480
   164  C   4.0   -0.07    4.10    3.81    35.13826    34.58215    35.80052
   165  H   1.0    0.11    1.12    1.45    33.90152    40.89725    39.91025
   166  H   1.0    0.05    1.05    1.44    37.71616    38.97717    36.84498
   167  H   1.0    0.06    1.04    1.43    32.30793    37.02168    37.42501
   168  H   1.0    0.15    1.06    1.44    34.32599    37.30746    41.19262
   169  H   1.0    0.04    1.00    1.43    34.34094    32.83451    36.51227
   170  H   1.0    0.04    1.01    1.43    34.44640    34.92426    33.90394
   171  H   1.0    0.04    1.00    1.43    37.17994    34.38421    35.74523
   172  N   5.0   -0.14    3.53    2.10    32.56399    40.26632    33.56007
   173  C   4.0    0.04    4.35    4.30    31.56703    40.67117    31.04021
   174  C   4.0    0.17    3.50    3.11    33.20090    42.59272    29.63745
   175  O   6.0   -0.32    1.31    1.80    33.96760    42.20190    27.48403
   176  C   4.0   -0.07    4.11    3.82    28.82053    41.51550    31.20789
   177  H   1.0    0.11    1.08    1.44    31.33972    40.32481    35.02598
   178  H   1.0    0.05    1.05    1.44    31.69740    38.89629    29.97292
   179  H   1.0    0.05    1.00    1.43    27.99147    41.59312    29.33381
   180  H   1.0    0.05    1.00    1.43    27.78732    40.13734    32.32784
   181  H   1.0    0.07    1.00    1.43    28.71262    43.33839    32.14852
   182  N   5.0   -0.12    3.51    2.09    33.63910    44.73090    30.87841
   183  C   4.0    0.05    4.44    4.45    35.08551    46.76199    29.74840
   184  C   4.0    0.16    3.50    3.11    37.53326    45.81115    28.50851
   185  O   6.0   -0.30    1.25    1.80    37.99115    46.15179    26.26526
   186  C   4.0   -0.04    4.34    4.28    35.75735    48.71972    31.75953
   187  C   4.0    0.15    3.23    3.04    33.41244    50.10611    32.68499
   188  O   6.0   -0.28    1.23    1.80    31.34383    49.10054    32.87364
   189  N   5.0   -0.19    3.19    1.95    33.80012    52.54513    33.23070
   190  H   1.0    0.12    1.08    1.44    32.85509    45.03232    32.60289
   191  H   1.0    0.06    1.05    1.44    33.97021    47.64138    28.23508
   192  H   1.0    0.06    1.04    1.43    36.60972    47.73004    33.36029
   193  H   1.0    0.04    1.03    1.43    37.12955    50.05148    30.99703
   194  H   1.0    0.10    1.03    1.43    32.35393    53.59052    33.90458
   195  H   1.0    0.08    1.03    1.43    35.47816    53.38268    32.94350
   196  N   5.0   -0.14    3.54    2.11    39.18121    44.76196    30.10532
   197  C   4.0    0.03    4.52    4.56    41.68110    44.07964    29.21437
   198  C   4.0    0.16    3.49    3.11    41.46183    42.22797    27.00927
   199  O   6.0   -0.32    1.25    1.80    42.87856    42.24844    25.16683
   200  C   4.0   -0.02    4.26    4.13    43.30172    42.88190    31.30873
   201  C   4.0   -0.07    4.12    3.83    46.07405    42.83030    30.49105
   202  C   4.0   -0.07    4.12    3.85    43.04445    44.30922    33.80542
   203  H   1.0    0.10    1.07    1.44    38.65308    44.30529    31.88445
   204  H   1.0    0.05    1.05    1.44    42.60726    45.79512    28.50150
   205  H   1.0    0.04    1.06    1.44    42.61892    40.94851    31.56830
   206  H   1.0    0.04    1.00    1.43    47.16939    41.70851    31.81618
   207  H   1.0    0.05    1.00    1.43    46.30061    42.01573    28.61867
   208  H   1.0    0.04    1.00    1.43    46.84623    44.73462    30.44097
   209  H   1.0    0.04    1.00    1.43    44.42422    43.58432    35.14197
   210  H   1.0    0.04    1.00    1.43    43.40077    46.30981    33.50982
   211  H   1.0    0.06    1.00    1.43    41.18489    44.08665    34.65216
   212  N   5.0   -0.14    3.51    2.09    39.65477    40.48972    27.29331
   213  C   4.0    0.04    4.43    4.42    39.29967    38.54000    25.41538
   214  C   4.0    0.16    3.48    3.10    38.46122    39.62636    22.86955
   215  O   6.0   -0.32    1.35    1.80    39.60248    39.05869    20.92543
   216  C   4.0   -0.05    4.37    4.33    37.34712    36.60098    26.27275
   217  C   4.0   -0.02    4.17    3.94    38.04830    35.05992    28.62908
   218  C   4.0   -0.08    4.12    3.84    35.85950    33.26508    29.20523
   219  C   4.0   -0.08    4.10    3.81    40.46090    33.51483    28.28299
   220  H   1.0    0.11    1.09    1.44    38.50817    40.48948    28.82722
   221  H   1.0    0.05    1.06    1.44    41.13256    37.63462    25.06006
   222  H   1.0    0.05    1.03    1.43    35.60090    37.63408    26.63463
   223  H   1.0    0.04    1.03    1.43    37.03600    35.29935    24.70627
   224  H   1.0    0.06    1.06    1.44    38.29212    36.34994    30.22422
   225  H   1.0    0.04    1.00    1.43    36.26988    32.16089    30.88497
   226  H   1.0    0.04    1.00    1.43    34.10365    34.28913    29.50613
   227  H   1.0    0.04    1.00    1.43    35.58669    31.96442    27.63869
   228  H   1.0    0.04    1.00    1.43    40.93861    32.55371    30.03508
   229  H   1.0    0.04    1.00    1.43    40.20034    32.09115    26.82452
   230  H   1.0    0.04    1.00    1.43    42.06453    34.68622    27.76974
   231  N   5.0   -0.14    3.50    2.08    36.41124    41.07671    22.82912
   232  C   4.0    0.04    4.45    4.46    35.46802    41.97873    20.42415
   233  C   4.0    0.15    3.44    3.09    37.14928    43.98273    19.17038
   234  O   6.0   -0.30    1.24    1.80    36.75936    44.61650    16.98562
   235  C   4.0   -0.04    4.26    4.13    32.76475    42.97241    20.58524
   236  C   4.0   -0.04    4.19    3.99    32.55675    45.32395    22.25403
   237  C   4.0   -0.01    4.21    4.02    30.10743    46.79011    21.73485
   238  N   5.0   -0.14    3.40    2.02    29.76662    48.83659    23.52939
   239  C   4.0    0.10    3.35    3.06    28.92981    48.53912    25.87897
   240  N   5.0   -0.18    3.26    1.97    28.19396    46.29074    26.72822
   241  N   5.0   -0.18    3.24    1.97    28.71590    50.55604    27.37129
   242  H   1.0    0.11    1.10    1.44    35.53914    41.58931    24.45903
   243  H   1.0    0.06    1.06    1.44    35.52594    40.37476    19.10695
   244  H   1.0    0.05    1.03    1.43    32.19947    43.42677    18.65590
   245  H   1.0    0.04    1.03    1.43    31.56032    41.45687    21.28404
   246  H   1.0    0.07    1.03    1.43    32.65379    44.76683    24.23486
   247  H   1.0    0.06    1.03    1.43    34.16769    46.56499    21.90216
   248  H   1.0    0.05    1.03    1.43    30.17120    47.61882    19.84984
   249  H   1.0    0.04    1.02    1.43    28.46125    45.54934    21.80896
   250  H   1.0    0.08    1.07    1.44    30.53918    50.51444    23.04441
   251  H   1.0    0.08    1.03    1.43    28.41742    44.70891    25.69430
   252  H   1.0    0.09    1.03    1.43    27.50544    46.12206    28.49596
   253  H   1.0    0.09    1.03    1.43    29.16815    52.28532    26.72877
   254  H   1.0    0.10    1.03    1.43    28.19399    50.38734    29.19784
   255  N   5.0   -0.13    3.52    2.09    39.01863    44.89494    20.60166
   256  C   4.0    0.04    4.43    4.43    40.75204    46.78213    19.66228
   257  C   4.0    0.15    3.42    3.08    43.10961    45.59511    18.49247
   258  O   6.0   -0.28    1.23    1.80    44.13499    46.50506    16.63830
   259  C   4.0   -0.02    4.27    4.14    41.50542    48.58782    21.76451
   260  C   4.0    0.26    3.10    3.02    42.60192    51.10491    20.65016
   261  O   6.0   -0.27    1.17    1.80    41.25657    52.23538    19.08939
   262  O   6.0   -0.28    1.16    1.80    44.70044    51.77151    21.47412
   263  H   1.0    0.11    1.09    1.44    39.05744    44.51486    22.47347
   264  H   1.0    0.08    1.06    1.44    39.81894    47.84978    18.14666
   265  H   1.0    0.06    1.03    1.43    39.83420    49.05922    22.87865
   266  H   1.0    0.06    1.03    1.43    42.90819    47.71530    22.99409
   267  N   5.0   -0.14    3.47    2.06    43.96293    43.49095    19.64821
   268  C   4.0    0.03    4.43    4.43    46.23769    42.23990    18.80382
   269  C   4.0    0.14    3.46    3.10    45.84953    39.44197    18.19079
   270  O   6.0   -0.30    1.25    1.80    46.87455    38.42432    16.39343
   271  C   4.0   -0.04    4.32    4.24    48.40380    42.41982    20.73727
   272  C   4.0   -0.04    4.09    3.78    50.85810    41.53113    19.50857
   273  S   6.0   -0.05    2.46    3.10    53.17769    40.30600    21.72435
   274  C   4.0   -0.07    3.90    3.46    51.72207    37.28800    22.30935
   275  H   1.0    0.11    1.08    1.44    43.13211    42.92861    21.27363
   276  H   1.0    0.07    1.07    1.44    46.79944    43.21254    17.06461
   277  H   1.0    0.05    1.03    1.43    48.56347    44.37702    21.36332
   278  H   1.0    0.05    1.03    1.43    47.89114    41.28085    22.38219
   279  H   1.0    0.06    1.09    1.44    50.48968    39.99524    18.18589
   280  H   1.0    0.05    1.07    1.44    51.75382    43.08064    18.50565
   281  H   1.0    0.04    1.05    1.44    52.85178    36.22375    23.63750
   282  H   1.0    0.04    1.04    1.43    49.84712    37.55602    23.09716
   283  H   1.0    0.05    1.04    1.43    51.56868    36.22559    20.56029
   284  N   5.0   -0.14    3.43    2.03    44.48215    38.14374    19.88607
   285  C   4.0    0.02    4.28    4.15    43.95472    35.49435    19.48623
   286  C   4.0    0.16    3.34    3.06    42.62216    34.96415    16.95815
   287  O   6.0   -0.30    1.24    1.80    43.14602    33.12038    15.68063
   288  H   1.0    0.10    1.08    1.44    43.50971    39.08595    21.22889
   289  H   1.0    0.05    1.02    1.43    45.73049    34.43558    19.52120
   290  H   1.0    0.04    1.03    1.43    42.74252    34.81529    21.00579
   291  N   5.0   -0.14    3.49    2.07    40.74899    36.59343    16.47543
   292  C   4.0    0.03    4.37    4.33    39.36221    36.78206    14.11234
   293  C   4.0    0.16    3.42    3.09    38.26430    34.20601    13.32149
   294  O   6.0   -0.29    1.25    1.80    38.52135    33.34506    11.20752
   295  C   4.0   -0.03    4.37    4.33    40.96114    37.82056    11.92893
   296  C   4.0   -0.02    4.18    3.95    42.18724    40.39554    12.40639
   297  C   4.0   -0.07    4.12    3.83    43.90749    41.02833    10.17791
   298  C   4.0   -0.06    4.11    3.82    40.24505    42.49908    12.72549
   299  H   1.0    0.11    1.12    1.45    40.53401    38.01392    17.74156
   300  H   1.0    0.04    1.05    1.44    37.78032    38.06753    14.46542
   301  H   1.0    0.07    1.03    1.43    42.42973    36.43762    11.49657
   302  H   1.0    0.05    1.03    1.43    39.74831    37.95221    10.26798
   303  H   1.0    0.06    1.06    1.44    43.34363    40.28476    14.11540
   304  H   1.0    0.05    1.00    1.43    44.83956    42.83271    10.48859
   305  H   1.0    0.05    1.00    1.43    45.34842    39.58609     9.92572
   306  H   1.0    0.05    1.00    1.43    42.78902    41.15493     8.45900
   307  H   1.0    0.07    1.00    1.43    41.18680    44.29113    13.09397
   308  H   1.0    0.05    1.00    1.43    39.12207    42.70559    11.01811
   309  H   1.0    0.07    1.01    1.43    38.97564    42.16322    14.30057
   310  N   5.0   -0.13    3.47    2.06    36.86847    33.04011    15.10779
   311  C   4.0    0.03    4.33    4.25    35.90275    30.51998    14.71178
   312  C   4.0    0.08    3.24    3.04    33.07754    30.41664    15.22367
   313  O   6.0   -0.31    1.19    1.80    32.08329    31.54104    16.98107
   314  C   4.0   -0.04    4.30    4.19    37.16047    28.62785    16.51941
   315  C   4.0   -0.03    4.23    4.07    39.93664    28.19113    15.87396
   316  C   4.0    0.15    3.22    3.04    41.23227    26.75637    17.99801
   317  O   6.0   -0.29    1.21    1.80    40.41625    24.77568    18.85898
   318  N   5.0   -0.18    3.19    1.95    43.32513    27.88816    18.87437
   319  H   1.0    0.09    1.06    1.44    36.78133    33.73778    16.87902
   320  H   1.0    0.06    1.07    1.44    36.30411    30.03375    12.74435
   321  H   1.0    0.05    1.03    1.43    37.01751    29.39286    18.43077
   322  H   1.0    0.05    1.03    1.43    36.16386    26.82586    16.47750
   323  H   1.0    0.05    1.03    1.43    40.08709    27.08633    14.14143
   324  H   1.0    0.07    1.06    1.44    40.89642    29.98383    15.57377
   325  H   1.0    0.10    1.03    1.43    43.95254    29.52234    18.12464
   326  H   1.0    0.10    1.03    1.43    44.30462    27.11297    20.31506
   327  N   5.0   -0.20    3.24    1.97    30.33765    26.12422    17.84768
   328  C   4.0    0.03    4.29    4.18    30.04853    25.20627    20.41755
   329  C   4.0    0.15    3.42    3.09    29.85789    27.32998    22.39744
   330  O   6.0   -0.32    1.29    1.80    28.98949    26.88516    24.49901
   331  C   4.0   -0.04    4.31    4.21    32.18528    23.37661    21.11178
   332  C   4.0   -0.03    4.05    3.72    34.80847    24.59651    21.15367
   333  S   6.0    0.01    2.51    3.10    36.52593    24.13676    24.10517
   334  C   4.0   -0.06    3.89    3.45    34.61469    26.01390    26.24856
   335  H   1.0    0.08    1.03    1.43    31.70591    25.32677    16.78774
   336  H   1.0    0.05    1.05    1.44    28.26167    24.15324    20.50859
   337  H   1.0    0.05    1.05    1.44    31.74840    22.59191    22.96679
   338  H   1.0    0.04    1.03    1.43    32.15230    21.80355    19.78046
   339  H   1.0    0.06    1.09    1.44    36.08324    23.75865    19.77343
   340  H   1.0    0.05    1.07    1.44    34.72755    26.62564    20.81495
   341  H   1.0    0.05    1.06    1.44    35.68239    26.04706    27.99115
   342  H   1.0    0.04    1.04    1.43    34.42658    27.90913    25.49487
   343  H   1.0    0.05    1.03    1.43    32.76726    25.17279    26.55446
   344  N   5.0   -0.15    3.45    2.05    30.71184    29.62048    21.77706
   345  C   4.0    0.04    4.24    4.08    30.47411    31.70888    23.56223
   346  C   4.0    0.10    3.23    3.04    27.70221    31.99225    24.39678
   347  O   6.0   -0.31    1.12    1.80    27.06578    32.35683    26.58172
   348  C   4.0   -0.07    4.09    3.78    31.52004    34.13522    22.41299
   349  H   1.0    0.11    1.11    1.45    31.21551    30.05064    19.97413
   350  H   1.0    0.05    1.05    1.44    31.55827    31.23527    25.26403
   351  H   1.0    0.05    1.00    1.43    31.38009    35.65394    23.78389
   352  H   1.0    0.05    1.00    1.43    33.49900    33.85697    21.93464
   353  H   1.0    0.06    1.00    1.43    30.52120    34.65425    20.69743
   354  N   5.0   -0.20    3.24    1.97    24.91506    26.57326    28.29840
   355  C   4.0    0.03    4.35    4.30    25.19140    26.88477    31.00371
   356  C   4.0    0.15    3.47    3.10    23.00382    28.47019    32.00044
   357  O   6.0   -0.29    1.25    1.80    21.74698    27.84788    33.85911
   358  C   4.0   -0.05    4.36    4.31    27.70591    28.11010    31.69768
   359  C   4.0   -0.02    4.20    4.00    27.99070    28.41513    34.56825
   360  C   4.0   -0.07    4.12    3.83    27.65248    25.89284    35.93106
   361  C   4.0   -0.08    4.11    3.82    30.55326    29.58936    35.15595
   362  H   1.0    0.12    1.05    1.44    26.35911    27.05507    27.13760
   363  H   1.0    0.05    1.06    1.44    25.02567    25.02547    31.89597
   364  H   1.0    0.04    1.03    1.43    29.23350    26.92846    30.97441
   365  H   1.0    0.06    1.03    1.43    27.83096    29.94660    30.76617
   366  H   1.0    0.05    1.06    1.44    26.52965    29.70151    35.24686
   367  H   1.0    0.04    1.00    1.43    28.07331    26.06528    37.93366
   368  H   1.0    0.05    1.00    1.43    25.71225    25.22729    35.79720
   369  H   1.0    0.04    1.00    1.43    28.88981    24.45177    35.14784
   370  H   1.0    0.04    1.00    1.43    30.78044    29.82176    37.17932
   371  H   1.0    0.03    1.01    1.43    32.05721    28.38577    34.45756
   372  H   1.0    0.04    1.00    1.43    30.73105    31.41969    34.24970
   373  N   5.0   -0.14    3.48    2.06    22.60184    30.61714    30.76007
   374  C   4.0    0.04    4.32    4.24    20.59521    32.33368    31.48883
   375  C   4.0    0.10    3.25    3.04    18.09228    30.92720    31.93172
   376  O   6.0   -0.27    1.11    1.80    16.78364    31.39679    33.81025
   377  C   4.0   -0.04    4.27    4.14    20.24886    34.39915    29.50302
   378  C   4.0   -0.03    4.22    4.04    22.50810    36.20942    29.40755
   379  C   4.0    0.15    3.22    3.04    22.10889    38.21559    27.38669
   380  O   6.0   -0.28    1.20    1.80    21.69232    37.69013    25.17575
   381  N   5.0   -0.19    3.18    1.95    22.35776    40.60142    28.20767
   382  H   1.0    0.10    1.07    1.44    23.69976    31.05593    29.25554
   383  H   1.0    0.06    1.05    1.44    21.10334    33.19724    33.30416
   384  H   1.0    0.06    1.03    1.43    19.96815    33.49996    27.67126
   385  H   1.0    0.05    1.03    1.43    18.53302    35.43946    29.97231
   386  H   1.0    0.04    1.03    1.43    22.79288    37.08259    31.24943
   387  H   1.0    0.06    1.03    1.43    24.21742    35.17470    28.88787
   388  H   1.0    0.08    1.03    1.43    22.57796    40.97734    30.05763
   389  H   1.0    0.10    1.03    1.43    22.05189    42.04341    26.99853
   390  H   1.0    0.09    1.07    1.44    29.80607    23.59715    41.02770
   391  H   1.0    0.06    1.05    1.44    35.93871    21.18013    41.37294
   392  H   1.0    0.09    1.07    1.44    34.23346    20.34409    33.50949
   393  H   1.0    0.06    1.05    1.44    40.52732    21.83280    32.29652
   394  H   1.0    0.09    1.08    1.44    55.99232    36.25095    25.60129
   395  H   1.0    0.05    1.05    1.44    56.89293    36.73033    31.77063
   396  H   1.0    0.09    1.07    1.44    59.02985    44.80149    29.00836
   397  H   1.0    0.06    1.05    1.44    55.25644    48.32528    37.51277
   398  H   1.0    0.10    1.07    1.44    50.96863    53.76636    33.16275
   399  H   1.0    0.05    1.04    1.44    45.72438    58.16052    35.88584
   400  H   1.0    0.09    1.07    1.44    31.33444    44.01265    48.69846
   401  H   1.0    0.05    1.05    1.44    31.95031    29.39806    14.09988
   402  H   1.0    0.10    1.07    1.44    28.89200    25.87090    16.98833
   403  H   1.0    0.06    1.05    1.44    26.31450    31.87935    23.11905
   404  H   1.0    0.10    1.07    1.44    24.62361    24.93595    27.94229
   405  H   1.0    0.06    1.04    1.43    17.51090    29.62110    30.69593

  Z AO/shell   Hii/eV     exponent
  1     Wed Apr 25 08:07:45 CEST 2018   EN: 2.200 GM2: 0.406  GM3: 0.0800  RAES: 1.40
     1s    -10.707211    1.230000
  6     Wed Apr 25 08:07:45 CEST 2018   EN: 2.550 GM2: 0.538  GM3: 0.1500  RAES: 3.00
     2s    -13.970922    2.096432
     2p    -10.063292    1.800000
  7     Wed Apr 25 08:07:45 CEST 2018   EN: 3.040 GM2: 0.461  GM3:-0.0640  RAES: 1.90
     2s    -16.686243    2.339881
     2p    -12.523956    2.014332
  8     Wed Apr 25 08:07:45 CEST 2018   EN: 3.440 GM2: 0.452  GM3:-0.0517  RAES: 1.80
     2s    -20.229985    2.439742
     2p    -15.503117    2.137023
 16     Tue Apr 24 11:44:34 CEST 2018   EN: 2.580 GM2: 0.340  GM3:-0.0502  RAES: 3.10
     3s    -20.029654    1.981333
     3p    -11.377694    2.025643
     3d     -0.420282    1.702555
 no old-style atom pair restraining (fixing) potential

molecular fragmentation (1/2 indicates fragments):
111111111111111111122222222222222222222222222222222222222222222222222222
222222222222222222222222222222222222222222222222222222222222222222222222
222222222222222222222222222222222222222222222222222222222222222222222222
222222222222222222222222222222222222222222222222222222222222222222222222
222222222222222222222222222222222222222222222222222222222222222222222222
222222222222222222222222222221122222222222222
# atoms in fragment 1/2:    21   384
 fragment masses (1/2) :      115.17     2586.18
CMA distance (Bohr)    :  19.272
constraining FC (au)   :  0.0500
           ------------------------------------------------- 
          |        Self-Consistent Charge Iterations        |
           ------------------------------------------------- 

 Ncao       : 978
 Nao        : 976
 Nshell     : 594
 Nel        : 1068
 T(el)      :   500.0
 intcut     :    35.0
 scfconv/Eh :  0.100E-06
   qconv/e  :  0.100E-04
 intneglect :  0.100E-08
 broydamp   :      0.400
 iter      E             dE          RMSdq      gap      omega  full diag
   1   -608.4403147 -0.608440E+03  0.452E+00    2.93       0.0  T
   2   -609.8976927 -0.145738E+01  0.211E+00    1.51       1.0  T
   3   -609.9881832 -0.904905E-01  0.122E+00    1.64       1.0  T
   4   -610.0845899 -0.964068E-01  0.243E-01    1.11       1.0  T
   5   -610.0896549 -0.506499E-02  0.118E-01    1.24       1.0  T
   6   -610.0904178 -0.762905E-03  0.484E-02    1.24       1.0  T
   7   -610.0906234 -0.205596E-03  0.201E-02    1.24       1.0  T
   8   -610.0906443 -0.208972E-04  0.957E-03    1.24       1.0  T
   9   -610.0906543 -0.994062E-05  0.425E-03    1.24       1.2  T
  10   -610.0906557 -0.143896E-05  0.184E-03    1.24       2.7  T
  11   -610.0906560 -0.256276E-06  0.844E-04    1.24       5.9  T
  12   -610.0906560 -0.428410E-07  0.379E-04    1.24      13.1  T
  13   -610.0906560 -0.135210E-07  0.207E-04    1.24      24.0  T
  14   -610.0906560 -0.265516E-08  0.929E-05    1.24      53.5  T
  15   -610.0906560 -0.974069E-09  0.399E-05    1.24     124.5  T
speedup  1.00
cpu  time for SCC    6.05 s
wall time for SCC    6.04 s

   *** convergence criteria satisfied after 15 iterations ***

          eigenvalues
 #    :         522        523        524        525        526        527        528        529
 occ. :        2.000      2.000      2.000      2.000      2.000      2.000      2.000      2.000
 eps  :       -10.254    -10.234    -10.186    -10.105    -10.050     -9.896     -9.813     -9.809
 #    :         530        531        532        533        534        535        536        537
 occ. :        2.000      2.000      2.000      2.000      2.000      0.000      0.000      0.000
 eps  :        -9.807     -9.755     -9.721     -9.585     -9.350     -8.115     -7.826     -7.809
 #    :         538        539        540        541        542        543        544        545
 occ. :        0.000      0.000      0.000      0.000      0.000      0.000      0.000      0.000
 eps  :        -7.779     -7.696     -7.589     -7.492     -7.428     -6.850     -6.671     -6.606


   #   Z            q   n(s)   n(p)   n(d)      C6AA      α(0)
   1   7 N     -0.389  1.310  4.079  0.000    30.077     8.145
   2   6 C      0.036  1.057  2.907  0.000    19.975     6.366
   3   6 C      0.195  1.092  2.713  0.000    23.834     7.996
   4   8 O     -0.375  1.755  4.620  0.000    21.189     6.172
   5   6 C     -0.017  1.065  2.952  0.000    20.849     6.494
   6   6 C     -0.059  1.049  3.010  0.000    21.636     6.622
   7   6 C     -0.116  1.038  3.078  0.000    22.785     6.806
   8   6 C     -0.107  1.034  3.073  0.000    22.607     6.781
   9   1 H      0.162  0.838  0.000  0.000     1.322     1.801
  10   1 H      0.064  0.936  0.000  0.000     2.153     2.295
  11   1 H      0.028  0.972  0.000  0.000     2.612     2.528
  12   1 H      0.036  0.964  0.000  0.000     2.497     2.471
  13   1 H      0.044  0.956  0.000  0.000     2.390     2.418
  14   1 H      0.049  0.951  0.000  0.000     2.326     2.385
  15   1 H      0.040  0.960  0.000  0.000     2.443     2.444
  16   1 H      0.052  0.948  0.000  0.000     2.301     2.372
  17   1 H      0.040  0.960  0.000  0.000     2.452     2.449
  18   1 H      0.043  0.957  0.000  0.000     2.413     2.429
  19   1 H      0.036  0.964  0.000  0.000     2.497     2.471
  20   7 N     -0.399  1.314  4.084  0.000    30.331     8.179
  21   6 C      0.047  1.050  2.903  0.000    19.806     6.340
  22   6 C      0.199  1.091  2.710  0.000    23.759     7.983
  23   8 O     -0.373  1.759  4.614  0.000    21.142     6.165
  24   6 C     -0.117  1.042  3.075  0.000    22.780     6.804
  25   1 H      0.165  0.835  0.000  0.000     1.302     1.788
  26   1 H      0.049  0.951  0.000  0.000     2.330     2.387
  27   1 H      0.045  0.955  0.000  0.000     2.383     2.414
  28   1 H      0.058  0.942  0.000  0.000     2.221     2.331
  29   1 H      0.073  0.927  0.000  0.000     2.055     2.242
  30   7 N     -0.387  1.307  4.079  0.000    30.011     8.136
  31   6 C      0.043  1.056  2.901  0.000    19.872     6.350
  32   6 C      0.197  1.094  2.709  0.000    23.799     7.989
  33   8 O     -0.365  1.747  4.617  0.000    20.985     6.142
  34   6 C     -0.072  1.056  3.016  0.000    21.873     6.657
  35   6 C      0.009  1.082  2.910  0.000    27.816     8.651
  36   6 C     -0.040  1.079  2.961  0.000    28.997     8.831
  37   6 C     -0.041  1.080  2.961  0.000    29.011     8.833
  38   6 C     -0.031  1.078  2.952  0.000    28.768     8.796
  39   6 C     -0.033  1.080  2.953  0.000    28.821     8.804
  40   6 C     -0.035  1.079  2.957  0.000    28.883     8.813
  41   1 H      0.169  0.831  0.000  0.000     1.278     1.771
  42   1 H      0.049  0.951  0.000  0.000     2.334     2.389
  43   1 H      0.060  0.940  0.000  0.000     2.196     2.317
  44   1 H      0.059  0.941  0.000  0.000     2.215     2.328
  45   1 H      0.031  0.969  0.000  0.000     2.572     2.508
  46   1 H      0.036  0.964  0.000  0.000     2.507     2.476
  47   1 H      0.032  0.968  0.000  0.000     2.560     2.502
  48   1 H      0.039  0.961  0.000  0.000     2.460     2.452
  49   1 H      0.036  0.964  0.000  0.000     2.503     2.474
  50   7 N     -0.392  1.306  4.086  0.000    30.162     8.157
  51   6 C      0.026  1.060  2.914  0.000    20.152     6.394
  52   6 C      0.265  1.050  2.685  0.000    22.532     7.773
  53   8 O     -0.511  1.755  4.757  0.000    24.037     6.573
  54   6 C     -0.072  1.057  3.015  0.000    21.881     6.659
  55   6 C     -0.066  1.048  3.018  0.000    21.754     6.640
  56   6 C     -0.093  1.055  3.039  0.000    22.279     6.720
  57   6 C     -0.044  1.057  2.987  0.000    21.455     6.612
  58   7 N     -0.151  1.234  3.916  0.000    24.249     7.314
  59   1 H      0.151  0.849  0.000  0.000     1.393     1.849
  60   1 H      0.061  0.939  0.000  0.000     2.190     2.314
  61   1 H      0.061  0.939  0.000  0.000     2.189     2.314
  62   1 H      0.041  0.959  0.000  0.000     2.435     2.440
  63   1 H      0.038  0.962  0.000  0.000     2.481     2.463
  64   1 H      0.048  0.952  0.000  0.000     2.350     2.397
  65   1 H      0.078  0.922  0.000  0.000     2.003     2.213
  66   1 H      0.079  0.921  0.000  0.000     1.986     2.204
  67   1 H      0.104  0.896  0.000  0.000     1.747     2.067
  68   1 H      0.106  0.894  0.000  0.000     1.733     2.059
  69   1 H      0.300  0.700  0.000  0.000     0.713     1.323
  70   1 H      0.302  0.698  0.000  0.000     0.708     1.318
  71   1 H      0.304  0.696  0.000  0.000     0.701     1.312
  72   7 N     -0.167  1.248  3.919  0.000    24.616     7.369
  73   6 C      0.031  1.061  2.908  0.000    20.065     6.380
  74   6 C      0.218  1.081  2.701  0.000    23.393     7.921
  75   8 O     -0.378  1.752  4.626  0.000    21.240     6.179
  76   6 C     -0.081  1.063  3.018  0.000    22.041     6.684
  77   6 C     -0.013  1.059  2.954  0.000    20.773     6.483
  78   6 C     -0.115  1.039  3.076  0.000    22.763     6.803
  79   6 C     -0.116  1.039  3.077  0.000    22.770     6.804
  80   1 H      0.231  0.769  0.000  0.000     0.962     1.537
  81   1 H      0.076  0.924  0.000  0.000     2.020     2.222
  82   1 H      0.070  0.930  0.000  0.000     2.084     2.257
  83   1 H      0.061  0.939  0.000  0.000     2.187     2.313
  84   1 H      0.048  0.952  0.000  0.000     2.348     2.396
  85   1 H      0.044  0.956  0.000  0.000     2.396     2.420
  86   1 H      0.039  0.961  0.000  0.000     2.467     2.456
  87   1 H      0.033  0.967  0.000  0.000     2.537     2.491
  88   1 H      0.044  0.956  0.000  0.000     2.396     2.421
  89   1 H      0.041  0.959  0.000  0.000     2.441     2.443
  90   1 H      0.041  0.959  0.000  0.000     2.432     2.439
  91   7 N     -0.385  1.312  4.073  0.000    29.970     8.131
  92   6 C      0.037  1.059  2.904  0.000    19.967     6.365
  93   6 C      0.202  1.087  2.711  0.000    23.707     7.974
  94   8 O     -0.371  1.761  4.610  0.000    21.116     6.161
  95   6 C     -0.011  1.065  2.947  0.000    20.745     6.478
  96   6 C     -0.110  1.035  3.075  0.000    22.663     6.788
  97   6 C     -0.122  1.043  3.079  0.000    22.886     6.821
  98   1 H      0.169  0.831  0.000  0.000     1.279     1.772
  99   1 H      0.045  0.955  0.000  0.000     2.381     2.413
 100   1 H      0.043  0.957  0.000  0.000     2.414     2.430
 101   1 H      0.042  0.958  0.000  0.000     2.421     2.433
 102   1 H      0.060  0.940  0.000  0.000     2.203     2.321
 103   1 H      0.028  0.972  0.000  0.000     2.615     2.529
 104   1 H      0.047  0.953  0.000  0.000     2.363     2.404
 105   1 H      0.040  0.960  0.000  0.000     2.443     2.444
 106   1 H      0.040  0.960  0.000  0.000     2.451     2.448
 107   7 N     -0.394  1.314  4.080  0.000    30.198     8.161
 108   6 C     -0.016  1.044  2.971  0.000    20.941     6.530
 109   6 C      0.267  1.048  2.685  0.000    22.490     7.766
 110   8 O     -0.509  1.735  4.774  0.000    23.989     6.567
 111   1 H      0.172  0.828  0.000  0.000     1.259     1.758
 112   1 H      0.054  0.946  0.000  0.000     2.265     2.354
 113   1 H      0.072  0.928  0.000  0.000     2.067     2.248
 114   7 N     -0.166  1.246  3.919  0.000    24.588     7.365
 115   6 C      0.018  1.061  2.921  0.000    20.274     6.411
 116   6 C      0.277  1.041  2.682  0.000    22.315     7.736
 117   8 O     -0.475  1.737  4.738  0.000    23.234     6.463
 118   6 C     -0.136  1.043  3.093  0.000    23.172     6.863
 119   1 H      0.231  0.769  0.000  0.000     0.963     1.537
 120   1 H      0.086  0.914  0.000  0.000     1.919     2.167
 121   1 H      0.075  0.925  0.000  0.000     2.029     2.228
 122   1 H      0.082  0.918  0.000  0.000     1.960     2.189
 123   1 H      0.060  0.940  0.000  0.000     2.193     2.316
 124   7 N     -0.177  1.241  3.936  0.000    24.825     7.400
 125   6 C      0.017  1.066  2.917  0.000    20.295     6.415
 126   6 C      0.272  1.042  2.686  0.000    22.406     7.751
 127   8 O     -0.456  1.730  4.726  0.000    22.832     6.406
 128   6 C     -0.054  1.051  3.003  0.000    21.533     6.606
 129   6 C     -0.095  1.067  3.028  0.000    22.313     6.726
 130   6 C      0.371  1.024  2.605  0.000    20.712     7.448
 131   8 O     -0.657  1.775  4.881  0.000    27.560     7.039
 132   8 O     -0.649  1.777  4.872  0.000    27.350     7.012
 133   1 H      0.200  0.800  0.000  0.000     1.106     1.648
 134   1 H      0.084  0.916  0.000  0.000     1.943     2.180
 135   1 H      0.044  0.956  0.000  0.000     2.390     2.418
 136   1 H      0.046  0.954  0.000  0.000     2.368     2.407
 137   1 H      0.031  0.969  0.000  0.000     2.571     2.507
 138   1 H      0.028  0.972  0.000  0.000     2.611     2.527
 139   7 N     -0.182  1.245  3.937  0.000    24.934     7.416
 140   6 C      0.021  1.062  2.916  0.000    20.220     6.403
 141   6 C      0.282  1.039  2.679  0.000    22.230     7.721
 142   8 O     -0.491  1.734  4.757  0.000    23.588     6.512
 143   6 C     -0.077  1.061  3.015  0.000    21.954     6.670
 144   6 C     -0.010  1.056  2.954  0.000    20.716     6.474
 145   6 C     -0.119  1.040  3.079  0.000    22.825     6.812
 146   6 C     -0.119  1.042  3.078  0.000    22.840     6.814
 147   1 H      0.193  0.807  0.000  0.000     1.144     1.675
 148   1 H      0.068  0.932  0.000  0.000     2.107     2.270
 149   1 H      0.051  0.949  0.000  0.000     2.304     2.374
 150   1 H      0.057  0.943  0.000  0.000     2.236     2.338
 151   1 H      0.037  0.963  0.000  0.000     2.483     2.464
 152   1 H      0.051  0.949  0.000  0.000     2.303     2.373
 153   1 H      0.037  0.963  0.000  0.000     2.489     2.467
 154   1 H      0.043  0.957  0.000  0.000     2.407     2.426
 155   1 H      0.053  0.947  0.000  0.000     2.286     2.365
 156   1 H      0.042  0.958  0.000  0.000     2.420     2.433
 157   1 H      0.042  0.958  0.000  0.000     2.425     2.435
 158   7 N     -0.190  1.248  3.942  0.000    25.126     7.445
 159   6 C      0.009  1.068  2.923  0.000    20.425     6.435
 160   6 C      0.275  1.041  2.684  0.000    22.346     7.741
 161   8 O     -0.479  1.731  4.748  0.000    23.324     6.475
 162   6 C      0.112  1.047  2.841  0.000    18.844     6.198
 163   8 O     -0.472  1.715  4.757  0.000    22.295     6.374
 164   6 C     -0.131  1.041  3.090  0.000    23.072     6.849
 165   1 H      0.224  0.776  0.000  0.000     0.993     1.561
 166   1 H      0.072  0.928  0.000  0.000     2.065     2.247
 167   1 H      0.035  0.965  0.000  0.000     2.513     2.479
 168   1 H      0.322  0.678  0.000  0.000     0.659     1.275
 169   1 H      0.073  0.927  0.000  0.000     2.057     2.243
 170   1 H      0.055  0.945  0.000  0.000     2.258     2.350
 171   1 H      0.062  0.938  0.000  0.000     2.171     2.304
 172   7 N     -0.175  1.243  3.931  0.000    24.783     7.394
 173   6 C      0.019  1.060  2.922  0.000    20.267     6.410
 174   6 C      0.273  1.041  2.686  0.000    22.390     7.749
 175   8 O     -0.486  1.727  4.759  0.000    23.484     6.497
 176   6 C     -0.152  1.047  3.105  0.000    23.501     6.912
 177   1 H      0.215  0.785  0.000  0.000     1.033     1.592
 178   1 H      0.078  0.922  0.000  0.000     1.996     2.209
 179   1 H      0.087  0.913  0.000  0.000     1.910     2.161
 180   1 H      0.079  0.921  0.000  0.000     1.990     2.206
 181   1 H      0.081  0.919  0.000  0.000     1.966     2.192
 182   7 N     -0.162  1.239  3.922  0.000    24.502     7.352
 183   6 C      0.024  1.059  2.917  0.000    20.170     6.394
 184   6 C      0.276  1.040  2.684  0.000    22.332     7.739
 185   8 O     -0.489  1.748  4.741  0.000    23.532     6.504
 186   6 C     -0.119  1.063  3.056  0.000    22.764     6.791
 187   6 C      0.284  1.035  2.682  0.000    22.196     7.714
 188   8 O     -0.477  1.742  4.735  0.000    23.278     6.469
 189   7 N     -0.286  1.265  4.022  0.000    27.385     7.772
 190   1 H      0.232  0.768  0.000  0.000     0.955     1.531
 191   1 H      0.077  0.923  0.000  0.000     2.015     2.220
 192   1 H      0.100  0.900  0.000  0.000     1.782     2.087
 193   1 H      0.075  0.925  0.000  0.000     2.032     2.229
 194   1 H      0.238  0.762  0.000  0.000     0.932     1.513
 195   1 H      0.229  0.771  0.000  0.000     0.969     1.542
 196   7 N     -0.179  1.244  3.934  0.000    24.867     7.406
 197   6 C      0.020  1.064  2.916  0.000    20.232     6.403
 198   6 C      0.278  1.043  2.679  0.000    22.298     7.733
 199   8 O     -0.513  1.745  4.768  0.000    24.071     6.578
 200   6 C     -0.017  1.062  2.956  0.000    20.850     6.494
 201   6 C     -0.113  1.038  3.075  0.000    22.721     6.796
 202   6 C     -0.121  1.040  3.082  0.000    22.884     6.821
 203   1 H      0.223  0.777  0.000  0.000     0.996     1.563
 204   1 H      0.067  0.933  0.000  0.000     2.120     2.277
 205   1 H      0.047  0.953  0.000  0.000     2.361     2.403
 206   1 H      0.058  0.942  0.000  0.000     2.227     2.334
 207   1 H      0.040  0.960  0.000  0.000     2.453     2.449
 208   1 H      0.048  0.952  0.000  0.000     2.345     2.395
 209   1 H      0.062  0.938  0.000  0.000     2.176     2.307
 210   1 H      0.048  0.952  0.000  0.000     2.343     2.394
 211   1 H      0.052  0.948  0.000  0.000     2.301     2.372
 212   7 N     -0.179  1.245  3.934  0.000    24.871     7.407
 213   6 C      0.024  1.058  2.918  0.000    20.175     6.395
 214   6 C      0.262  1.047  2.690  0.000    22.579     7.782
 215   8 O     -0.507  1.738  4.769  0.000    23.949     6.561
 216   6 C     -0.085  1.062  3.024  0.000    22.115     6.693
 217   6 C     -0.017  1.057  2.960  0.000    20.842     6.494
 218   6 C     -0.117  1.043  3.074  0.000    22.779     6.804
 219   6 C     -0.119  1.040  3.079  0.000    22.826     6.812
 220   1 H      0.227  0.773  0.000  0.000     0.978     1.549
 221   1 H      0.067  0.933  0.000  0.000     2.114     2.274
 222   1 H      0.067  0.933  0.000  0.000     2.119     2.276
 223   1 H      0.062  0.938  0.000  0.000     2.178     2.308
 224   1 H      0.052  0.948  0.000  0.000     2.298     2.371
 225   1 H      0.049  0.951  0.000  0.000     2.331     2.388
 226   1 H      0.037  0.963  0.000  0.000     2.485     2.465
 227   1 H      0.043  0.957  0.000  0.000     2.409     2.427
 228   1 H      0.046  0.954  0.000  0.000     2.376     2.410
 229   1 H      0.045  0.955  0.000  0.000     2.384     2.415
 230   1 H      0.036  0.964  0.000  0.000     2.505     2.475
 231   7 N     -0.178  1.249  3.929  0.000    24.861     7.405
 232   6 C      0.016  1.061  2.923  0.000    20.302     6.415
 233   6 C      0.278  1.038  2.684  0.000    22.296     7.732
 234   8 O     -0.489  1.751  4.737  0.000    23.532     6.504
 235   6 C     -0.087  1.056  3.031  0.000    22.150     6.700
 236   6 C     -0.087  1.052  3.034  0.000    22.151     6.701
 237   6 C     -0.033  1.056  2.977  0.000    21.238     6.575
 238   7 N     -0.141  1.211  3.930  0.000    24.051     7.284
 239   6 C      0.227  1.019  2.753  0.000    23.218     7.889
 240   7 N     -0.234  1.218  4.017  0.000    26.135     7.593
 241   7 N     -0.252  1.229  4.023  0.000    26.560     7.654
 242   1 H      0.247  0.753  0.000  0.000     0.894     1.482
 243   1 H      0.080  0.920  0.000  0.000     1.974     2.197
 244   1 H      0.080  0.920  0.000  0.000     1.979     2.200
 245   1 H      0.086  0.914  0.000  0.000     1.917     2.165
 246   1 H      0.075  0.925  0.000  0.000     2.029     2.228
 247   1 H      0.045  0.955  0.000  0.000     2.380     2.413
 248   1 H      0.091  0.909  0.000  0.000     1.869     2.138
 249   1 H      0.099  0.901  0.000  0.000     1.797     2.096
 250   1 H      0.232  0.768  0.000  0.000     0.956     1.531
 251   1 H      0.241  0.759  0.000  0.000     0.918     1.501
 252   1 H      0.243  0.757  0.000  0.000     0.909     1.494
 253   1 H      0.249  0.751  0.000  0.000     0.886     1.474
 254   1 H      0.250  0.750  0.000  0.000     0.883     1.472
 255   7 N     -0.191  1.249  3.941  0.000    25.140     7.447
 256   6 C      0.042  1.053  2.906  0.000    19.878     6.348
 257   6 C      0.282  1.044  2.673  0.000    22.224     7.720
 258   8 O     -0.499  1.752  4.747  0.000    23.770     6.537
 259   6 C     -0.098  1.071  3.028  0.000    22.373     6.734
 260   6 C      0.373  1.022  2.605  0.000    20.677     7.441
 261   8 O     -0.641  1.774  4.867  0.000    27.140     6.985
 262   8 O     -0.629  1.759  4.869  0.000    26.835     6.945
 263   1 H      0.210  0.790  0.000  0.000     1.056     1.609
 264   1 H      0.063  0.937  0.000  0.000     2.160     2.298
 265   1 H      0.049  0.951  0.000  0.000     2.329     2.386
 266   1 H      0.025  0.975  0.000  0.000     2.659     2.550
 267   7 N     -0.193  1.247  3.946  0.000    25.183     7.453
 268   6 C      0.022  1.058  2.920  0.000    20.200     6.399
 269   6 C      0.274  1.041  2.684  0.000    22.363     7.744
 270   8 O     -0.480  1.749  4.731  0.000    23.349     6.479
 271   6 C     -0.062  1.054  3.008  0.000    21.668     6.624
 272   6 C     -0.012  1.064  2.949  0.000    20.801     6.494
 273  16 S     -0.193  1.904  4.245  0.045   149.254    20.562
 274   6 C     -0.059  1.048  3.011  0.000    21.702     6.645
 275   1 H      0.212  0.788  0.000  0.000     1.046     1.602
 276   1 H      0.073  0.927  0.000  0.000     2.049     2.238
 277   1 H      0.056  0.944  0.000  0.000     2.245     2.343
 278   1 H      0.057  0.943  0.000  0.000     2.237     2.339
 279   1 H      0.049  0.951  0.000  0.000     2.334     2.389
 280   1 H      0.057  0.943  0.000  0.000     2.229     2.335
 281   1 H      0.076  0.924  0.000  0.000     2.024     2.225
 282   1 H      0.045  0.955  0.000  0.000     2.379     2.412
 283   1 H      0.046  0.954  0.000  0.000     2.373     2.409
 284   7 N     -0.173  1.240  3.933  0.000    24.743     7.388
 285   6 C     -0.032  1.053  2.978  0.000    21.199     6.566
 286   6 C      0.282  1.037  2.681  0.000    22.225     7.719
 287   8 O     -0.479  1.742  4.737  0.000    23.321     6.475
 288   1 H      0.216  0.784  0.000  0.000     1.030     1.590
 289   1 H      0.089  0.911  0.000  0.000     1.890     2.150
 290   1 H      0.096  0.904  0.000  0.000     1.820     2.110
 291   7 N     -0.191  1.248  3.943  0.000    25.139     7.447
 292   6 C      0.020  1.063  2.917  0.000    20.257     6.410
 293   6 C      0.280  1.042  2.678  0.000    22.258     7.726
 294   8 O     -0.465  1.745  4.720  0.000    23.015     6.432
 295   6 C     -0.066  1.053  3.013  0.000    21.759     6.640
 296   6 C     -0.003  1.053  2.951  0.000    20.605     6.456
 297   6 C     -0.111  1.042  3.069  0.000    22.669     6.788
 298   6 C     -0.108  1.038  3.070  0.000    22.621     6.781
 299   1 H      0.225  0.775  0.000  0.000     0.987     1.557
 300   1 H      0.067  0.933  0.000  0.000     2.115     2.274
 301   1 H      0.052  0.948  0.000  0.000     2.298     2.371
 302   1 H      0.058  0.942  0.000  0.000     2.221     2.331
 303   1 H      0.013  0.987  0.000  0.000     2.839     2.635
 304   1 H      0.036  0.964  0.000  0.000     2.508     2.476
 305   1 H      0.038  0.962  0.000  0.000     2.472     2.459
 306   1 H      0.044  0.956  0.000  0.000     2.391     2.418
 307   1 H      0.026  0.974  0.000  0.000     2.639     2.540
 308   1 H      0.043  0.957  0.000  0.000     2.408     2.427
 309   1 H      0.037  0.963  0.000  0.000     2.495     2.470
 310   7 N     -0.167  1.235  3.932  0.000    24.608     7.368
 311   6 C      0.019  1.057  2.924  0.000    20.265     6.410
 312   6 C      0.193  1.089  2.718  0.000    23.878     8.003
 313   8 O     -0.340  1.734  4.606  0.000    20.517     6.073
 314   6 C     -0.057  1.054  3.003  0.000    21.592     6.614
 315   6 C     -0.106  1.058  3.048  0.000    22.520     6.755
 316   6 C      0.291  1.036  2.672  0.000    22.060     7.690
 317   8 O     -0.494  1.752  4.742  0.000    23.642     6.519
 318   7 N     -0.288  1.266  4.022  0.000    27.435     7.779
 319   1 H      0.204  0.796  0.000  0.000     1.085     1.632
 320   1 H      0.100  0.900  0.000  0.000     1.785     2.089
 321   1 H      0.060  0.940  0.000  0.000     2.198     2.318
 322   1 H      0.069  0.931  0.000  0.000     2.093     2.263
 323   1 H      0.071  0.929  0.000  0.000     2.078     2.254
 324   1 H      0.078  0.922  0.000  0.000     1.998     2.211
 325   1 H      0.218  0.782  0.000  0.000     1.021     1.583
 326   1 H      0.230  0.770  0.000  0.000     0.964     1.538
 327   7 N     -0.393  1.308  4.085  0.000    30.169     8.158
 328   6 C      0.031  1.060  2.910  0.000    20.076     6.383
 329   6 C      0.268  1.050  2.682  0.000    22.469     7.762
 330   8 O     -0.500  1.745  4.755  0.000    23.780     6.538
 331   6 C     -0.062  1.054  3.008  0.000    21.671     6.625
 332   6 C     -0.017  1.064  2.952  0.000    20.877     6.507
 333  16 S     -0.229  1.931  4.240  0.058   150.847    20.672
 334   6 C     -0.055  1.050  3.005  0.000    21.639     6.636
 335   1 H      0.155  0.845  0.000  0.000     1.367     1.831
 336   1 H      0.038  0.962  0.000  0.000     2.473     2.459
 337   1 H      0.052  0.948  0.000  0.000     2.296     2.370
 338   1 H      0.047  0.953  0.000  0.000     2.363     2.404
 339   1 H      0.063  0.937  0.000  0.000     2.159     2.298
 340   1 H      0.049  0.951  0.000  0.000     2.333     2.389
 341   1 H      0.070  0.930  0.000  0.000     2.083     2.257
 342   1 H      0.050  0.950  0.000  0.000     2.323     2.383
 343   1 H      0.050  0.950  0.000  0.000     2.314     2.379
 344   7 N     -0.178  1.253  3.925  0.000    24.852     7.404
 345   6 C      0.031  1.058  2.911  0.000    20.061     6.378
 346   6 C      0.207  1.088  2.705  0.000    23.602     7.956
 347   8 O     -0.357  1.741  4.616  0.000    20.847     6.122
 348   6 C     -0.134  1.043  3.091  0.000    23.140     6.859
 349   1 H      0.234  0.766  0.000  0.000     0.948     1.525
 350   1 H      0.083  0.917  0.000  0.000     1.946     2.181
 351   1 H      0.078  0.922  0.000  0.000     1.997     2.210
 352   1 H      0.070  0.930  0.000  0.000     2.082     2.256
 353   1 H      0.084  0.916  0.000  0.000     1.938     2.177
 354   7 N     -0.406  1.310  4.096  0.000    30.543     8.208
 355   6 C      0.037  1.054  2.909  0.000    19.967     6.364
 356   6 C      0.272  1.049  2.680  0.000    22.406     7.752
 357   8 O     -0.519  1.761  4.758  0.000    24.201     6.596
 358   6 C     -0.076  1.061  3.014  0.000    21.939     6.667
 359   6 C     -0.010  1.055  2.956  0.000    20.725     6.475
 360   6 C     -0.105  1.038  3.067  0.000    22.558     6.772
 361   6 C     -0.122  1.041  3.081  0.000    22.889     6.821
 362   1 H      0.177  0.823  0.000  0.000     1.229     1.737
 363   1 H      0.031  0.969  0.000  0.000     2.578     2.511
 364   1 H      0.047  0.953  0.000  0.000     2.358     2.401
 365   1 H      0.057  0.943  0.000  0.000     2.239     2.340
 366   1 H      0.025  0.975  0.000  0.000     2.655     2.548
 367   1 H      0.032  0.968  0.000  0.000     2.552     2.498
 368   1 H      0.032  0.968  0.000  0.000     2.563     2.504
 369   1 H      0.035  0.965  0.000  0.000     2.516     2.481
 370   1 H      0.045  0.955  0.000  0.000     2.379     2.412
 371   1 H      0.044  0.956  0.000  0.000     2.393     2.419
 372   1 H      0.048  0.952  0.000  0.000     2.344     2.394
 373   7 N     -0.164  1.240  3.924  0.000    24.556     7.360
 374   6 C      0.028  1.060  2.912  0.000    20.117     6.387
 375   6 C      0.210  1.085  2.705  0.000    23.558     7.949
 376   8 O     -0.380  1.763  4.617  0.000    21.295     6.187
 377   6 C     -0.065  1.051  3.014  0.000    21.741     6.638
 378   6 C     -0.109  1.062  3.048  0.000    22.585     6.765
 379   6 C      0.289  1.036  2.675  0.000    22.099     7.697
 380   8 O     -0.497  1.755  4.742  0.000    23.722     6.530
 381   7 N     -0.286  1.265  4.020  0.000    27.376     7.771
 382   1 H      0.228  0.772  0.000  0.000     0.972     1.544
 383   1 H      0.084  0.916  0.000  0.000     1.936     2.176
 384   1 H      0.074  0.926  0.000  0.000     2.041     2.234
 385   1 H      0.063  0.937  0.000  0.000     2.169     2.303
 386   1 H      0.069  0.931  0.000  0.000     2.101     2.267
 387   1 H      0.094  0.906  0.000  0.000     1.838     2.120
 388   1 H      0.225  0.775  0.000  0.000     0.987     1.556
 389   1 H      0.235  0.765  0.000  0.000     0.942     1.521
 390   1 H      0.178  0.822  0.000  0.000     1.226     1.734
 391   1 H      0.069  0.931  0.000  0.000     2.097     2.264
 392   1 H      0.178  0.822  0.000  0.000     1.223     1.732
 393   1 H      0.071  0.929  0.000  0.000     2.076     2.253
 394   1 H      0.179  0.821  0.000  0.000     1.221     1.731
 395   1 H      0.080  0.920  0.000  0.000     1.982     2.201
 396   1 H      0.190  0.810  0.000  0.000     1.161     1.688
 397   1 H      0.065  0.935  0.000  0.000     2.139     2.287
 398   1 H      0.182  0.818  0.000  0.000     1.200     1.716
 399   1 H      0.061  0.939  0.000  0.000     2.181     2.309
 400   1 H      0.178  0.822  0.000  0.000     1.224     1.733
 401   1 H      0.090  0.910  0.000  0.000     1.881     2.145
 402   1 H      0.186  0.814  0.000  0.000     1.180     1.701
 403   1 H      0.072  0.928  0.000  0.000     2.060     2.244
 404   1 H      0.172  0.828  0.000  0.000     1.261     1.759
 405   1 H      0.071  0.929  0.000  0.000     2.073     2.251

 Mol. C6AA /au·bohr⁶  :    1471741.165600
 Mol. C8AA /au·bohr⁸  :   32898939.773161
 Mol. α(0) /au        :       1816.152082

 
 Wiberg/Mayer (AO) data. WBOs > 0.1 written file <wbo>
 largest (>0.05) Wiberg bond orders for each atom
           total WBO             WBO to atom ...
     1  N   3.001    C    2 1.020    H  390 0.952    H    9 0.949
     2  C   3.983    N    1 1.020    C    3 0.987    H   10 0.950    C    5 0.934    O    4 0.059
     3  C   3.895    O    4 1.863    C    2 0.987    H  391 0.954
     4  O   2.036    C    3 1.863    C    2 0.059
     5  C   3.991    C    7 1.010    C    6 0.989    H   11 0.966    C    2 0.934
     6  C   3.996    C    8 1.019    C    5 0.989    H   13 0.973    H   12 0.970
     7  C   3.993    C    5 1.010    H   14 0.984    H   15 0.983    H   16 0.982
     8  C   3.996    C    6 1.019    H   17 0.985    H   18 0.985    H   19 0.971
     9  H   0.974    N    1 0.949
    10  H   0.996    C    2 0.950
    11  H   0.999    C    5 0.966
    12  H   0.999    C    6 0.970
    13  H   0.998    C    6 0.973
    14  H   0.998    C    7 0.984
    15  H   0.998    C    7 0.983
    16  H   0.997    C    7 0.982
    17  H   0.998    C    8 0.985
    18  H   0.998    C    8 0.985
    19  H   0.999    C    8 0.971
    20  N   2.993    C   21 1.017    H  392 0.957    H   25 0.939
    21  C   3.986    N   20 1.017    C   22 0.975    C   24 0.972    H   26 0.954    O   23 0.058
    22  C   3.890    O   23 1.896    C   21 0.975    H  393 0.953
    23  O   2.042    C   22 1.896    C   21 0.058
    24  C   3.989    H   27 0.981    H   29 0.977    C   21 0.972    H   28 0.963
    25  H   0.973    N   20 0.939
    26  H   0.998    C   21 0.954
    27  H   0.998    C   24 0.981
    28  H   0.997    C   24 0.963
    29  H   0.995    C   24 0.977
    30  N   3.001    C   31 1.010    H   41 0.951    H  394 0.949
    31  C   3.984    N   30 1.010    C   32 0.974    H   42 0.954    C   34 0.952    O   33 0.055
    32  C   3.892    O   33 1.891    C   31 0.974    H  395 0.953
    33  O   2.045    C   32 1.891    C   31 0.055
    34  C   3.991    C   35 1.012    H   44 0.972    H   43 0.961    C   31 0.952
    35  C   3.989    C   37 1.418    C   36 1.407    C   34 1.012    C   40 0.110
    36  C   3.992    C   38 1.451    C   35 1.407    H   45 0.968    C   39 0.111
    37  C   3.992    C   39 1.440    C   35 1.418    H   46 0.969    C   38 0.110
    38  C   3.992    C   36 1.451    C   40 1.431    H   47 0.964    C   37 0.110
    39  C   3.992    C   40 1.444    C   37 1.440    H   48 0.970    C   36 0.111
    40  C   3.992    C   39 1.444    C   38 1.431    H   49 0.971    C   35 0.110
    41  H   0.971    N   30 0.951
    42  H   0.998    C   31 0.954
    43  H   0.996    C   34 0.961
    44  H   0.996    C   34 0.972
    45  H   0.999    C   36 0.968
    46  H   0.999    C   37 0.969
    47  H   0.999    C   38 0.964
    48  H   0.998    C   39 0.970
    49  H   0.998    C   40 0.971
    50  N   2.999    C   51 1.020    H   59 0.957    H  396 0.953
    51  C   3.984    N   50 1.020    C   54 0.972    H   60 0.946    C   52 0.941
    52  C   3.942    O   53 1.598    N   72 1.327    C   51 0.941
    53  O   1.938    C   52 1.598    N   72 0.195
    54  C   3.992    C   55 1.007    H   62 0.976    C   51 0.972    H   61 0.969
    55  C   3.995    C   54 1.007    C   56 1.006    H   63 0.975    H   64 0.974
    56  C   3.987    C   57 1.009    C   55 1.006    H   66 0.973    H   65 0.957
    57  C   3.919    C   56 1.009    H   67 0.968    H   68 0.966    N   58 0.958
    58  N   3.663    C   57 0.958    H   69 0.897    H   71 0.894    H   70 0.893
    59  H   0.977    N   50 0.957
    60  H   0.996    C   51 0.946
    61  H   0.996    C   54 0.969
    62  H   0.998    C   54 0.976
    63  H   0.999    C   55 0.975
    64  H   0.998    C   55 0.974
    65  H   0.994    C   56 0.957
    66  H   0.994    C   56 0.973
    67  H   0.989    C   57 0.968
    68  H   0.989    C   57 0.966
    69  H   0.910    N   58 0.897
    70  H   0.909    N   58 0.893
    71  H   0.908    N   58 0.894
    72  N   3.481    C   52 1.327    C   73 0.969    H   80 0.901    O   53 0.195
    73  C   3.966    C   74 0.974    C   76 0.970    N   72 0.969    H   81 0.950    O   75 0.055
    74  C   3.900    O   75 1.863    C   73 0.974    H  397 0.955
    75  O   2.041    C   74 1.863    C   73 0.055
    76  C   3.984    C   77 0.993    H   83 0.973    C   73 0.970    H   82 0.966
    77  C   3.993    C   78 1.010    C   79 1.010    C   76 0.993    H   84 0.966
    78  C   3.995    C   77 1.010    H   86 0.986    H   85 0.985    H   87 0.982
    79  C   3.995    C   77 1.010    H   90 0.986    H   88 0.986    H   89 0.984
    80  H   0.947    N   72 0.901
    81  H   0.994    C   73 0.950
    82  H   0.995    C   76 0.966
    83  H   0.996    C   76 0.973
    84  H   0.997    C   77 0.966
    85  H   0.998    C   78 0.985
    86  H   0.999    C   78 0.986
    87  H   0.999    C   78 0.982
    88  H   0.998    C   79 0.986
    89  H   0.998    C   79 0.984
    90  H   0.998    C   79 0.986
    91  N   2.996    C   92 1.018    H  398 0.954    H   98 0.938
    92  C   3.987    N   91 1.018    C   93 0.982    H   99 0.961    C   95 0.938    O   94 0.058
    93  C   3.899    O   94 1.897    C   92 0.982    H  399 0.956
    94  O   2.036    C   93 1.897    C   92 0.058
    95  C   3.993    C   96 1.012    C   97 1.008    H  100 0.964    C   92 0.938
    96  C   3.994    C   95 1.012    H  103 0.986    H  101 0.984    H  102 0.976
    97  C   3.996    C   95 1.008    H  105 0.987    H  106 0.986    H  104 0.983
    98  H   0.971    N   91 0.938
    99  H   0.998    C   92 0.961
   100  H   0.998    C   95 0.964
   101  H   0.998    C   96 0.984
   102  H   0.996    C   96 0.976
   103  H   0.999    C   96 0.986
   104  H   0.998    C   97 0.983
   105  H   0.998    C   97 0.987
   106  H   0.998    C   97 0.986
   107  N   2.990    C  108 1.023    H  400 0.959    H  111 0.958
   108  C   3.985    N  107 1.023    H  112 0.969    C  109 0.959    H  113 0.955
   109  C   3.943    O  110 1.560    N  114 1.339    C  108 0.959
   110  O   1.950    C  109 1.560    N  114 0.188
   111  H   0.970    N  107 0.958
   112  H   0.997    C  108 0.969
   113  H   0.995    C  108 0.955
   114  N   3.494    C  109 1.339    C  115 0.975    H  119 0.914    O  110 0.188
   115  C   3.963    C  118 0.997    N  114 0.975    H  120 0.950    C  116 0.932    O  117 0.052
   116  C   3.948    O  117 1.638    N  124 1.295    C  115 0.932
   117  O   1.966    C  116 1.638    N  124 0.194    C  115 0.052
   118  C   3.983    C  115 0.997    H  123 0.982    H  121 0.979    H  122 0.978
   119  H   0.947    N  114 0.914
   120  H   0.992    C  115 0.950
   121  H   0.994    C  118 0.979
   122  H   0.993    C  118 0.978
   123  H   0.996    C  118 0.982
   124  N   3.468    C  116 1.295    C  125 0.977    H  133 0.922    O  117 0.194
   125  C   3.963    C  128 0.983    N  124 0.977    H  134 0.953    C  126 0.926    O  127 0.051
   126  C   3.950    O  127 1.646    N  139 1.296    C  125 0.926
   127  O   1.984    C  126 1.646    N  139 0.198    C  125 0.051
   128  C   3.992    C  129 1.003    C  125 0.983    H  136 0.974    H  135 0.968
   129  C   3.991    C  128 1.003    H  137 0.982    H  138 0.967    C  130 0.914    O  131 0.052    O  132 0.051
   130  C   3.931    O  132 1.508    O  131 1.489    C  129 0.914
   131  O   1.779    C  130 1.489    O  132 0.218    C  129 0.052
   132  O   1.798    C  130 1.508    O  131 0.218    C  129 0.051
   133  H   0.960    N  124 0.922
   134  H   0.993    C  125 0.953
   135  H   0.998    C  128 0.968
   136  H   0.997    C  128 0.974
   137  H   0.999    C  129 0.982
   138  H   0.999    C  129 0.967
   139  N   3.464    C  126 1.296    C  140 0.970    H  147 0.924    O  127 0.198
   140  C   3.958    C  143 0.979    N  139 0.970    H  148 0.947    C  141 0.937
   141  C   3.952    O  142 1.611    N  158 1.319    C  140 0.937
   142  O   1.949    C  141 1.611    N  158 0.197
   143  C   3.986    C  144 0.993    C  140 0.979    H  150 0.969    H  149 0.968
   144  C   3.993    C  145 1.010    C  146 1.007    C  143 0.993    H  151 0.969
   145  C   3.994    C  144 1.010    H  154 0.986    H  152 0.984    H  153 0.982
   146  C   3.994    C  144 1.007    H  156 0.986    H  157 0.986    H  155 0.985
   147  H   0.963    N  139 0.924
   148  H   0.995    C  140 0.947
   149  H   0.997    C  143 0.968
   150  H   0.997    C  143 0.969
   151  H   0.999    C  144 0.969
   152  H   0.997    C  145 0.984
   153  H   0.999    C  145 0.982
   154  H   0.998    C  145 0.986
   155  H   0.997    C  146 0.985
   156  H   0.998    C  146 0.986
   157  H   0.998    C  146 0.986
   158  N   3.473    C  141 1.319    C  159 0.976    H  165 0.882    O  142 0.197
   159  C   3.961    N  158 0.976    H  166 0.952    C  162 0.950    C  160 0.939
   160  C   3.953    O  161 1.613    N  172 1.316    C  159 0.939
   161  O   1.965    C  160 1.613    N  172 0.197
   162  C   3.957    C  164 1.004    O  163 1.002    H  167 0.953    C  159 0.950
   163  O   1.951    C  162 1.002    H  168 0.847
   164  C   3.987    C  162 1.004    H  171 0.983    H  170 0.978    H  169 0.977
   165  H   0.950    N  158 0.882
   166  H   0.994    C  159 0.952
   167  H   0.999    C  162 0.953
   168  H   0.896    O  163 0.847
   169  H   0.994    C  164 0.977
   170  H   0.997    C  164 0.978
   171  H   0.996    C  164 0.983
   172  N   3.480    C  160 1.316    C  173 0.972    H  177 0.911    O  161 0.197
   173  C   3.961    C  176 0.994    N  172 0.972    H  178 0.950    C  174 0.939
   174  C   3.950    O  175 1.588    N  182 1.330    C  173 0.939
   175  O   1.964    C  174 1.588    N  182 0.195
   176  C   3.978    C  173 0.994    H  181 0.977    H  180 0.977    H  179 0.976
   177  H   0.954    N  172 0.911
   178  H   0.993    C  173 0.950
   179  H   0.992    C  176 0.976
   180  H   0.993    C  176 0.977
   181  H   0.993    C  176 0.977
   182  N   3.492    C  174 1.330    C  183 0.983    H  190 0.901    O  175 0.195
   183  C   3.970    C  186 0.984    N  182 0.983    H  191 0.950    C  184 0.930    O  185 0.051
   184  C   3.949    O  185 1.628    N  196 1.309    C  183 0.930
   185  O   1.962    C  184 1.628    N  196 0.198    C  183 0.051
   186  C   3.988    C  183 0.984    H  193 0.966    C  187 0.965    H  192 0.937    O  188 0.056
   187  C   3.953    O  188 1.646    N  189 1.313    C  186 0.965
   188  O   1.964    C  187 1.646    N  189 0.204    C  186 0.056
   189  N   3.402    C  187 1.313    H  195 0.928    H  194 0.922    O  188 0.204
   190  H   0.946    N  182 0.901
   191  H   0.994    C  183 0.950
   192  H   0.990    C  186 0.937
   193  H   0.994    C  186 0.966
   194  H   0.943    N  189 0.922
   195  H   0.947    N  189 0.928
   196  N   3.475    C  184 1.309    C  197 0.978    H  203 0.904    O  185 0.198
   197  C   3.962    N  196 0.978    C  200 0.961    H  204 0.951    C  198 0.942
   198  C   3.947    O  199 1.597    N  212 1.320    C  197 0.942
   199  O   1.932    C  198 1.597    N  212 0.192
   200  C   3.986    C  201 1.008    C  202 1.006    H  205 0.963    C  197 0.961
   201  C   3.992    C  200 1.008    H  208 0.985    H  207 0.984    H  206 0.982
   202  C   3.992    C  200 1.006    H  210 0.984    H  209 0.980    H  211 0.975
   203  H   0.950    N  196 0.904
   204  H   0.995    C  197 0.951
   205  H   0.998    C  200 0.963
   206  H   0.996    C  201 0.982
   207  H   0.998    C  201 0.984
   208  H   0.998    C  201 0.985
   209  H   0.995    C  202 0.980
   210  H   0.998    C  202 0.984
   211  H   0.997    C  202 0.975
   212  N   3.480    C  198 1.320    C  213 0.979    H  220 0.898    O  199 0.192
   213  C   3.964    C  216 0.979    N  212 0.979    H  221 0.947    C  214 0.936
   214  C   3.947    O  215 1.576    N  231 1.337    C  213 0.936
   215  O   1.949    C  214 1.576    N  231 0.193
   216  C   3.983    C  217 0.991    C  213 0.979    H  223 0.968    H  222 0.967
   217  C   3.993    C  219 1.010    C  218 1.006    C  216 0.991    H  224 0.961
   218  C   3.993    C  217 1.006    H  226 0.983    H  225 0.983    H  227 0.981
   219  C   3.994    C  217 1.010    H  229 0.985    H  228 0.985    H  230 0.978
   220  H   0.948    N  212 0.898
   221  H   0.995    C  213 0.947
   222  H   0.995    C  216 0.967
   223  H   0.995    C  216 0.968
   224  H   0.997    C  217 0.961
   225  H   0.997    C  218 0.983
   226  H   0.999    C  218 0.983
   227  H   0.998    C  218 0.981
   228  H   0.998    C  219 0.985
   229  H   0.998    C  219 0.985
   230  H   0.999    C  219 0.978
   231  N   3.492    C  214 1.337    C  232 0.986    H  242 0.875    O  215 0.193
   232  C   3.963    N  231 0.986    C  235 0.981    H  243 0.940    C  233 0.929    O  234 0.056
   233  C   3.942    O  234 1.637    N  255 1.290    C  232 0.929
   234  O   1.962    C  233 1.637    N  255 0.193    C  232 0.056
   235  C   3.981    C  236 1.005    C  232 0.981    H  245 0.970    H  244 0.968
   236  C   3.990    C  235 1.005    C  237 0.993    H  247 0.974    H  246 0.963
   237  C   3.951    C  236 0.993    N  238 0.987    H  248 0.968    H  249 0.959
   238  N   3.468    C  239 1.312    C  237 0.987    H  250 0.917    N  241 0.101    N  240 0.100
   239  C   3.978    N  240 1.319    N  241 1.316    N  238 1.312
   240  N   3.404    C  239 1.319    H  252 0.918    H  251 0.915    N  241 0.102    N  238 0.100
   241  N   3.394    C  239 1.316    H  253 0.918    H  254 0.916    N  240 0.102    N  238 0.101
   242  H   0.939    N  231 0.875
   243  H   0.993    C  232 0.940
   244  H   0.993    C  235 0.968
   245  H   0.992    C  235 0.970
   246  H   0.994    C  236 0.963
   247  H   0.998    C  236 0.974
   248  H   0.992    C  237 0.968
   249  H   0.990    C  237 0.959
   250  H   0.946    N  238 0.917
   251  H   0.942    N  240 0.915
   252  H   0.941    N  240 0.918
   253  H   0.938    N  241 0.918
   254  H   0.937    N  241 0.916
   255  N   3.463    C  233 1.290    C  256 0.980    H  263 0.908    O  234 0.193
   256  C   3.967    N  255 0.980    C  259 0.977    H  264 0.950    C  257 0.938
   257  C   3.942    O  258 1.646    N  267 1.279    C  256 0.938
   258  O   1.956    C  257 1.646    N  267 0.192
   259  C   3.980    H  266 0.980    C  256 0.977    H  265 0.962    C  260 0.899    O  261 0.054    O  262 0.053
   260  C   3.937    O  261 1.511    O  262 1.508    C  259 0.899
   261  O   1.807    C  260 1.511    O  262 0.220    C  259 0.054
   262  O   1.801    C  260 1.508    O  261 0.220    C  259 0.053
   263  H   0.956    N  255 0.908
   264  H   0.995    C  256 0.950
   265  H   0.997    C  259 0.962
   266  H   0.999    C  259 0.980
   267  N   3.449    C  257 1.279    C  268 0.984    H  275 0.903    O  258 0.192
   268  C   3.960    N  267 0.984    C  271 0.958    H  276 0.953    C  269 0.939    O  270 0.051
   269  C   3.950    O  270 1.641    N  284 1.291    C  268 0.939
   270  O   1.968    C  269 1.641    N  284 0.197    C  268 0.051
   271  C   3.989    C  272 1.011    H  277 0.973    H  278 0.970    C  268 0.958
   272  C   3.980    C  271 1.011    S  273 0.991    H  280 0.975    H  279 0.969
   273  S   2.085    C  274 1.015    C  272 0.991
   274  C   3.978    S  273 1.015    H  283 0.983    H  282 0.981    H  281 0.966
   275  H   0.955    N  267 0.903
   276  H   0.994    C  268 0.953
   277  H   0.997    C  271 0.973
   278  H   0.997    C  271 0.970
   279  H   0.998    C  272 0.969
   280  H   0.997    C  272 0.975
   281  H   0.994    C  274 0.966
   282  H   0.998    C  274 0.981
   283  H   0.998    C  274 0.983
   284  N   3.463    C  269 1.291    C  285 0.995    H  288 0.904    O  270 0.197
   285  C   3.962    N  284 0.995    H  289 0.960    H  290 0.954    C  286 0.939    O  287 0.056
   286  C   3.950    O  287 1.632    N  291 1.304    C  285 0.939
   287  O   1.975    C  286 1.632    N  291 0.194    C  285 0.056
   288  H   0.953    N  284 0.904
   289  H   0.992    C  285 0.960
   290  H   0.990    C  285 0.954
   291  N   3.463    C  286 1.304    C  292 0.977    H  299 0.890    O  287 0.194
   292  C   3.967    C  295 0.983    N  291 0.977    H  300 0.947    C  293 0.932    O  294 0.053
   293  C   3.950    O  294 1.673    N  310 1.269    C  292 0.932
   294  O   1.987    C  293 1.673    N  310 0.195    C  292 0.053
   295  C   3.990    C  296 0.996    C  292 0.983    H  301 0.973    H  302 0.970
   296  C   3.995    C  298 1.010    C  297 1.007    C  295 0.996    H  303 0.965
   297  C   3.996    C  296 1.007    H  304 0.987    H  305 0.987    H  306 0.986
   298  C   3.995    C  296 1.010    H  308 0.986    H  307 0.985    H  309 0.977
   299  H   0.949    N  291 0.890
   300  H   0.995    C  292 0.947
   301  H   0.997    C  295 0.973
   302  H   0.996    C  295 0.970
   303  H   1.000    C  296 0.965
   304  H   0.998    C  297 0.987
   305  H   0.998    C  297 0.987
   306  H   0.998    C  297 0.986
   307  H   0.999    C  298 0.985
   308  H   0.998    C  298 0.986
   309  H   0.999    C  298 0.977
   310  N   3.453    C  293 1.269    C  311 0.985    H  319 0.927    O  294 0.195
   311  C   3.964    N  310 0.985    C  312 0.981    C  314 0.948    H  320 0.947    O  313 0.057
   312  C   3.901    O  313 1.875    C  311 0.981    H  401 0.950
   313  O   2.060    C  312 1.875    C  311 0.057
   314  C   3.988    C  315 0.995    H  321 0.969    H  322 0.966    C  311 0.948
   315  C   3.990    C  314 0.995    C  316 0.963    H  323 0.957    H  324 0.955    O  317 0.054
   316  C   3.943    O  317 1.648    N  318 1.304    C  315 0.963
   317  O   1.954    C  316 1.648    N  318 0.201    C  315 0.054
   318  N   3.395    C  316 1.304    H  325 0.926    H  326 0.925    O  317 0.201
   319  H   0.958    N  310 0.927
   320  H   0.990    C  311 0.947
   321  H   0.996    C  314 0.969
   322  H   0.994    C  314 0.966
   323  H   0.995    C  315 0.957
   324  H   0.994    C  315 0.955
   325  H   0.953    N  318 0.926
   326  H   0.946    N  318 0.925
   327  N   2.997    C  328 1.016    H  402 0.955    H  335 0.955
   328  C   3.985    N  327 1.016    C  331 0.978    H  336 0.956    C  329 0.937
   329  C   3.946    O  330 1.606    N  344 1.316    C  328 0.937
   330  O   1.953    C  329 1.606    N  344 0.193
   331  C   3.993    C  332 1.007    C  328 0.978    H  338 0.973    H  337 0.971
   332  C   3.980    C  331 1.007    S  333 0.991    H  340 0.969    H  339 0.968
   333  S   2.094    C  334 1.012    C  332 0.991
   334  C   3.979    S  333 1.012    H  343 0.980    H  342 0.979    H  341 0.972
   335  H   0.976    N  327 0.955
   336  H   0.998    C  328 0.956
   337  H   0.997    C  331 0.971
   338  H   0.997    C  331 0.973
   339  H   0.996    C  332 0.968
   340  H   0.998    C  332 0.969
   341  H   0.995    C  334 0.972
   342  H   0.997    C  334 0.979
   343  H   0.997    C  334 0.980
   344  N   3.471    C  329 1.316    C  345 0.974    H  349 0.877    O  330 0.193
   345  C   3.965    C  348 0.985    N  344 0.974    C  346 0.967    H  350 0.945    O  347 0.057
   346  C   3.897    O  347 1.895    C  345 0.967    H  403 0.954
   347  O   2.051    C  346 1.895    C  345 0.057
   348  C   3.979    C  345 0.985    H  353 0.980    H  351 0.980    H  352 0.976
   349  H   0.945    N  344 0.877
   350  H   0.993    C  345 0.945
   351  H   0.993    C  348 0.980
   352  H   0.995    C  348 0.976
   353  H   0.993    C  348 0.980
   354  N   2.988    C  355 1.012    H  404 0.959    H  362 0.932
   355  C   3.985    N  354 1.012    C  358 0.979    H  363 0.961    C  356 0.938
   356  C   3.939    O  357 1.608    N  373 1.315    C  355 0.938
   357  O   1.942    C  356 1.608    N  373 0.193
   358  C   3.991    C  359 0.994    C  355 0.979    H  364 0.972    H  365 0.970
   359  C   3.995    C  360 1.009    C  361 1.008    C  358 0.994    H  366 0.968
   360  C   3.996    C  359 1.009    H  369 0.986    H  368 0.982    H  367 0.971
   361  C   3.993    C  359 1.008    H  372 0.983    H  370 0.977    H  371 0.970
   362  H   0.968    N  354 0.932
   363  H   0.998    C  355 0.961
   364  H   0.997    C  358 0.972
   365  H   0.997    C  358 0.970
   366  H   0.999    C  359 0.968
   367  H   0.999    C  360 0.971
   368  H   0.999    C  360 0.982
   369  H   0.999    C  360 0.986
   370  H   0.998    C  361 0.977
   371  H   0.998    C  361 0.970
   372  H   0.998    C  361 0.983
   373  N   3.475    C  356 1.315    C  374 0.980    H  382 0.905    O  357 0.193
   374  C   3.968    N  373 0.980    C  375 0.972    C  377 0.968    H  383 0.947    O  376 0.055
   375  C   3.898    O  376 1.881    C  374 0.972    H  405 0.956
   376  O   2.027    C  375 1.881    C  374 0.055
   377  C   3.985    C  378 0.994    H  385 0.973    H  384 0.971    C  374 0.968
   378  C   3.990    C  377 0.994    H  386 0.972    C  379 0.966    H  387 0.946    O  380 0.054
   379  C   3.946    O  380 1.652    N  381 1.302    C  378 0.966
   380  O   1.951    C  379 1.652    N  381 0.200    C  378 0.054
   381  N   3.389    C  379 1.302    H  388 0.929    H  389 0.923    O  380 0.200
   382  H   0.948    N  373 0.905
   383  H   0.993    C  374 0.947
   384  H   0.994    C  377 0.971
   385  H   0.995    C  377 0.973
   386  H   0.995    C  378 0.972
   387  H   0.991    C  378 0.946
   388  H   0.949    N  381 0.929
   389  H   0.944    N  381 0.923
   390  H   0.968    N    1 0.952
   391  H   0.995    C    3 0.954
   392  H   0.968    N   20 0.957
   393  H   0.995    C   22 0.953
   394  H   0.968    N   30 0.949
   395  H   0.994    C   32 0.953
   396  H   0.964    N   50 0.953
   397  H   0.996    C   74 0.955
   398  H   0.967    N   91 0.954
   399  H   0.996    C   93 0.956
   400  H   0.968    N  107 0.959
   401  H   0.991    C  312 0.950
   402  H   0.965    N  327 0.955
   403  H   0.995    C  346 0.954
   404  H   0.970    N  354 0.959
   405  H   0.995    C  375 0.956
 MOs/occ written to file <molden.input>
 
molecular dipole:
                 x           y           z       tot (Debye)
 q only:       12.977       1.658       0.904
   full:       11.432       1.583       2.668      30.108
molecular quadrupole (traceless):
                xx          xy          yy          xz          yz          zz
 q only:     1126.839    1058.057    -405.709     887.366     -73.789    -721.130
  q+dip:      919.005     961.260    -410.343     890.752      34.655    -508.662
   full:      920.480     963.685    -407.333     892.298      32.970    -513.147
speedup  0.94
cpu  time for grad    9.22 s
wall time for grad    9.79 s

SCC energy    :    -610.1101592
rep           :       7.4639103
ES            :       1.7671755
AES           :      -0.0432171
AXC           :       0.2219567
disp          :      -0.5041961
XB            :       0.0000000
fix           :       0.0000000
Gborn         :       0.0000000
Gsasa         :       0.0000000
Ghb           :       0.0000000
Gshift        :       0.0000000
Gsolv         :      -0.4108203     -257.79
Etot ala COSMO:    -610.1101592
grad norm     :       0.6278722
total E       :    -602.6000252
atomizationE  :     110.5331535    69360.60
(atE without considering molecular charge,
 total energy contains solvation terms)
H-L gap (eV)  :          1.2354

------------------------------------------------------------------------
 * finished run on 2019/03/14 at 16:03:27.940     
------------------------------------------------------------------------
 total:
 * wall-time:     0 d,  0 h,  0 min, 10.745 sec
 *  cpu-time:     0 d,  0 h,  0 min,  9.792 sec
 * ratio c/w:     0.911 speedup
 SCF:
 * wall-time:     0 d,  0 h,  0 min, 10.239 sec
 *  cpu-time:     0 d,  0 h,  0 min,  9.672 sec
 * ratio c/w:     0.945 speedup

