      -----------------------------------------------------------      
     |                   =====================                   |     
     |                           x T B                           |     
     |                   =====================                   |     
     |                         S. Grimme                         |     
     |          Mulliken Center for Theoretical Chemistry        |     
     |                    University of Bonn                     |     
     |                 Version 6.0.1 (SAW181210)                 |     
      -----------------------------------------------------------      

   This program is distributed in the hope that it will be useful,
   but WITHOUT ANY WARRANTY; without even the implied warranty of
   MERCHANTABILITY or FITNESS FOR A PARTICULAR PURPOSE.
   
   FOR NON-COMMERCIAL, ACADEMIA USE ONLY.
   
   Cite this work as:
   S. Grimme, C. Bannwarth, P. Shushkov, J. Comput. Theory Chem., 2017,
   13, 1989-2009.
   C. Bannwarth, S. Ehlert and S. Grimme., ChemRxiv, 2018, preprint.
   http://doi.org/10.26434/chemrxiv.7246238.v1
   
   for sTDA-xTB:
   S. Grimme and C. Bannwarth, J. Chem. Phys., 2016, 145, 054103.
   
   in the mass-spec context:
   V. Asgeirsson, C. Bauer and S. Grimme, Chem. Sci., 2017, 8, 4879.
   
   if GBSA is used:
   P. Shushkov, F. März and S. Grimme, unpublished.
   
   for ANC optimizer:
   S. Grimme, unpublished.
   Rational Function algorithm used in ANCopt:
   F. Eckert, P. Pulay, H.-J. Werner, J. Comput. Chem., 1997, 18, 1473.
   
   with help from (in alphabetical order)
   C. Bannwarth, F. Bohle, G. Brandenburg, E. Caldeweyher, M. Checinski,
   S. Dohm, S. Ehlert, S. Ehrlich, F. März, H. Neugebauer, J. Pisarek,
   P. Pracht, P. Shushkov, and S. Spicher.
   
 * started run on 2019/02/13 at 00:17:59.355     
========================================================================
 # omp threads = 16
========================================================================
number of atoms            : 425
number of electrons        : 1138
charge                     : 0
spin                       : .0
first test random number   : .1557

########################################################################
# WARNING! Please study the warnings concerning your input carefully
#  - Process number higher than OMP_NUM_THREADS, I hope you know what you are doing.
########################################################################

           ------------------------------------------------- 
          |                 G F N 2 - x T B                 |
          | Geometry, Frequencies, Noncovalent interactions |
          |            JCTC 2018 parametrisation            |
           ------------------------------------------------- 
 
      method parameters     
 k(s)        :  1.8500
 k(p)        :  2.2300
 k(d)        :  2.2300
 k(f)        :  2.0000
 kEN (H0ij)  : -2.0000
 D4 a1       :  0.5200
 D4 a2       :  5.0000
 D4 s6       :  1.0000
 D4 s8       :  2.7000
 D4 s9       :  5.0000
 alphaj      :  2.0000

 Solvent             : h2o
 Using internal parameter file: .param_gbsa2_h2o
 Gsolv ref. state (COSMO-RS): gsolv [1 M gas/solution]
 temperature (mdtemp)       :    298.150000000000     
 dielectric constant        :    80.2000000000000     
 rho                        :    1.00000000000000     
 mass                       :    18.0000000000000     
 surface tension            :    15.5689454083859     
 probe radius               :   0.975313790000000     
 vdW radii scaling          :    1.00000000000000     
 Gshift (Eh)                :   1.857443126794793E-003
 c1                         :    1.55243817000000     
 soset                      :   0.130326360000000     
 HB correction              :  T

            Z     q(EN)     CN     RAES       Cart. coordinates
     1  N   5.0   -0.20    3.22    1.96   364.70465   133.19268   181.91105
     2  C   4.0    0.03    4.14    3.88   365.03744   135.44082   183.44672
     3  C   4.0    0.08    3.22    3.04   367.28274   134.98052   185.21642
     4  O   6.0   -0.31    1.17    1.80   367.06617   133.85073   187.22768
     5  C   4.0   -0.07    4.11    3.82   362.64643   136.00287   184.95453
     6  H   1.0    0.12    1.06    1.44   364.25689   131.56965   182.84636
     7  H   1.0    0.04    1.05    1.44   365.46363   136.98696   182.14011
     8  H   1.0    0.04    1.00    1.43   362.85206   137.77815   185.96253
     9  H   1.0    0.04    1.00    1.43   361.04362   136.10660   183.67758
    10  H   1.0    0.06    1.00    1.43   362.33500   134.50064   186.32112
    11  N   5.0   -0.18    3.26    1.97   370.53910   137.13059   189.61219
    12  C   4.0    0.03    4.29    4.19   370.71563   138.53712   191.95961
    13  C   4.0    0.08    3.23    3.04   373.42181   138.22392   192.95926
    14  O   6.0   -0.28    1.13    1.80   374.47352   136.16515   192.96968
    15  C   4.0   -0.02    4.26    4.12   368.80700   137.52814   193.90351
    16  C   4.0   -0.07    4.12    3.84   368.99315   139.02246   196.36752
    17  C   4.0   -0.08    4.12    3.83   366.11100   137.67442   192.87996
    18  H   1.0    0.11    1.06    1.44   369.29409   135.67526   189.49560
    19  H   1.0    0.03    1.05    1.44   370.35389   140.54209   191.57434
    20  H   1.0    0.05    1.05    1.44   369.30622   135.55257   194.27582
    21  H   1.0    0.05    1.00    1.43   367.82066   138.14611   197.80820
    22  H   1.0    0.05    1.00    1.43   370.91814   139.07854   197.08329
    23  H   1.0    0.05    1.00    1.43   368.33776   140.95163   196.09630
    24  H   1.0    0.04    1.00    1.43   364.80304   137.05120   194.33475
    25  H   1.0    0.04    1.00    1.43   365.65029   139.61597   192.39314
    26  H   1.0    0.05    1.00    1.43   365.85097   136.49099   191.22107
    27  N   5.0   -0.20    3.14    1.94   379.25644   141.15454   198.70460
    28  C   4.0    0.01    4.06    3.72   379.66524   141.73687   201.33525
    29  C   4.0    0.08    3.14    3.03   380.24006   139.35153   202.86026
    30  O   6.0   -0.30    1.19    1.80   380.37224   137.27174   201.85063
    31  H   1.0    0.10    1.03    1.43   380.75070   140.40910   197.78366
    32  H   1.0    0.05    1.02    1.43   381.26581   143.03446   201.51119
    33  H   1.0    0.05    1.02    1.43   377.97134   142.65126   202.08105
    34  N   5.0   -0.19    3.22    1.96   379.42107   136.12238   210.81694
    35  C   4.0    0.04    4.15    3.91   377.91012   136.03747   213.09619
    36  C   4.0    0.09    3.22    3.04   379.46095   134.86613   215.21750
    37  O   6.0   -0.27    1.13    1.80   380.66652   132.90445   214.87862
    38  C   4.0   -0.05    4.11    3.83   375.54875   134.43140   212.67452
    39  H   1.0    0.10    1.02    1.43   379.88551   134.43468   210.02151
    40  H   1.0    0.06    1.06    1.44   377.36253   137.96736   213.58612
    41  H   1.0    0.06    1.00    1.43   374.28260   134.67999   214.27004
    42  H   1.0    0.07    1.00    1.43   374.60482   135.05519   210.95693
    43  H   1.0    0.06    1.00    1.43   376.06386   132.45327   212.48646
    44  N   5.0   -0.20    3.22    1.96   378.10186   132.39958   202.13424
    45  C   4.0    0.04    4.24    4.08   375.36121   132.20378   202.13154
    46  C   4.0    0.08    3.19    3.03   374.56596   130.13463   200.26300
    47  O   6.0   -0.31    1.14    1.80   372.88015   128.62905   200.74568
    48  C   4.0   -0.02    4.29    4.18   374.18948   134.77813   201.60302
    49  C   4.0    0.17    3.25    3.04   374.47179   136.44668   203.94416
    50  O   6.0   -0.29    1.22    1.80   374.43735   135.56659   206.08298
    51  N   5.0   -0.18    3.23    1.96   374.79928   138.90698   203.48307
    52  H   1.0    0.12    1.07    1.44   378.91642   134.13966   202.13704
    53  H   1.0    0.07    1.06    1.44   374.71852   131.58499   204.01164
    54  H   1.0    0.05    1.03    1.43   375.06134   135.67689   199.96901
    55  H   1.0    0.06    1.03    1.43   372.16011   134.58966   201.27339
    56  H   1.0    0.12    1.06    1.44   374.75320   140.12638   204.97213
    57  H   1.0    0.08    1.02    1.43   374.60297   139.65094   201.72811
    58  N   5.0   -0.21    3.19    1.95   372.97023   122.88617   201.48640
    59  C   4.0    0.03    4.23    4.07   370.35837   122.23555   202.01802
    60  C   4.0    0.07    3.22    3.04   370.03635   120.56980   204.34462
    61  O   6.0   -0.30    1.17    1.80   368.04435   119.44589   204.71777
    62  C   4.0   -0.03    4.36    4.31   369.00822   120.95542   199.78210
    63  C   4.0   -0.02    4.18    3.96   369.19859   122.39837   197.28509
    64  C   4.0   -0.08    4.11    3.82   367.52539   121.11231   195.31213
    65  C   4.0   -0.08    4.13    3.85   368.38400   125.14420   197.59222
    66  H   1.0    0.11    1.04    1.43   373.33794   124.76231   201.36654
    67  H   1.0    0.05    1.06    1.44   369.39756   124.01468   202.46311
    68  H   1.0    0.05    1.03    1.43   369.80114   119.07248   199.55188
    69  H   1.0    0.05    1.03    1.43   367.02551   120.77309   200.31308
    70  H   1.0    0.05    1.05    1.44   371.15555   122.36948   196.62098
    71  H   1.0    0.04    1.00    1.43   367.63676   122.13093   193.53448
    72  H   1.0    0.04    1.00    1.43   368.10956   119.17862   194.95420
    73  H   1.0    0.04    1.00    1.43   365.56460   121.10723   195.92758
    74  H   1.0    0.04    1.01    1.43   368.46300   126.08753   195.77614
    75  H   1.0    0.03    1.00    1.43   366.45946   125.23785   198.30438
    76  H   1.0    0.06    1.00    1.43   369.61358   126.17981   198.86995
    77  N   5.0   -0.19    3.25    1.97   368.07311   120.79070   209.98464
    78  C   4.0    0.03    4.31    4.21   365.65937   120.82880   211.28948
    79  C   4.0    0.16    3.41    3.08   363.68346   119.27027   209.85011
    80  O   6.0   -0.27    1.21    1.80   362.40097   117.62798   210.85299
    81  C   4.0   -0.04    4.31    4.21   364.67323   123.54392   211.48730
    82  C   4.0   -0.03    4.16    3.92   366.35076   125.34575   213.00516
    83  C   4.0    0.25    3.12    3.03   365.95563   128.03561   211.86267
    84  O   6.0   -0.30    1.20    1.80   367.29433   128.56661   209.98144
    85  O   6.0   -0.28    1.16    1.80   364.32185   129.41336   212.83891
    86  H   1.0    0.09    1.03    1.43   368.87256   122.47778   209.59898
    87  H   1.0    0.05    1.05    1.44   365.88411   119.99101   213.17437
    88  H   1.0    0.07    1.04    1.43   364.47231   124.32397   209.58316
    89  H   1.0    0.05    1.03    1.43   362.79443   123.50883   212.33700
    90  H   1.0    0.05    1.02    1.43   365.84208   125.35453   215.00100
    91  H   1.0    0.05    1.02    1.43   368.34967   124.87439   212.81998
    92  N   5.0   -0.13    3.50    2.08   363.41518   119.97142   207.44535
    93  C   4.0    0.04    4.24    4.07   361.50147   118.94464   205.77865
    94  C   4.0    0.10    3.22    3.04   361.94340   116.12011   205.34487
    95  O   6.0   -0.28    1.11    1.80   360.21520   114.59101   205.51932
    96  C   4.0   -0.08    4.11    3.82   361.54971   120.38335   203.28842
    97  H   1.0    0.10    1.08    1.44   364.61079   121.25587   206.70004
    98  H   1.0    0.06    1.05    1.44   359.65303   119.12844   206.69965
    99  H   1.0    0.04    1.00    1.43   360.11627   119.64329   202.02225
   100  H   1.0    0.05    1.00    1.43   361.18917   122.37829   203.63454
   101  H   1.0    0.05    1.00    1.43   363.39556   120.18505   202.41110
   102  N   5.0   -0.20    3.24    1.97   363.88296   124.95657   188.33257
   103  C   4.0    0.03    4.42    4.41   362.34425   127.16927   188.81844
   104  C   4.0    0.15    3.45    3.10   361.62688   128.40338   186.31658
   105  O   6.0   -0.31    1.28    1.80   363.20153   128.72545   184.63742
   106  C   4.0   -0.02    4.27    4.15   363.73458   129.17476   190.41576
   107  C   4.0   -0.08    4.12    3.85   361.85023   131.16301   191.31624
   108  C   4.0   -0.08    4.14    3.88   365.03903   127.93892   192.66252
   109  H   1.0    0.10    1.03    1.43   365.46628   125.25023   187.31209
   110  H   1.0    0.05    1.06    1.44   360.65430   126.51876   189.81333
   111  H   1.0    0.07    1.06    1.44   365.15978   130.09171   189.22662
   112  H   1.0    0.04    1.00    1.43   362.82497   132.58693   192.42646
   113  H   1.0    0.05    1.00    1.43   360.93587   132.08904   189.72770
   114  H   1.0    0.04    1.00    1.43   360.39731   130.29359   192.48101
   115  H   1.0    0.04    1.00    1.43   365.90767   129.38064   193.83751
   116  H   1.0    0.03    1.00    1.43   363.68087   126.88396   193.78805
   117  H   1.0    0.04    1.00    1.43   366.49583   126.63946   192.02710
   118  N   5.0   -0.15    3.49    2.07   359.23877   129.18366   186.18381
   119  C   4.0    0.03    4.51    4.55   358.19426   130.33320   183.94970
   120  C   4.0    0.14    3.42    3.08   356.35672   132.44704   184.63752
   121  O   6.0   -0.32    1.28    1.80   355.20430   132.50686   186.64121
   122  C   4.0   -0.02    4.27    4.14   356.79805   128.37212   182.28976
   123  C   4.0   -0.07    4.11    3.83   358.61040   126.33633   181.35254
   124  C   4.0   -0.06    4.13    3.86   354.57587   127.18508   183.69147
   125  H   1.0    0.11    1.09    1.44   358.00524   128.74328   187.58393
   126  H   1.0    0.04    1.06    1.44   359.75642   131.11409   182.84598
   127  H   1.0    0.05    1.06    1.44   356.10451   129.42258   180.64735
   128  H   1.0    0.04    1.00    1.43   357.70315   125.24715   179.86773
   129  H   1.0    0.05    1.00    1.43   360.30203   127.19460   180.57004
   130  H   1.0    0.05    1.00    1.43   359.16251   125.07762   182.88041
   131  H   1.0    0.04    1.00    1.43   353.65946   125.77796   182.50878
   132  H   1.0    0.06    1.00    1.43   355.21893   126.27149   185.41670
   133  H   1.0    0.06    1.01    1.43   353.17025   128.60188   184.18177
   134  N   5.0   -0.15    3.50    2.08   356.11042   134.18818   182.82380
   135  C   4.0    0.03    4.39    4.36   354.21686   136.17143   182.76230
   136  C   4.0    0.15    3.43    3.09   352.22540   135.24552   180.88047
   137  O   6.0   -0.30    1.23    1.80   352.79493   134.59710   178.71430
   138  C   4.0   -0.05    4.24    4.08   355.52802   138.65431   182.04069
   139  C   4.0   -0.05    4.16    3.92   353.86438   141.00181   182.28468
   140  C   4.0   -0.04    4.18    3.95   351.90901   141.33783   180.18972
   141  C   4.0   -0.03    4.12    3.84   353.08531   141.86728   177.61707
   142  N   5.0   -0.11    4.00    2.86   351.08335   142.05347   175.66882
   143  H   1.0    0.08    1.07    1.44   357.11669   133.96421   181.21000
   144  H   1.0    0.06    1.06    1.44   353.36832   136.30825   184.64202
   145  H   1.0    0.04    1.03    1.43   357.11914   138.85647   183.33796
   146  H   1.0    0.05    1.03    1.43   356.29255   138.47698   180.13651
   147  H   1.0    0.04    1.03    1.43   352.85979   140.93564   184.08397
   148  H   1.0    0.04    1.03    1.43   355.09041   142.65740   182.30990
   149  H   1.0    0.07    1.04    1.44   350.72349   139.66150   180.06386
   150  H   1.0    0.04    1.03    1.43   350.68952   142.91160   180.72161
   151  H   1.0    0.04    1.02    1.43   354.11688   143.64981   177.65895
   152  H   1.0    0.05    1.02    1.43   354.38259   140.35169   177.09541
   153  H   1.0    0.06    1.02    1.43   351.86714   142.06199   173.90288
   154  H   1.0    0.08    1.02    1.43   349.82470   140.57389   175.79902
   155  H   1.0    0.05    0.98    1.43   350.01777   143.78972   175.82006
   156  N   5.0   -0.13    3.47    2.06   349.89724   135.00718   181.80232
   157  C   4.0    0.04    4.35    4.30   347.84949   133.88454   180.37198
   158  C   4.0    0.08    3.21    3.04   346.77497   135.77718   178.45214
   159  O   6.0   -0.30    1.14    1.80   347.03529   138.05931   178.73921
   160  C   4.0   -0.04    4.33    4.25   345.71800   133.08781   182.15749
   161  C   4.0   -0.04    4.05    3.72   346.54592   131.13611   184.10929
   162  S   6.0   -0.05    2.52    3.10   347.85764   128.24520   182.73542
   163  C   4.0   -0.07    3.88    3.44   345.08079   127.07417   181.10365
   164  H   1.0    0.10    1.08    1.44   349.52086   135.64907   183.56744
   165  H   1.0    0.05    1.07    1.44   348.57964   132.22530   179.36880
   166  H   1.0    0.05    1.03    1.43   345.05304   134.76768   183.15711
   167  H   1.0    0.04    1.03    1.43   344.16814   132.33530   181.02474
   168  H   1.0    0.06    1.07    1.44   348.03924   131.87538   185.31792
   169  H   1.0    0.04    1.07    1.44   344.94661   130.56533   185.27338
   170  H   1.0    0.04    1.05    1.44   345.39036   125.07204   180.78051
   171  H   1.0    0.04    1.04    1.43   343.43012   127.35030   182.28825
   172  H   1.0    0.04    1.04    1.43   344.88576   128.03786   179.30173
   173  N   5.0   -0.19    3.13    1.94   345.61482   139.93220   188.44264
   174  C   4.0    0.01    4.15    3.90   347.75060   139.95261   190.13870
   175  C   4.0    0.15    3.31    3.06   349.49582   137.68767   189.64949
   176  O   6.0   -0.30    1.24    1.80   349.54487   136.62820   187.59338
   177  H   1.0    0.09    1.02    1.43   344.15483   138.80391   188.91517
   178  H   1.0    0.04    1.03    1.43   348.84515   141.66343   189.74386
   179  H   1.0    0.04    1.02    1.43   347.08353   139.98092   192.08508
   180  N   5.0   -0.14    3.46    2.05   351.00912   137.09480   191.58914
   181  C   4.0    0.04    4.45    4.45   352.73099   134.98543   191.45559
   182  C   4.0    0.15    3.43    3.09   351.36993   132.50714   192.03000
   183  O   6.0   -0.30    1.26    1.80   349.56806   132.35033   193.48295
   184  C   4.0   -0.05    4.37    4.32   354.87350   135.27788   193.37973
   185  C   4.0   -0.02    4.18    3.96   356.40825   137.71782   193.07478
   186  C   4.0   -0.08    4.11    3.81   358.36139   137.86256   195.19583
   187  C   4.0   -0.08    4.10    3.81   357.71615   137.85020   190.50816
   188  H   1.0    0.08    1.07    1.44   350.63995   137.76114   193.33695
   189  H   1.0    0.07    1.07    1.44   353.47166   134.88542   189.53171
   190  H   1.0    0.06    1.03    1.43   354.04791   135.22570   195.27475
   191  H   1.0    0.04    1.03    1.43   356.14144   133.66065   193.18941
   192  H   1.0    0.04    1.05    1.44   355.12918   139.33251   193.25452
   193  H   1.0    0.04    1.00    1.43   359.38726   139.64190   195.13330
   194  H   1.0    0.04    1.00    1.43   357.45750   137.69236   197.03544
   195  H   1.0    0.03    1.00    1.43   359.71872   136.32955   195.01278
   196  H   1.0    0.04    1.00    1.43   358.89734   139.52688   190.41465
   197  H   1.0    0.04    1.00    1.43   358.90927   136.20032   190.23555
   198  H   1.0    0.05    1.00    1.43   356.34417   137.92728   188.98461
   199  N   5.0   -0.14    3.50    2.08   352.37854   130.52581   190.84337
   200  C   4.0    0.03    4.36    4.31   351.69031   127.95622   191.38839
   201  C   4.0    0.14    3.45    3.10   354.09583   126.37940   191.41633
   202  O   6.0   -0.32    1.28    1.80   355.91698   126.89961   190.08046
   203  C   4.0   -0.06    4.10    3.81   349.87569   126.85124   189.42018
   204  H   1.0    0.11    1.10    1.44   353.77893   130.77526   189.56000
   205  H   1.0    0.05    1.06    1.44   350.77543   127.90903   193.23975
   206  H   1.0    0.05    1.00    1.43   349.44964   124.90280   189.91013
   207  H   1.0    0.05    1.00    1.43   348.13067   127.93332   189.41766
   208  H   1.0    0.05    1.00    1.43   350.70342   126.91675   187.54166
   209  N   5.0   -0.14    3.49    2.07   354.02699   124.44013   193.02291
   210  C   4.0    0.03    4.43    4.43   355.82224   122.38472   192.82918
   211  C   4.0    0.08    3.25    3.04   354.70133   120.52947   190.91175
   212  O   6.0   -0.29    1.13    1.80   352.52044   119.74362   191.10893
   213  C   4.0   -0.02    4.25    4.11   356.36568   121.16917   195.39782
   214  C   4.0   -0.08    4.13    3.87   358.03616   118.85327   195.00546
   215  C   4.0   -0.08    4.12    3.84   357.69963   123.07972   197.09557
   216  H   1.0    0.08    1.07    1.44   352.37330   124.10416   193.94201
   217  H   1.0    0.05    1.06    1.44   357.57391   123.15871   192.05856
   218  H   1.0    0.05    1.05    1.44   354.56913   120.59982   196.25359
   219  H   1.0    0.04    1.00    1.43   358.61836   118.08405   196.81845
   220  H   1.0    0.05    1.00    1.43   357.04914   117.38661   193.95636
   221  H   1.0    0.04    1.00    1.43   359.70391   119.39814   193.93365
   222  H   1.0    0.03    1.00    1.43   357.91448   122.32299   198.98981
   223  H   1.0    0.03    1.00    1.43   359.56087   123.49223   196.33207
   224  H   1.0    0.04    1.00    1.43   356.63097   124.82766   197.19452
   225  N   5.0   -0.19    3.23    1.96   345.00026   125.19929   196.37902
   226  C   4.0    0.04    4.29    4.18   345.41433   127.83489   197.00495
   227  C   4.0    0.16    3.41    3.08   347.57889   128.05699   198.92240
   228  O   6.0   -0.30    1.26    1.80   347.72764   126.64103   200.75375
   229  C   4.0    0.03    4.14    3.89   342.98167   128.97749   198.08219
   230  O   6.0   -0.24    2.06    1.83   342.20097   127.57711   200.19151
   231  H   1.0    0.10    1.03    1.43   343.53528   124.32907   197.25665
   232  H   1.0    0.04    1.05    1.44   345.95082   128.86895   195.29145
   233  H   1.0    0.05    1.01    1.43   343.34577   130.96033   198.58241
   234  H   1.0    0.04    1.01    1.43   341.51974   128.93469   196.60319
   235  H   1.0    0.11    1.00    1.43   340.68672   128.38356   200.94772
   236  N   5.0   -0.14    3.46    2.05   349.25994   129.87260   198.42917
   237  C   4.0    0.05    4.37    4.33   351.41265   130.27079   200.05936
   238  C   4.0    0.15    3.42    3.08   351.77820   133.08859   200.51438
   239  O   6.0   -0.30    1.24    1.80   351.32521   134.68381   198.90405
   240  C   4.0   -0.07    4.10    3.81   353.79760   129.13277   198.89484
   241  H   1.0    0.11    1.09    1.44   349.15431   130.98415   196.86388
   242  H   1.0    0.07    1.07    1.44   351.01663   129.34597   201.86455
   243  H   1.0    0.05    1.00    1.43   355.36116   129.31746   200.21025
   244  H   1.0    0.04    1.00    1.43   353.46646   127.13939   198.52805
   245  H   1.0    0.05    1.00    1.43   354.24943   130.09054   197.13184
   246  N   5.0   -0.13    3.49    2.07   352.61775   133.62428   202.83600
   247  C   4.0    0.04    4.46    4.48   353.03049   136.18413   203.66960
   248  C   4.0    0.14    3.41    3.08   355.79412   136.53239   204.40587
   249  O   6.0   -0.30    1.26    1.80   357.00403   134.88249   205.48843
   250  C   4.0    0.06    4.21    4.03   351.24592   136.79617   205.93167
   251  O   6.0   -0.24    2.13    1.84   348.72737   136.27606   205.27311
   252  C   4.0   -0.06    4.08    3.77   351.39350   139.58595   206.64109
   253  H   1.0    0.12    1.09    1.44   353.15571   132.20972   204.00846
   254  H   1.0    0.06    1.07    1.44   352.53087   137.40489   202.07466
   255  H   1.0    0.06    1.03    1.43   351.84493   135.60368   207.52888
   256  H   1.0    0.16    1.06    1.44   348.41247   134.45419   205.31550
   257  H   1.0    0.05    1.00    1.43   350.10368   139.93735   208.19743
   258  H   1.0    0.07    1.01    1.43   353.29186   140.12051   207.20453
   259  H   1.0    0.05    1.00    1.43   350.79173   140.72234   205.04019
   260  N   5.0   -0.14    3.47    2.06   356.78978   138.75150   203.69304
   261  C   4.0    0.04    4.42    4.41   359.28260   139.56602   204.48045
   262  C   4.0    0.16    3.45    3.10   359.10763   140.64847   207.15227
   263  O   6.0   -0.30    1.26    1.80   357.19155   141.71284   207.89349
   264  C   4.0   -0.04    4.28    4.16   360.23829   141.60812   202.66229
   265  C   4.0   -0.03    4.24    4.08   363.05473   142.10624   203.05133
   266  C   4.0    0.15    3.22    3.04   363.96968   144.19951   201.30601
   267  O   6.0   -0.30    1.20    1.80   363.93326   144.03230   199.00843
   268  N   5.0   -0.18    3.19    1.95   364.78963   146.28039   202.50740
   269  H   1.0    0.08    1.07    1.44   355.62463   140.12624   203.06485
   270  H   1.0    0.07    1.06    1.44   360.54765   137.93336   204.48326
   271  H   1.0    0.05    1.03    1.43   359.93283   140.97849   200.72306
   272  H   1.0    0.05    1.03    1.43   359.16545   143.34417   202.97541
   273  H   1.0    0.06    1.04    1.43   363.42211   142.61033   205.01291
   274  H   1.0    0.06    1.03    1.43   364.08583   140.36956   202.61825
   275  H   1.0    0.10    1.03    1.43   364.87372   146.35849   204.40498
   276  H   1.0    0.10    1.03    1.43   365.46702   147.73915   201.48989
   277  N   5.0   -0.12    3.54    2.11   361.19386   140.44518   208.56584
   278  C   4.0    0.04    4.42    4.41   361.29394   141.55897   211.06253
   279  C   4.0    0.15    3.40    3.08   363.52200   143.42504   211.12844
   280  O   6.0   -0.31    1.33    1.80   364.68061   143.91898   209.18418
   281  C   4.0   -0.03    4.27    4.14   361.29870   139.51997   213.14442
   282  C   4.0    0.17    3.28    3.05   359.64775   137.30554   212.28632
   283  O   6.0   -0.29    1.25    1.80   360.52131   135.34473   211.40077
   284  N   5.0   -0.18    3.19    1.95   357.16502   137.64463   212.60707
   285  H   1.0    0.11    1.09    1.44   362.63232   139.31992   207.98437
   286  H   1.0    0.06    1.07    1.44   359.55066   142.69070   211.18605
   287  H   1.0    0.07    1.05    1.44   363.21112   138.81514   213.43080
   288  H   1.0    0.04    1.03    1.43   360.53800   140.27036   214.90211
   289  H   1.0    0.11    1.03    1.43   355.96984   136.28583   212.00064
   290  H   1.0    0.09    1.03    1.43   356.44136   139.33537   213.09352
   291  N   5.0   -0.15    3.44    2.04   364.02135   144.57533   213.34347
   292  C   4.0    0.04    4.39    4.36   365.38564   146.95950   213.36724
   293  C   4.0    0.15    3.41    3.08   368.02320   146.93635   212.15844
   294  O   6.0   -0.29    1.24    1.80   368.95801   148.97578   211.57066
   295  C   4.0   -0.05    4.24    4.07   365.50735   148.14035   216.03736
   296  C   4.0   -0.05    4.18    3.97   365.40349   146.30988   218.27556
   297  C   4.0   -0.04    4.17    3.94   367.48491   144.30200   218.23479
   298  C   4.0   -0.04    4.12    3.84   367.03291   142.19275   220.14481
   299  N   5.0   -0.12    4.02    2.91   367.09914   143.17215   222.78672
   300  H   1.0    0.07    1.07    1.44   362.80400   144.30783   214.78810
   301  H   1.0    0.06    1.06    1.44   364.37343   148.29574   212.13250
   302  H   1.0    0.05    1.03    1.43   367.24374   149.24971   216.11224
   303  H   1.0    0.04    1.03    1.43   363.93447   149.45946   216.22515
   304  H   1.0    0.04    1.03    1.43   365.58003   147.49514   219.95321
   305  H   1.0    0.04    1.03    1.43   363.55511   145.39556   218.33320
   306  H   1.0    0.05    1.04    1.43   367.57538   143.42847   216.37325
   307  H   1.0    0.04    1.02    1.43   369.32150   145.18062   218.55248
   308  H   1.0    0.04    1.02    1.43   365.19520   141.31997   219.80467
   309  H   1.0    0.05    1.02    1.43   368.49311   140.75748   219.91299
   310  H   1.0    0.06    1.02    1.43   366.86795   141.71290   224.05302
   311  H   1.0    0.06    1.02    1.43   368.80703   144.03897   223.13264
   312  H   1.0    0.05    1.02    1.43   365.67226   144.47207   223.03253
   313  N   5.0   -0.14    3.55    2.11   369.25560   144.75340   211.86939
   314  C   4.0    0.04    4.45    4.47   371.76387   144.62755   210.80303
   315  C   4.0    0.16    3.45    3.10   371.84053   143.22924   208.28001
   316  O   6.0   -0.31    1.28    1.80   373.87359   142.66899   207.29292
   317  C   4.0   -0.02    4.28    4.16   373.57315   143.31642   212.63302
   318  C   4.0    0.25    3.14    3.03   372.57087   140.64880   213.35916
   319  O   6.0   -0.31    1.33    1.80   370.69190   139.85788   212.14858
   320  O   6.0   -0.31    1.17    1.80   373.65540   139.53134   215.10805
   321  H   1.0    0.11    1.09    1.44   368.52809   143.04166   212.31702
   322  H   1.0    0.06    1.06    1.44   372.38866   146.57455   210.45203
   323  H   1.0    0.06    1.03    1.43   375.40788   143.03372   211.73093
   324  H   1.0    0.05    1.02    1.43   373.86106   144.41590   214.35176
   325  N   5.0   -0.14    3.42    2.03   369.61334   142.81730   207.16037
   326  C   4.0    0.02    4.26    4.13   369.40752   141.35644   204.88403
   327  C   4.0    0.17    3.37    3.07   369.02531   138.51099   205.27880
   328  O   6.0   -0.30    1.25    1.80   368.82286   137.12228   203.43213
   329  H   1.0    0.11    1.11    1.45   367.98408   143.21157   208.09531
   330  H   1.0    0.05    1.04    1.43   367.80524   142.02692   203.77753
   331  H   1.0    0.06    1.04    1.43   371.11376   141.62817   203.75846
   332  N   5.0   -0.11    3.52    2.09   368.83866   137.73039   207.66611
   333  C   4.0    0.05    4.40    4.38   368.09060   135.16748   208.22936
   334  C   4.0    0.17    3.51    3.12   365.55937   134.69237   206.92164
   335  O   6.0   -0.30    1.33    1.80   364.20817   136.46342   206.26274
   336  C   4.0    0.05    4.16    3.92   367.79563   134.79152   211.08934
   337  O   6.0   -0.23    2.08    1.84   365.74198   136.11992   212.09723
   338  H   1.0    0.12    1.12    1.45   369.38139   138.81113   209.16398
   339  H   1.0    0.06    1.05    1.44   369.48979   133.81032   207.51400
   340  H   1.0    0.07    1.02    1.43   367.64027   132.76445   211.46967
   341  H   1.0    0.07    1.02    1.43   369.48043   135.53393   212.02913
   342  H   1.0    0.16    1.05    1.44   364.15972   135.27795   211.64978
   343  N   5.0   -0.13    3.47    2.06   364.95711   132.28104   206.55305
   344  C   4.0    0.04    4.54    4.59   362.63288   131.67149   205.24394
   345  C   4.0    0.15    3.42    3.08   361.40451   129.35261   206.42160
   346  O   6.0   -0.30    1.22    1.80   362.43227   127.29138   206.63332
   347  C   4.0   -0.02    4.33    4.25   363.08501   131.37721   202.37419
   348  C   4.0   -0.05    4.20    3.99   360.57429   130.77458   201.06462
   349  C   4.0   -0.06    4.12    3.85   365.11399   129.41158   201.82459
   350  C   4.0   -0.08    4.01    3.64   360.72616   131.03592   198.20083
   351  H   1.0    0.12    1.08    1.44   365.92727   130.87314   207.44529
   352  H   1.0    0.07    1.08    1.44   361.36011   133.28367   205.52423
   353  H   1.0    0.05    1.05    1.44   363.76954   133.22069   201.71638
   354  H   1.0    0.05    1.03    1.43   360.00613   128.85606   201.57422
   355  H   1.0    0.05    1.03    1.43   359.13665   132.06414   201.79821
   356  H   1.0    0.04    1.00    1.43   365.42843   129.25538   199.80524
   357  H   1.0    0.06    1.00    1.43   366.89124   129.95647   202.70464
   358  H   1.0    0.06    1.00    1.43   364.56213   127.58408   202.58247
   359  H   1.0    0.04    1.00    1.43   358.86128   130.81910   197.37341
   360  H   1.0    0.04    1.00    1.43   361.45474   132.89163   197.70913
   361  H   1.0    0.03    1.00    1.43   361.96854   129.61286   197.40480
   362  N   5.0   -0.13    3.52    2.09   359.03041   129.80495   207.17182
   363  C   4.0    0.04    4.35    4.29   357.45163   127.99493   208.45351
   364  C   4.0    0.15    3.41    3.08   355.18986   127.36463   206.75658
   365  O   6.0   -0.30    1.28    1.80   354.41088   128.86942   205.18775
   366  C   4.0    0.05    4.12    3.84   356.61790   129.12876   211.03933
   367  O   6.0   -0.23    2.06    1.83   356.22151   131.74580   210.94881
   368  H   1.0    0.12    1.09    1.44   358.20329   131.49301   206.79399
   369  H   1.0    0.05    1.06    1.44   358.57707   126.29273   208.78795
   370  H   1.0    0.06    1.01    1.43   354.82447   128.28069   211.62300
   371  H   1.0    0.06    1.01    1.43   358.08076   128.67009   212.43472
   372  H   1.0    0.15    1.04    1.43   357.85119   132.59944   210.83288
   373  N   5.0   -0.14    3.47    2.06   354.24197   125.01829   207.01497
   374  C   4.0    0.04    4.53    4.58   351.88051   124.35854   205.78459
   375  C   4.0    0.16    3.46    3.10   349.71455   125.09477   207.55122
   376  O   6.0   -0.28    1.24    1.80   349.91986   124.94177   209.85568
   377  C   4.0   -0.02    4.33    4.25   351.82244   121.54096   205.08200
   378  C   4.0   -0.05    4.19    3.99   353.91123   120.99695   203.14683
   379  C   4.0   -0.06    4.14    3.89   349.22235   120.87422   204.03400
   380  C   4.0   -0.07    4.01    3.63   354.36345   118.18252   202.72798
   381  H   1.0    0.09    1.07    1.44   354.62835   124.04014   208.60849
   382  H   1.0    0.06    1.07    1.44   351.74546   125.49832   204.06584
   383  H   1.0    0.05    1.05    1.44   352.17214   120.44310   206.80315
   384  H   1.0    0.04    1.03    1.43   353.38673   121.90044   201.36800
   385  H   1.0    0.04    1.03    1.43   355.65361   121.88022   203.80686
   386  H   1.0    0.05    1.00    1.43   349.23558   118.96815   203.27534
   387  H   1.0    0.07    1.01    1.43   347.78254   120.99717   205.49455
   388  H   1.0    0.06    1.00    1.43   348.71890   122.19039   202.53622
   389  H   1.0    0.04    1.00    1.43   355.93749   117.90506   201.43996
   390  H   1.0    0.05    1.00    1.43   354.80474   117.25130   204.50519
   391  H   1.0    0.04    1.00    1.43   352.71204   117.28083   201.90921
   392  N   5.0   -0.12    3.51    2.08   347.64460   125.95743   206.39604
   393  C   4.0    0.05    4.34    4.27   345.45980   126.74571   207.83010
   394  C   4.0    0.09    3.21    3.04   344.12920   124.38907   208.91612
   395  O   6.0   -0.28    1.14    1.80   344.31308   122.33101   207.88978
   396  C   4.0   -0.03    4.32    4.23   343.69147   128.26931   206.14401
   397  C   4.0    0.16    3.23    3.04   344.83991   130.76132   205.28858
   398  O   6.0   -0.29    1.27    1.80   347.06074   131.32398   205.62882
   399  N   5.0   -0.18    3.19    1.95   343.18852   132.28659   204.14326
   400  H   1.0    0.11    1.09    1.44   347.57707   126.10816   204.48831
   401  H   1.0    0.06    1.05    1.44   346.12377   127.90831   209.41744
   402  H   1.0    0.06    1.04    1.43   343.27532   127.19622   204.43030
   403  H   1.0    0.04    1.03    1.43   341.91929   128.65793   207.11579
   404  H   1.0    0.10    1.03    1.43   343.78260   133.97099   203.48148
   405  H   1.0    0.08    1.03    1.43   341.40263   131.70679   203.76901
   406  H   1.0    0.09    1.07    1.44   363.44540   133.44765   180.79667
   407  H   1.0    0.05    1.05    1.44   369.00121   135.61028   184.74596
   408  H   1.0    0.09    1.07    1.44   370.08807   138.18142   188.35326
   409  H   1.0    0.05    1.04    1.44   374.36396   139.72241   193.62105
   410  H   1.0    0.10    1.08    1.44   377.99506   140.02253   198.56308
   411  H   1.0    0.06    1.04    1.44   380.51818   139.46693   204.72584
   412  H   1.0    0.10    1.07    1.44   378.58384   136.98320   209.61253
   413  H   1.0    0.06    1.04    1.44   379.51134   135.69037   216.91725
   414  H   1.0    0.10    1.07    1.44   378.72401   131.63883   203.52232
   415  H   1.0    0.06    1.05    1.44   375.43401   129.98706   198.59094
   416  H   1.0    0.10    1.08    1.44   373.96957   122.27667   202.72026
   417  H   1.0    0.06    1.05    1.44   371.45490   120.38734   205.57973
   418  H   1.0    0.10    1.07    1.44   369.21318   119.94811   210.92424
   419  H   1.0    0.07    1.05    1.44   363.67089   115.48999   204.90924
   420  H   1.0    0.08    1.08    1.44   364.39050   124.28260   189.80930
   421  H   1.0    0.05    1.04    1.43   345.84160   135.15393   176.93180
   422  H   1.0    0.09    1.07    1.44   344.96603   141.50015   188.32783
   423  H   1.0    0.05    1.04    1.43   355.74642   119.92795   189.45675
   424  H   1.0    0.09    1.07    1.44   344.69424   125.05287   194.71245
   425  H   1.0    0.06    1.04    1.43   343.09224   124.53049   210.48958

  Z AO/shell   Hii/eV     exponent
  1     Wed Apr 25 08:07:45 CEST 2018   EN: 2.200 GM2: 0.406  GM3: 0.0800  RAES: 1.40
     1s    -10.707211    1.230000
  6     Wed Apr 25 08:07:45 CEST 2018   EN: 2.550 GM2: 0.538  GM3: 0.1500  RAES: 3.00
     2s    -13.970922    2.096432
     2p    -10.063292    1.800000
  7     Wed Apr 25 08:07:45 CEST 2018   EN: 3.040 GM2: 0.461  GM3:-0.0640  RAES: 1.90
     2s    -16.686243    2.339881
     2p    -12.523956    2.014332
  8     Wed Apr 25 08:07:45 CEST 2018   EN: 3.440 GM2: 0.452  GM3:-0.0517  RAES: 1.80
     2s    -20.229985    2.439742
     2p    -15.503117    2.137023
 16     Tue Apr 24 11:44:34 CEST 2018   EN: 2.580 GM2: 0.340  GM3:-0.0502  RAES: 3.10
     3s    -20.029654    1.981333
     3p    -11.377694    2.025643
     3d     -0.420282    1.702555
 no old-style atom pair restraining (fixing) potential

molecular fragmentation (1/2 indicates fragments):
111111111122222222222222222222222222222222222222222222222222222222222222
222222222222222222222222222222222222222222222222222222222222222222222222
222222222222222222222222222222222222222222222222222222222222222222222222
222222222222222222222222222222222222222222222222222222222222222222222222
222222222222222222222222222222222222222222222222222222222222222222222222
22222222222222222222222222222222222222222222211222222222222222222
# atoms in fragment 1/2:    12   413
 fragment masses (1/2) :       73.09     2787.30
CMA distance (Bohr)    :  16.738
constraining FC (au)   :  0.0500
           ------------------------------------------------- 
          |        Self-Consistent Charge Iterations        |
           ------------------------------------------------- 

 Ncao       : 1025
 Nao        : 1024
 Nshell     : 624
 Nel        : 1138
 T(el)      :   500.0
 intcut     :    35.0
 scfconv/Eh :  0.100E-06
   qconv/e  :  0.100E-04
 intneglect :  0.100E-08
 broydamp   :      0.400
 iter      E             dE          RMSdq      gap      omega  full diag
   1   -653.1533013 -0.653153E+03  0.470E+00    3.03       0.0  T
   2   -654.8531558 -0.169985E+01  0.216E+00    1.73       1.0  T
   3   -654.9650024 -0.111847E+00  0.126E+00    1.94       1.0  T
   4   -655.0690521 -0.104050E+00  0.260E-01    1.49       1.0  T
   5   -655.0746635 -0.561139E-02  0.122E-01    1.69       1.0  T
   6   -655.0756548 -0.991308E-03  0.491E-02    1.66       1.0  T
   7   -655.0758542 -0.199382E-03  0.211E-02    1.66       1.0  T
   8   -655.0758786 -0.244474E-04  0.873E-03    1.66       1.0  T
   9   -655.0758853 -0.668943E-05  0.379E-03    1.66       1.3  T
  10   -655.0758861 -0.748223E-06  0.154E-03    1.65       3.2  T
  11   -655.0758863 -0.210432E-06  0.767E-04    1.65       6.3  T
  12   -655.0758863 -0.479683E-07  0.309E-04    1.65      15.7  T
  13   -655.0758863 -0.518287E-08  0.157E-04    1.65      30.9  T
  14   -655.0758863 -0.164880E-08  0.568E-05    1.65      85.4  T
  15   -655.0758863 -0.182695E-09  0.237E-05    1.65     204.9  T
speedup 15.98
cpu  time for SCC   36.06 s
wall time for SCC    2.26 s

   *** convergence criteria satisfied after 15 iterations ***

          eigenvalues
 #    :         557        558        559        560        561        562        563        564
 occ. :        2.000      2.000      2.000      2.000      2.000      2.000      2.000      2.000
 eps  :       -10.300    -10.290    -10.250    -10.181    -10.153    -10.057    -10.022     -9.996
 #    :         565        566        567        568        569        570        571        572
 occ. :        2.000      2.000      2.000      2.000      2.000      0.000      0.000      0.000
 eps  :        -9.932     -9.830     -9.763     -9.693     -9.687     -8.034     -8.028     -7.962
 #    :         573        574        575        576        577        578        579        580
 occ. :        0.000      0.000      0.000      0.000      0.000      0.000      0.000      0.000
 eps  :        -7.955     -7.945     -7.864     -7.781     -7.763     -7.546     -7.536     -6.996


   #   Z            q   n(s)   n(p)   n(d)      C6AA      α(0)
   1   7 N     -0.402  1.325  4.077  0.000    30.438     8.194
   2   6 C      0.041  1.054  2.905  0.000    19.899     6.355
   3   6 C      0.203  1.091  2.706  0.000    23.691     7.971
   4   8 O     -0.366  1.758  4.608  0.000    21.011     6.146
   5   6 C     -0.117  1.040  3.077  0.000    22.794     6.807
   6   1 H      0.175  0.825  0.000  0.000     1.243     1.747
   7   1 H      0.061  0.939  0.000  0.000     2.189     2.314
   8   1 H      0.049  0.951  0.000  0.000     2.333     2.389
   9   1 H      0.055  0.945  0.000  0.000     2.261     2.351
  10   1 H      0.040  0.960  0.000  0.000     2.444     2.445
  11   7 N     -0.390  1.311  4.078  0.000    30.090     8.147
  12   6 C      0.037  1.060  2.902  0.000    19.960     6.364
  13   6 C      0.198  1.089  2.712  0.000    23.774     7.985
  14   8 O     -0.372  1.759  4.612  0.000    21.122     6.162
  15   6 C     -0.010  1.062  2.948  0.000    20.711     6.473
  16   6 C     -0.113  1.039  3.074  0.000    22.718     6.796
  17   6 C     -0.111  1.039  3.072  0.000    22.671     6.789
  18   1 H      0.175  0.825  0.000  0.000     1.242     1.746
  19   1 H      0.043  0.957  0.000  0.000     2.415     2.430
  20   1 H      0.032  0.968  0.000  0.000     2.557     2.500
  21   1 H      0.036  0.964  0.000  0.000     2.497     2.471
  22   1 H      0.018  0.982  0.000  0.000     2.771     2.603
  23   1 H      0.057  0.943  0.000  0.000     2.233     2.337
  24   1 H      0.041  0.959  0.000  0.000     2.429     2.437
  25   1 H      0.053  0.947  0.000  0.000     2.282     2.362
  26   1 H      0.052  0.948  0.000  0.000     2.294     2.369
  27   7 N     -0.363  1.301  4.063  0.000    29.376     8.050
  28   6 C     -0.021  1.050  2.971  0.000    21.050     6.549
  29   6 C      0.193  1.089  2.718  0.000    23.875     8.002
  30   8 O     -0.386  1.752  4.634  0.000    21.403     6.203
  31   1 H      0.174  0.826  0.000  0.000     1.247     1.749
  32   1 H      0.104  0.896  0.000  0.000     1.747     2.067
  33   1 H      0.092  0.908  0.000  0.000     1.863     2.134
  34   7 N     -0.373  1.307  4.066  0.000    29.631     8.084
  35   6 C      0.051  1.049  2.900  0.000    19.735     6.328
  36   6 C      0.202  1.090  2.707  0.000    23.695     7.972
  37   8 O     -0.370  1.755  4.615  0.000    21.084     6.156
  38   6 C     -0.094  1.037  3.057  0.000    22.355     6.741
  39   1 H      0.160  0.840  0.000  0.000     1.338     1.812
  40   1 H      0.059  0.941  0.000  0.000     2.213     2.327
  41   1 H      0.040  0.960  0.000  0.000     2.450     2.448
  42   1 H      0.040  0.960  0.000  0.000     2.445     2.445
  43   1 H      0.035  0.965  0.000  0.000     2.518     2.482
  44   7 N     -0.395  1.307  4.089  0.000    30.241     8.167
  45   6 C      0.054  1.048  2.897  0.000    19.681     6.319
  46   6 C      0.196  1.097  2.707  0.000    23.821     7.993
  47   8 O     -0.374  1.751  4.623  0.000    21.161     6.167
  48   6 C     -0.088  1.059  3.028  0.000    22.164     6.702
  49   6 C      0.301  1.037  2.662  0.000    21.894     7.662
  50   8 O     -0.513  1.757  4.757  0.000    24.080     6.579
  51   7 N     -0.292  1.275  4.017  0.000    27.538     7.794
  52   1 H      0.189  0.811  0.000  0.000     1.166     1.692
  53   1 H      0.036  0.964  0.000  0.000     2.505     2.475
  54   1 H      0.071  0.929  0.000  0.000     2.070     2.250
  55   1 H      0.072  0.928  0.000  0.000     2.068     2.249
  56   1 H      0.233  0.767  0.000  0.000     0.951     1.527
  57   1 H      0.212  0.788  0.000  0.000     1.048     1.603
  58   7 N     -0.377  1.311  4.066  0.000    29.745     8.100
  59   6 C      0.040  1.053  2.907  0.000    19.923     6.358
  60   6 C      0.188  1.088  2.724  0.000    23.983     8.020
  61   8 O     -0.379  1.752  4.627  0.000    21.258     6.182
  62   6 C     -0.066  1.058  3.008  0.000    21.756     6.639
  63   6 C     -0.010  1.056  2.954  0.000    20.729     6.476
  64   6 C     -0.117  1.043  3.074  0.000    22.787     6.806
  65   6 C     -0.119  1.040  3.080  0.000    22.841     6.814
  66   1 H      0.159  0.841  0.000  0.000     1.339     1.812
  67   1 H      0.060  0.940  0.000  0.000     2.200     2.320
  68   1 H      0.051  0.949  0.000  0.000     2.301     2.372
  69   1 H      0.053  0.947  0.000  0.000     2.285     2.364
  70   1 H      0.045  0.955  0.000  0.000     2.381     2.413
  71   1 H      0.042  0.958  0.000  0.000     2.420     2.433
  72   1 H      0.044  0.956  0.000  0.000     2.390     2.418
  73   1 H      0.045  0.955  0.000  0.000     2.387     2.416
  74   1 H      0.045  0.955  0.000  0.000     2.380     2.412
  75   1 H      0.035  0.965  0.000  0.000     2.523     2.484
  76   1 H      0.036  0.964  0.000  0.000     2.498     2.471
  77   7 N     -0.381  1.308  4.073  0.000    29.861     8.116
  78   6 C      0.035  1.060  2.905  0.000    20.004     6.370
  79   6 C      0.271  1.046  2.683  0.000    22.419     7.754
  80   8 O     -0.502  1.747  4.756  0.000    23.830     6.545
  81   6 C     -0.041  1.049  2.992  0.000    21.305     6.570
  82   6 C     -0.086  1.064  3.022  0.000    22.150     6.701
  83   6 C      0.373  1.026  2.601  0.000    20.685     7.443
  84   8 O     -0.646  1.773  4.874  0.000    27.282     7.003
  85   8 O     -0.632  1.768  4.864  0.000    26.927     6.957
  86   1 H      0.144  0.856  0.000  0.000     1.444     1.883
  87   1 H      0.029  0.971  0.000  0.000     2.595     2.519
  88   1 H      0.037  0.963  0.000  0.000     2.494     2.470
  89   1 H      0.017  0.983  0.000  0.000     2.775     2.605
  90   1 H      0.017  0.983  0.000  0.000     2.775     2.605
  91   1 H      0.017  0.983  0.000  0.000     2.778     2.606
  92   7 N     -0.159  1.239  3.921  0.000    24.450     7.344
  93   6 C      0.036  1.055  2.909  0.000    19.986     6.367
  94   6 C      0.209  1.086  2.705  0.000    23.569     7.951
  95   8 O     -0.354  1.750  4.604  0.000    20.776     6.111
  96   6 C     -0.122  1.040  3.082  0.000    22.897     6.822
  97   1 H      0.208  0.792  0.000  0.000     1.065     1.617
  98   1 H      0.078  0.922  0.000  0.000     2.001     2.212
  99   1 H      0.083  0.917  0.000  0.000     1.948     2.183
 100   1 H      0.063  0.937  0.000  0.000     2.164     2.301
 101   1 H      0.075  0.925  0.000  0.000     2.029     2.227
 102   7 N     -0.388  1.317  4.071  0.000    30.041     8.140
 103   6 C      0.026  1.063  2.912  0.000    20.152     6.393
 104   6 C      0.277  1.044  2.679  0.000    22.314     7.736
 105   8 O     -0.498  1.745  4.753  0.000    23.734     6.532
 106   6 C     -0.018  1.061  2.957  0.000    20.853     6.495
 107   6 C     -0.110  1.040  3.071  0.000    22.663     6.787
 108   6 C     -0.104  1.038  3.066  0.000    22.540     6.769
 109   1 H      0.154  0.846  0.000  0.000     1.376     1.838
 110   1 H      0.044  0.956  0.000  0.000     2.390     2.418
 111   1 H      0.037  0.963  0.000  0.000     2.493     2.469
 112   1 H      0.041  0.959  0.000  0.000     2.431     2.438
 113   1 H      0.032  0.968  0.000  0.000     2.552     2.498
 114   1 H      0.039  0.961  0.000  0.000     2.464     2.455
 115   1 H      0.033  0.967  0.000  0.000     2.541     2.493
 116   1 H      0.039  0.961  0.000  0.000     2.469     2.457
 117   1 H      0.036  0.964  0.000  0.000     2.506     2.475
 118   7 N     -0.172  1.241  3.931  0.000    24.732     7.386
 119   6 C      0.016  1.062  2.922  0.000    20.299     6.414
 120   6 C      0.269  1.042  2.689  0.000    22.460     7.760
 121   8 O     -0.474  1.736  4.738  0.000    23.206     6.459
 122   6 C     -0.016  1.064  2.951  0.000    20.817     6.489
 123   6 C     -0.114  1.039  3.075  0.000    22.740     6.799
 124   6 C     -0.115  1.037  3.078  0.000    22.748     6.801
 125   1 H      0.224  0.776  0.000  0.000     0.993     1.561
 126   1 H      0.066  0.934  0.000  0.000     2.134     2.285
 127   1 H      0.046  0.954  0.000  0.000     2.370     2.408
 128   1 H      0.053  0.947  0.000  0.000     2.284     2.363
 129   1 H      0.046  0.954  0.000  0.000     2.375     2.410
 130   1 H      0.040  0.960  0.000  0.000     2.454     2.450
 131   1 H      0.054  0.946  0.000  0.000     2.271     2.357
 132   1 H      0.046  0.954  0.000  0.000     2.367     2.406
 133   1 H      0.041  0.959  0.000  0.000     2.436     2.441
 134   7 N     -0.169  1.244  3.925  0.000    24.665     7.376
 135   6 C      0.012  1.067  2.921  0.000    20.382     6.429
 136   6 C      0.269  1.043  2.689  0.000    22.465     7.762
 137   8 O     -0.490  1.747  4.743  0.000    23.562     6.508
 138   6 C     -0.081  1.056  3.026  0.000    22.047     6.685
 139   6 C     -0.077  1.049  3.027  0.000    21.962     6.672
 140   6 C     -0.097  1.052  3.045  0.000    22.344     6.730
 141   6 C     -0.047  1.057  2.990  0.000    21.506     6.619
 142   7 N     -0.141  1.233  3.908  0.000    24.051     7.284
 143   1 H      0.204  0.796  0.000  0.000     1.086     1.632
 144   1 H      0.078  0.922  0.000  0.000     2.003     2.213
 145   1 H      0.060  0.940  0.000  0.000     2.204     2.322
 146   1 H      0.072  0.928  0.000  0.000     2.066     2.248
 147   1 H      0.055  0.945  0.000  0.000     2.254     2.348
 148   1 H      0.071  0.929  0.000  0.000     2.076     2.253
 149   1 H      0.075  0.925  0.000  0.000     2.034     2.230
 150   1 H      0.083  0.917  0.000  0.000     1.947     2.182
 151   1 H      0.120  0.880  0.000  0.000     1.614     1.987
 152   1 H      0.109  0.891  0.000  0.000     1.704     2.041
 153   1 H      0.299  0.701  0.000  0.000     0.716     1.325
 154   1 H      0.284  0.716  0.000  0.000     0.763     1.368
 155   1 H      0.304  0.696  0.000  0.000     0.701     1.312
 156   7 N     -0.154  1.237  3.917  0.000    24.330     7.326
 157   6 C      0.027  1.057  2.916  0.000    20.134     6.390
 158   6 C      0.193  1.090  2.717  0.000    23.870     8.001
 159   8 O     -0.346  1.738  4.609  0.000    20.636     6.090
 160   6 C     -0.071  1.055  3.016  0.000    21.846     6.651
 161   6 C     -0.014  1.066  2.949  0.000    20.839     6.501
 162  16 S     -0.227  1.924  4.250  0.053   150.752    20.665
 163   6 C     -0.065  1.055  3.010  0.000    21.812     6.662
 164   1 H      0.222  0.778  0.000  0.000     1.001     1.567
 165   1 H      0.097  0.903  0.000  0.000     1.817     2.108
 166   1 H      0.077  0.923  0.000  0.000     2.010     2.217
 167   1 H      0.073  0.927  0.000  0.000     2.053     2.241
 168   1 H      0.062  0.938  0.000  0.000     2.171     2.304
 169   1 H      0.057  0.943  0.000  0.000     2.238     2.340
 170   1 H      0.062  0.938  0.000  0.000     2.171     2.304
 171   1 H      0.061  0.939  0.000  0.000     2.187     2.312
 172   1 H      0.064  0.936  0.000  0.000     2.157     2.297
 173   7 N     -0.377  1.305  4.072  0.000    29.744     8.100
 174   6 C     -0.012  1.047  2.965  0.000    20.877     6.521
 175   6 C      0.268  1.047  2.685  0.000    22.476     7.763
 176   8 O     -0.474  1.730  4.744  0.000    23.219     6.461
 177   1 H      0.154  0.846  0.000  0.000     1.376     1.838
 178   1 H      0.073  0.927  0.000  0.000     2.050     2.239
 179   1 H      0.021  0.979  0.000  0.000     2.720     2.579
 180   7 N     -0.170  1.243  3.927  0.000    24.685     7.379
 181   6 C      0.013  1.060  2.926  0.000    20.351     6.423
 182   6 C      0.272  1.045  2.684  0.000    22.411     7.752
 183   8 O     -0.500  1.741  4.759  0.000    23.786     6.539
 184   6 C     -0.072  1.058  3.014  0.000    21.861     6.655
 185   6 C     -0.013  1.058  2.955  0.000    20.767     6.482
 186   6 C     -0.112  1.040  3.072  0.000    22.690     6.791
 187   6 C     -0.119  1.040  3.079  0.000    22.840     6.814
 188   1 H      0.198  0.802  0.000  0.000     1.117     1.656
 189   1 H      0.099  0.901  0.000  0.000     1.797     2.096
 190   1 H      0.048  0.952  0.000  0.000     2.340     2.392
 191   1 H      0.041  0.959  0.000  0.000     2.431     2.438
 192   1 H      0.043  0.957  0.000  0.000     2.409     2.427
 193   1 H      0.047  0.953  0.000  0.000     2.364     2.404
 194   1 H      0.025  0.975  0.000  0.000     2.661     2.551
 195   1 H      0.034  0.966  0.000  0.000     2.530     2.487
 196   1 H      0.051  0.949  0.000  0.000     2.303     2.373
 197   1 H      0.040  0.960  0.000  0.000     2.453     2.449
 198   1 H      0.049  0.951  0.000  0.000     2.335     2.389
 199   7 N     -0.176  1.242  3.934  0.000    24.817     7.399
 200   6 C      0.023  1.054  2.924  0.000    20.197     6.399
 201   6 C      0.264  1.043  2.692  0.000    22.540     7.775
 202   8 O     -0.470  1.734  4.736  0.000    23.126     6.448
 203   6 C     -0.124  1.041  3.083  0.000    22.928     6.827
 204   1 H      0.232  0.768  0.000  0.000     0.955     1.531
 205   1 H      0.061  0.939  0.000  0.000     2.190     2.314
 206   1 H      0.061  0.939  0.000  0.000     2.185     2.312
 207   1 H      0.068  0.932  0.000  0.000     2.109     2.271
 208   1 H      0.072  0.928  0.000  0.000     2.066     2.248
 209   7 N     -0.160  1.249  3.911  0.000    24.471     7.347
 210   6 C      0.021  1.063  2.917  0.000    20.223     6.402
 211   6 C      0.199  1.089  2.712  0.000    23.771     7.985
 212   8 O     -0.358  1.758  4.601  0.000    20.867     6.124
 213   6 C     -0.016  1.061  2.955  0.000    20.830     6.491
 214   6 C     -0.123  1.041  3.082  0.000    22.914     6.825
 215   6 C     -0.124  1.041  3.083  0.000    22.927     6.826
 216   1 H      0.208  0.792  0.000  0.000     1.068     1.619
 217   1 H      0.091  0.909  0.000  0.000     1.870     2.138
 218   1 H      0.059  0.941  0.000  0.000     2.210     2.325
 219   1 H      0.056  0.944  0.000  0.000     2.241     2.341
 220   1 H      0.045  0.955  0.000  0.000     2.382     2.414
 221   1 H      0.056  0.944  0.000  0.000     2.247     2.344
 222   1 H      0.052  0.948  0.000  0.000     2.291     2.367
 223   1 H      0.052  0.948  0.000  0.000     2.299     2.371
 224   1 H      0.047  0.953  0.000  0.000     2.358     2.401
 225   7 N     -0.385  1.314  4.071  0.000    29.966     8.130
 226   6 C      0.029  1.058  2.913  0.000    20.106     6.387
 227   6 C      0.270  1.046  2.683  0.000    22.436     7.757
 228   8 O     -0.483  1.738  4.745  0.000    23.416     6.488
 229   6 C      0.078  1.038  2.884  0.000    19.483     6.323
 230   8 O     -0.471  1.731  4.740  0.000    22.277     6.371
 231   1 H      0.177  0.823  0.000  0.000     1.232     1.739
 232   1 H      0.041  0.959  0.000  0.000     2.437     2.441
 233   1 H      0.020  0.980  0.000  0.000     2.739     2.588
 234   1 H      0.038  0.962  0.000  0.000     2.471     2.458
 235   1 H      0.334  0.666  0.000  0.000     0.627     1.244
 236   7 N     -0.184  1.250  3.935  0.000    24.991     7.425
 237   6 C      0.025  1.054  2.921  0.000    20.150     6.391
 238   6 C      0.272  1.041  2.687  0.000    22.402     7.751
 239   8 O     -0.476  1.733  4.742  0.000    23.255     6.465
 240   6 C     -0.117  1.040  3.077  0.000    22.794     6.807
 241   1 H      0.225  0.775  0.000  0.000     0.986     1.555
 242   1 H      0.071  0.929  0.000  0.000     2.076     2.253
 243   1 H      0.058  0.942  0.000  0.000     2.226     2.333
 244   1 H      0.063  0.937  0.000  0.000     2.168     2.303
 245   1 H      0.050  0.950  0.000  0.000     2.323     2.384
 246   7 N     -0.174  1.242  3.932  0.000    24.766     7.391
 247   6 C      0.003  1.069  2.928  0.000    20.537     6.453
 248   6 C      0.271  1.044  2.686  0.000    22.427     7.755
 249   8 O     -0.495  1.749  4.747  0.000    23.680     6.524
 250   6 C      0.123  1.045  2.833  0.000    18.679     6.171
 251   8 O     -0.471  1.706  4.765  0.000    22.269     6.370
 252   6 C     -0.142  1.045  3.097  0.000    23.288     6.881
 253   1 H      0.213  0.787  0.000  0.000     1.040     1.598
 254   1 H      0.086  0.914  0.000  0.000     1.919     2.167
 255   1 H      0.010  0.990  0.000  0.000     2.894     2.660
 256   1 H      0.322  0.678  0.000  0.000     0.658     1.274
 257   1 H      0.077  0.923  0.000  0.000     2.013     2.219
 258   1 H      0.061  0.939  0.000  0.000     2.187     2.312
 259   1 H      0.068  0.932  0.000  0.000     2.103     2.268
 260   7 N     -0.174  1.252  3.921  0.000    24.761     7.390
 261   6 C      0.018  1.060  2.922  0.000    20.269     6.411
 262   6 C      0.269  1.046  2.685  0.000    22.457     7.761
 263   8 O     -0.474  1.730  4.744  0.000    23.210     6.459
 264   6 C     -0.066  1.054  3.012  0.000    21.760     6.640
 265   6 C     -0.101  1.056  3.045  0.000    22.423     6.741
 266   6 C      0.287  1.037  2.676  0.000    22.132     7.703
 267   8 O     -0.480  1.743  4.737  0.000    23.357     6.480
 268   7 N     -0.290  1.267  4.023  0.000    27.488     7.787
 269   1 H      0.223  0.777  0.000  0.000     0.997     1.564
 270   1 H      0.075  0.925  0.000  0.000     2.033     2.230
 271   1 H      0.079  0.921  0.000  0.000     1.985     2.203
 272   1 H      0.069  0.931  0.000  0.000     2.102     2.267
 273   1 H      0.060  0.940  0.000  0.000     2.202     2.320
 274   1 H      0.057  0.943  0.000  0.000     2.232     2.336
 275   1 H      0.218  0.782  0.000  0.000     1.017     1.580
 276   1 H      0.241  0.759  0.000  0.000     0.918     1.501
 277   7 N     -0.173  1.240  3.933  0.000    24.743     7.388
 278   6 C      0.014  1.064  2.922  0.000    20.351     6.423
 279   6 C      0.266  1.048  2.686  0.000    22.517     7.770
 280   8 O     -0.487  1.744  4.742  0.000    23.493     6.498
 281   6 C     -0.129  1.067  3.061  0.000    22.968     6.823
 282   6 C      0.296  1.036  2.669  0.000    21.986     7.678
 283   8 O     -0.515  1.770  4.745  0.000    24.122     6.585
 284   7 N     -0.266  1.260  4.006  0.000    26.897     7.703
 285   1 H      0.206  0.794  0.000  0.000     1.074     1.623
 286   1 H      0.115  0.885  0.000  0.000     1.659     2.014
 287   1 H      0.099  0.901  0.000  0.000     1.796     2.096
 288   1 H      0.108  0.892  0.000  0.000     1.718     2.050
 289   1 H      0.220  0.780  0.000  0.000     1.011     1.575
 290   1 H      0.252  0.748  0.000  0.000     0.876     1.466
 291   7 N     -0.181  1.261  3.920  0.000    24.913     7.413
 292   6 C      0.013  1.066  2.922  0.000    20.374     6.428
 293   6 C      0.280  1.040  2.680  0.000    22.267     7.727
 294   8 O     -0.492  1.748  4.744  0.000    23.607     6.514
 295   6 C     -0.085  1.056  3.029  0.000    22.124     6.697
 296   6 C     -0.095  1.057  3.038  0.000    22.311     6.725
 297   6 C     -0.090  1.048  3.043  0.000    22.221     6.711
 298   6 C     -0.048  1.058  2.990  0.000    21.523     6.623
 299   7 N     -0.146  1.229  3.917  0.000    24.151     7.299
 300   1 H      0.237  0.763  0.000  0.000     0.937     1.517
 301   1 H      0.085  0.915  0.000  0.000     1.932     2.174
 302   1 H      0.076  0.924  0.000  0.000     2.025     2.225
 303   1 H      0.087  0.913  0.000  0.000     1.908     2.160
 304   1 H      0.095  0.905  0.000  0.000     1.832     2.117
 305   1 H      0.074  0.926  0.000  0.000     2.047     2.237
 306   1 H      0.056  0.944  0.000  0.000     2.251     2.346
 307   1 H      0.073  0.927  0.000  0.000     2.049     2.238
 308   1 H      0.116  0.884  0.000  0.000     1.646     2.006
 309   1 H      0.101  0.899  0.000  0.000     1.780     2.087
 310   1 H      0.304  0.696  0.000  0.000     0.700     1.311
 311   1 H      0.300  0.700  0.000  0.000     0.713     1.323
 312   1 H      0.305  0.695  0.000  0.000     0.698     1.309
 313   7 N     -0.174  1.236  3.938  0.000    24.764     7.391
 314   6 C      0.030  1.055  2.914  0.000    20.069     6.379
 315   6 C      0.276  1.046  2.677  0.000    22.325     7.738
 316   8 O     -0.509  1.743  4.766  0.000    23.975     6.565
 317   6 C     -0.101  1.067  3.034  0.000    22.425     6.742
 318   6 C      0.371  1.022  2.608  0.000    20.714     7.448
 319   8 O     -0.631  1.766  4.865  0.000    26.899     6.954
 320   8 O     -0.608  1.766  4.843  0.000    26.326     6.879
 321   1 H      0.201  0.799  0.000  0.000     1.100     1.643
 322   1 H      0.090  0.910  0.000  0.000     1.879     2.144
 323   1 H      0.043  0.957  0.000  0.000     2.404     2.425
 324   1 H      0.056  0.944  0.000  0.000     2.248     2.345
 325   7 N     -0.180  1.243  3.937  0.000    24.897     7.411
 326   6 C     -0.034  1.048  2.986  0.000    21.249     6.575
 327   6 C      0.283  1.038  2.679  0.000    22.210     7.717
 328   8 O     -0.515  1.748  4.767  0.000    24.118     6.584
 329   1 H      0.225  0.775  0.000  0.000     0.986     1.555
 330   1 H      0.093  0.907  0.000  0.000     1.848     2.126
 331   1 H      0.092  0.908  0.000  0.000     1.856     2.131
 332   7 N     -0.186  1.248  3.937  0.000    25.027     7.430
 333   6 C      0.045  1.051  2.904  0.000    19.815     6.338
 334   6 C      0.290  1.039  2.671  0.000    22.081     7.696
 335   8 O     -0.490  1.723  4.767  0.000    23.563     6.508
 336   6 C      0.086  1.032  2.882  0.000    19.362     6.303
 337   8 O     -0.452  1.689  4.763  0.000    21.885     6.315
 338   1 H      0.233  0.767  0.000  0.000     0.951     1.528
 339   1 H      0.021  0.979  0.000  0.000     2.718     2.578
 340   1 H      0.018  0.982  0.000  0.000     2.769     2.602
 341   1 H      0.057  0.943  0.000  0.000     2.230     2.336
 342   1 H      0.317  0.683  0.000  0.000     0.673     1.289
 343   7 N     -0.182  1.254  3.928  0.000    24.953     7.419
 344   6 C      0.035  1.059  2.906  0.000    19.977     6.362
 345   6 C      0.281  1.041  2.678  0.000    22.241     7.723
 346   8 O     -0.496  1.747  4.750  0.000    23.705     6.528
 347   6 C     -0.010  1.063  2.947  0.000    20.720     6.474
 348   6 C     -0.058  1.048  3.009  0.000    21.607     6.618
 349   6 C     -0.107  1.034  3.073  0.000    22.593     6.778
 350   6 C     -0.112  1.037  3.075  0.000    22.707     6.795
 351   1 H      0.201  0.799  0.000  0.000     1.099     1.642
 352   1 H      0.063  0.937  0.000  0.000     2.161     2.299
 353   1 H      0.036  0.964  0.000  0.000     2.508     2.476
 354   1 H      0.029  0.971  0.000  0.000     2.607     2.525
 355   1 H      0.028  0.972  0.000  0.000     2.613     2.528
 356   1 H      0.067  0.933  0.000  0.000     2.121     2.278
 357   1 H      0.017  0.983  0.000  0.000     2.772     2.604
 358   1 H      0.043  0.957  0.000  0.000     2.403     2.424
 359   1 H      0.054  0.946  0.000  0.000     2.265     2.354
 360   1 H      0.045  0.955  0.000  0.000     2.379     2.412
 361   1 H      0.058  0.942  0.000  0.000     2.228     2.334
 362   7 N     -0.182  1.245  3.937  0.000    24.935     7.416
 363   6 C      0.016  1.061  2.923  0.000    20.313     6.419
 364   6 C      0.271  1.045  2.684  0.000    22.423     7.754
 365   8 O     -0.461  1.727  4.734  0.000    22.928     6.420
 366   6 C      0.077  1.038  2.885  0.000    19.516     6.330
 367   8 O     -0.449  1.697  4.752  0.000    21.825     6.307
 368   1 H      0.232  0.768  0.000  0.000     0.957     1.532
 369   1 H      0.055  0.945  0.000  0.000     2.261     2.352
 370   1 H      0.063  0.937  0.000  0.000     2.166     2.302
 371   1 H      0.029  0.971  0.000  0.000     2.596     2.520
 372   1 H      0.319  0.681  0.000  0.000     0.666     1.282
 373   7 N     -0.173  1.259  3.914  0.000    24.736     7.387
 374   6 C      0.014  1.068  2.918  0.000    20.329     6.419
 375   6 C      0.275  1.042  2.683  0.000    22.355     7.743
 376   8 O     -0.518  1.752  4.766  0.000    24.184     6.593
 377   6 C     -0.019  1.065  2.955  0.000    20.883     6.500
 378   6 C     -0.066  1.052  3.014  0.000    21.759     6.641
 379   6 C     -0.131  1.041  3.090  0.000    23.067     6.848
 380   6 C     -0.110  1.037  3.073  0.000    22.665     6.789
 381   1 H      0.197  0.803  0.000  0.000     1.119     1.657
 382   1 H      0.082  0.918  0.000  0.000     1.959     2.189
 383   1 H      0.036  0.964  0.000  0.000     2.496     2.471
 384   1 H      0.052  0.948  0.000  0.000     2.292     2.367
 385   1 H      0.030  0.970  0.000  0.000     2.593     2.518
 386   1 H      0.065  0.935  0.000  0.000     2.144     2.290
 387   1 H      0.049  0.951  0.000  0.000     2.330     2.387
 388   1 H      0.063  0.937  0.000  0.000     2.170     2.303
 389   1 H      0.042  0.958  0.000  0.000     2.417     2.431
 390   1 H      0.036  0.964  0.000  0.000     2.504     2.474
 391   1 H      0.053  0.947  0.000  0.000     2.281     2.362
 392   7 N     -0.157  1.239  3.918  0.000    24.404     7.337
 393   6 C      0.038  1.052  2.910  0.000    19.938     6.358
 394   6 C      0.199  1.088  2.713  0.000    23.760     7.983
 395   8 O     -0.349  1.753  4.595  0.000    20.682     6.097
 396   6 C     -0.118  1.062  3.056  0.000    22.741     6.787
 397   6 C      0.294  1.032  2.673  0.000    22.010     7.682
 398   8 O     -0.495  1.755  4.740  0.000    23.669     6.523
 399   7 N     -0.273  1.259  4.014  0.000    27.065     7.726
 400   1 H      0.234  0.766  0.000  0.000     0.950     1.527
 401   1 H      0.087  0.913  0.000  0.000     1.913     2.163
 402   1 H      0.118  0.882  0.000  0.000     1.627     1.995
 403   1 H      0.104  0.896  0.000  0.000     1.750     2.069
 404   1 H      0.235  0.765  0.000  0.000     0.944     1.522
 405   1 H      0.236  0.764  0.000  0.000     0.941     1.519
 406   1 H      0.186  0.814  0.000  0.000     1.178     1.700
 407   1 H      0.069  0.931  0.000  0.000     2.094     2.263
 408   1 H      0.176  0.824  0.000  0.000     1.238     1.743
 409   1 H      0.062  0.938  0.000  0.000     2.171     2.304
 410   1 H      0.164  0.836  0.000  0.000     1.307     1.791
 411   1 H      0.053  0.947  0.000  0.000     2.284     2.363
 412   1 H      0.167  0.833  0.000  0.000     1.293     1.781
 413   1 H      0.077  0.923  0.000  0.000     2.014     2.219
 414   1 H      0.173  0.827  0.000  0.000     1.255     1.755
 415   1 H      0.093  0.907  0.000  0.000     1.847     2.125
 416   1 H      0.170  0.830  0.000  0.000     1.271     1.766
 417   1 H      0.051  0.949  0.000  0.000     2.312     2.378
 418   1 H      0.185  0.815  0.000  0.000     1.187     1.707
 419   1 H      0.080  0.920  0.000  0.000     1.976     2.198
 420   1 H      0.179  0.821  0.000  0.000     1.219     1.729
 421   1 H      0.084  0.916  0.000  0.000     1.933     2.174
 422   1 H      0.190  0.810  0.000  0.000     1.159     1.686
 423   1 H      0.085  0.915  0.000  0.000     1.929     2.172
 424   1 H      0.186  0.814  0.000  0.000     1.182     1.703
 425   1 H      0.087  0.913  0.000  0.000     1.905     2.158

 Mol. C6AA /au·bohr⁶  :    1591835.219209
 Mol. C8AA /au·bohr⁸  :   35027634.226404
 Mol. α(0) /au        :       1878.676613

 
molecular dipole:
                 x           y           z       tot (Debye)
 q only:      -26.439      27.302     -23.408
   full:      -26.551      27.642     -20.147     110.062
molecular quadrupole (traceless):
                xx          xy          yy          xz          yz          zz
 q only:   -18445.926    9427.820   21152.444  -20297.814    3689.344   -2706.518
  q+dip:   -19183.018    9573.461   20587.920  -18527.510    4424.321   -1404.902
   full:   -19181.330    9572.185   20587.032  -18525.289    4426.747   -1405.701
speedup 15.95
cpu  time for grad   40.58 s
wall time for grad    2.54 s

SCC energy    :    -655.0943671
rep           :       7.7063835
ES            :       2.1270635
AES           :      -0.1068826
AXC           :       0.2142275
disp          :      -0.5335227
XB            :       0.0000000
fix           :       0.0000000
Gborn         :       0.0000000
Gsasa         :       0.0000000
Ghb           :       0.0000000
Gshift        :       0.0000000
Gsolv         :      -0.5190834     -325.73
Etot ala COSMO:    -655.0943671
grad norm     :       0.7092072
total E       :    -647.3361216
atomizationE  :     115.5312966    72496.98
(atE without considering molecular charge,
 total energy contains solvation terms)
H-L gap (eV)  :          1.6535

------------------------------------------------------------------------
 * finished run on 2019/02/13 at 00:18:02.335     
------------------------------------------------------------------------
 total:
 * wall-time:     0 d,  0 h,  0 min,  2.978 sec
 *  cpu-time:     0 d,  0 h,  0 min, 46.814 sec
 * ratio c/w:    15.719 speedup
 SCF:
 * wall-time:     0 d,  0 h,  0 min,  2.737 sec
 *  cpu-time:     0 d,  0 h,  0 min, 43.674 sec
 * ratio c/w:    15.955 speedup

