      -----------------------------------------------------------      
     |                   =====================                   |     
     |                           x T B                           |     
     |                   =====================                   |     
     |                         S. Grimme                         |     
     |          Mulliken Center for Theoretical Chemistry        |     
     |                    University of Bonn                     |     
     |                 Version 6.0.1 (SAW181210)                 |     
      -----------------------------------------------------------      

   This program is distributed in the hope that it will be useful,
   but WITHOUT ANY WARRANTY; without even the implied warranty of
   MERCHANTABILITY or FITNESS FOR A PARTICULAR PURPOSE.
   
   FOR NON-COMMERCIAL, ACADEMIA USE ONLY.
   
   Cite this work as:
   S. Grimme, C. Bannwarth, P. Shushkov, J. Comput. Theory Chem., 2017,
   13, 1989-2009.
   C. Bannwarth, S. Ehlert and S. Grimme., ChemRxiv, 2018, preprint.
   http://doi.org/10.26434/chemrxiv.7246238.v1
   
   for sTDA-xTB:
   S. Grimme and C. Bannwarth, J. Chem. Phys., 2016, 145, 054103.
   
   in the mass-spec context:
   V. Asgeirsson, C. Bauer and S. Grimme, Chem. Sci., 2017, 8, 4879.
   
   if GBSA is used:
   P. Shushkov, F. März and S. Grimme, unpublished.
   
   for ANC optimizer:
   S. Grimme, unpublished.
   Rational Function algorithm used in ANCopt:
   F. Eckert, P. Pulay, H.-J. Werner, J. Comput. Chem., 1997, 18, 1473.
   
   with help from (in alphabetical order)
   C. Bannwarth, F. Bohle, G. Brandenburg, E. Caldeweyher, M. Checinski,
   S. Dohm, S. Ehlert, S. Ehrlich, F. März, H. Neugebauer, J. Pisarek,
   P. Pracht, P. Shushkov, and S. Spicher.
   
 * started run on 2019/02/13 at 00:18:23.242     
========================================================================
 # omp threads = 16
========================================================================
number of atoms            : 282
number of electrons        : 820
charge                     : -2
spin                       : .0
first test random number   : .9854

########################################################################
# WARNING! Please study the warnings concerning your input carefully
#  - Process number higher than OMP_NUM_THREADS, I hope you know what you are doing.
########################################################################

           ------------------------------------------------- 
          |                 G F N 2 - x T B                 |
          | Geometry, Frequencies, Noncovalent interactions |
          |            JCTC 2018 parametrisation            |
           ------------------------------------------------- 
 
      method parameters     
 k(s)        :  1.8500
 k(p)        :  2.2300
 k(d)        :  2.2300
 k(f)        :  2.0000
 kEN (H0ij)  : -2.0000
 D4 a1       :  0.5200
 D4 a2       :  5.0000
 D4 s6       :  1.0000
 D4 s8       :  2.7000
 D4 s9       :  5.0000
 alphaj      :  2.0000

 Solvent             : h2o
 Using internal parameter file: .param_gbsa2_h2o
 Gsolv ref. state (COSMO-RS): gsolv [1 M gas/solution]
 temperature (mdtemp)       :    298.150000000000     
 dielectric constant        :    80.2000000000000     
 rho                        :    1.00000000000000     
 mass                       :    18.0000000000000     
 surface tension            :    15.5689454083859     
 probe radius               :   0.975313790000000     
 vdW radii scaling          :    1.00000000000000     
 Gshift (Eh)                :   1.857443126794793E-003
 c1                         :    1.55243817000000     
 soset                      :   0.130326360000000     
 HB correction              :  T

            Z     q(EN)     CN     RAES       Cart. coordinates
     1  N   5.0   -0.22    3.23    1.96   289.80836   139.12566   174.35715
     2  C   4.0    0.02    4.32    4.24   291.78571   140.72053   173.33698
     3  C   4.0    0.14    3.42    3.08   293.96233   139.14599   172.26528
     4  O   6.0   -0.33    1.30    1.80   294.88599   139.63759   170.18493
     5  C   4.0   -0.05    4.29    4.17   292.77900   142.51263   175.37621
     6  C   4.0   -0.04    4.23    4.06   290.88351   144.64634   175.87541
     7  C   4.0    0.15    3.22    3.04   291.73361   146.18644   178.14206
     8  O   6.0   -0.30    1.19    1.80   293.12547   148.01721   177.99518
     9  N   5.0   -0.20    3.19    1.95   290.85018   145.30018   180.35297
    10  H   1.0    0.07    1.02    1.43   289.22521   139.43259   176.15622
    11  H   1.0    0.04    1.05    1.44   291.02555   141.82264   171.74748
    12  H   1.0    0.04    1.03    1.43   293.11365   141.41884   177.09391
    13  H   1.0    0.05    1.03    1.43   294.57700   143.32384   174.77243
    14  H   1.0    0.04    1.03    1.43   290.79456   145.88429   174.23202
    15  H   1.0    0.03    1.03    1.43   289.02055   143.85134   176.24798
    16  H   1.0    0.07    1.03    1.43   289.64022   143.82733   180.37022
    17  H   1.0    0.09    1.03    1.43   291.29281   146.19548   181.97267
    18  N   5.0   -0.15    3.45    2.04   294.79590   137.30109   173.74923
    19  C   4.0    0.03    4.28    4.16   297.02212   135.82800   173.14089
    20  C   4.0    0.10    3.25    3.04   296.88081   134.55024   170.54629
    21  O   6.0   -0.28    1.12    1.80   298.80539   134.06313   169.36339
    22  C   4.0    0.03    4.15    3.90   297.47045   133.80696   175.18482
    23  O   6.0   -0.26    2.04    1.83   295.90188   131.69673   175.00259
    24  H   1.0    0.07    1.07    1.44   294.00659   137.04784   175.48629
    25  H   1.0    0.05    1.05    1.44   298.67881   137.07621   173.07374
    26  H   1.0    0.04    1.02    1.43   299.40741   133.11552   174.99934
    27  H   1.0    0.03    1.01    1.43   297.25434   134.73059   177.03763
    28  H   1.0    0.11    1.01    1.43   294.12775   132.24440   174.92877
    29  N   5.0   -0.19    3.24    1.97   295.33779   136.73367   165.39258
    30  C   4.0    0.03    4.34    4.26   295.94201   138.35108   163.27158
    31  C   4.0    0.15    3.41    3.08   298.77199   138.21497   162.65508
    32  O   6.0   -0.31    1.32    1.80   300.40749   139.03349   164.08860
    33  C   4.0   -0.03    4.31    4.22   295.16034   141.08633   163.82039
    34  C   4.0    0.15    3.24    3.04   292.28009   141.18870   163.91242
    35  O   6.0   -0.31    1.19    1.80   290.99972   141.51255   162.02207
    36  N   5.0   -0.19    3.20    1.96   291.30617   140.86329   166.22018
    37  H   1.0    0.12    1.06    1.44   295.49815   137.46771   167.15399
    38  H   1.0    0.04    1.06    1.44   294.87482   137.62898   161.64733
    39  H   1.0    0.06    1.03    1.43   295.97545   141.69420   165.60806
    40  H   1.0    0.05    1.03    1.43   295.83320   142.30566   162.30408
    41  H   1.0    0.09    1.03    1.43   289.42399   140.65678   166.40953
    42  H   1.0    0.10    1.07    1.44   292.43108   140.42802   167.70777
    43  N   5.0   -0.15    3.48    2.07   299.30961   137.28430   160.37044
    44  C   4.0    0.04    4.39    4.36   301.86937   136.85147   159.48920
    45  C   4.0    0.15    3.42    3.08   303.50027   139.23329   159.21758
    46  O   6.0   -0.28    1.23    1.80   305.73617   139.05209   158.69131
    47  C   4.0    0.03    4.18    3.96   301.73367   135.55711   156.89691
    48  O   6.0   -0.26    2.07    1.83   300.23999   133.37498   157.13653
    49  H   1.0    0.08    1.08    1.44   297.98657   136.24935   159.44995
    50  H   1.0    0.06    1.05    1.44   302.86940   135.60252   160.81144
    51  H   1.0    0.04    1.01    1.43   300.89218   136.87475   155.52940
    52  H   1.0    0.05    1.01    1.43   303.66478   135.10879   156.30164
    53  H   1.0    0.11    1.02    1.43   300.26061   132.46073   155.55761
    54  N   5.0   -0.14    3.54    2.11   302.29111   141.45523   159.41925
    55  C   4.0    0.04    4.49    4.52   303.66883   143.80121   159.55769
    56  C   4.0    0.17    3.43    3.09   305.43836   143.97710   161.85509
    57  O   6.0   -0.28    1.23    1.80   307.32018   145.31842   161.75630
    58  C   4.0    0.05    4.25    4.10   301.76295   146.00133   159.64418
    59  O   6.0   -0.26    2.16    1.85   299.91851   145.34544   161.46915
    60  C   4.0   -0.08    4.06    3.73   300.56270   146.44901   157.05514
    61  H   1.0    0.10    1.11    1.45   300.52791   141.54368   160.14753
    62  H   1.0    0.05    1.06    1.44   304.88846   143.98283   157.89609
    63  H   1.0    0.04    1.04    1.43   302.80810   147.69137   160.24916
    64  H   1.0    0.11    1.02    1.43   298.89139   146.81171   161.81081
    65  H   1.0    0.03    1.00    1.43   299.18916   147.97129   157.17428
    66  H   1.0    0.03    1.00    1.43   302.01111   146.96806   155.70028
    67  H   1.0    0.04    1.00    1.43   299.61714   144.74149   156.42030
    68  N   5.0   -0.12    3.48    2.06   304.71049   142.71869   163.92107
    69  C   4.0    0.04    4.42    4.41   306.27465   142.67806   166.17136
    70  C   4.0    0.16    3.44    3.09   308.82989   141.41220   165.58740
    71  O   6.0   -0.27    1.23    1.80   308.92691   139.28149   164.68885
    72  C   4.0   -0.03    4.33    4.25   304.98107   141.13126   168.24694
    73  C   4.0    0.15    3.22    3.04   302.77581   142.53860   169.44100
    74  O   6.0   -0.30    1.20    1.80   303.06597   144.04858   171.17558
    75  N   5.0   -0.18    3.20    1.96   300.51050   141.97470   168.49067
    76  H   1.0    0.11    1.10    1.44   303.25388   141.47233   163.84400
    77  H   1.0    0.07    1.05    1.44   306.62957   144.62359   166.79338
    78  H   1.0    0.06    1.03    1.43   304.35775   139.33916   167.44436
    79  H   1.0    0.05    1.03    1.43   306.36428   140.75902   169.72858
    80  H   1.0    0.10    1.03    1.43   298.96976   142.81812   169.22613
    81  H   1.0    0.12    1.07    1.44   300.30208   140.74264   167.02811
    82  N   5.0   -0.12    3.48    2.06   310.86929   142.78189   166.17010
    83  C   4.0    0.04    4.35    4.30   313.38774   141.72498   165.99963
    84  C   4.0    0.15    3.43    3.09   314.02601   140.41264   168.50366
    85  O   6.0   -0.31    1.33    1.80   312.49124   140.32561   170.23485
    86  C   4.0    0.04    4.12    3.85   315.30551   143.75673   165.18708
    87  O   6.0   -0.24    2.04    1.83   315.73394   145.65292   166.99012
    88  H   1.0    0.12    1.10    1.44   310.65747   144.55986   166.92290
    89  H   1.0    0.06    1.06    1.44   313.31876   140.24370   164.54549
    90  H   1.0    0.05    1.01    1.43   317.07774   142.84638   164.60887
    91  H   1.0    0.06    1.02    1.43   314.50332   144.73946   163.55907
    92  H   1.0    0.13    1.03    1.43   316.55722   144.98419   168.47637
    93  N   5.0   -0.15    3.46    2.05   316.31001   139.30642   168.74530
    94  C   4.0    0.04    4.47    4.49   316.71481   137.70235   170.93319
    95  C   4.0    0.16    3.44    3.09   316.64434   139.20880   173.40752
    96  O   6.0   -0.29    1.29    1.80   315.60691   138.33033   175.27182
    97  C   4.0   -0.04    4.25    4.11   319.10597   136.12159   170.64533
    98  C   4.0   -0.03    4.25    4.09   318.58079   133.98961   168.76353
    99  C   4.0    0.15    3.22    3.04   320.95044   132.53648   168.08570
   100  O   6.0   -0.29    1.20    1.80   322.25479   133.13367   166.27051
   101  N   5.0   -0.19    3.20    1.95   321.50123   130.57251   169.55509
   102  H   1.0    0.08    1.06    1.44   317.61188   139.30755   167.35508
   103  H   1.0    0.06    1.07    1.44   315.08423   136.42087   171.09308
   104  H   1.0    0.05    1.02    1.43   320.67219   137.30241   170.00030
   105  H   1.0    0.06    1.03    1.43   319.63057   135.34477   172.48315
   106  H   1.0    0.05    1.03    1.43   317.18265   132.70898   169.56412
   107  H   1.0    0.06    1.03    1.43   317.82258   134.77151   167.01388
   108  H   1.0    0.11    1.06    1.44   320.56926   130.18993   171.17837
   109  H   1.0    0.09    1.03    1.43   322.92531   129.40313   169.05009
   110  N   5.0   -0.13    3.52    2.09   317.72738   141.48688   173.33425
   111  C   4.0    0.04    4.39    4.36   317.57852   143.27031   175.40487
   112  C   4.0    0.16    3.47    3.10   314.82266   143.76003   176.16334
   113  O   6.0   -0.31    1.28    1.80   314.13331   143.68387   178.37475
   114  C   4.0    0.02    4.17    3.94   318.80961   145.74347   174.53634
   115  O   6.0   -0.26    2.12    1.84   317.90131   146.28569   172.08040
   116  H   1.0    0.09    1.09    1.44   318.47443   142.13992   171.70421
   117  H   1.0    0.06    1.05    1.44   318.53777   142.48001   177.06739
   118  H   1.0    0.04    1.01    1.43   318.32045   147.23550   175.87931
   119  H   1.0    0.04    1.01    1.43   320.86782   145.50164   174.49402
   120  H   1.0    0.12    1.02    1.43   318.20738   148.03681   171.68559
   121  N   5.0   -0.13    3.53    2.10   313.25728   144.30274   174.26296
   122  C   4.0    0.04    4.44    4.45   310.59872   144.79171   174.71732
   123  C   4.0    0.16    3.50    3.12   309.44515   142.59747   176.17435
   124  O   6.0   -0.31    1.27    1.80   308.09423   142.91799   178.03654
   125  C   4.0   -0.03    4.30    4.19   309.20846   145.07599   172.22378
   126  C   4.0    0.26    3.10    3.02   309.87773   147.59047   170.82368
   127  O   6.0   -0.29    1.18    1.80   310.34102   149.47521   172.13495
   128  O   6.0   -0.29    1.23    1.80   309.85161   147.47155   168.46691
   129  H   1.0    0.10    1.08    1.44   313.94243   144.66895   172.51940
   130  H   1.0    0.07    1.05    1.44   310.37645   146.52649   175.83958
   131  H   1.0    0.06    1.04    1.43   309.65085   143.48662   170.99333
   132  H   1.0    0.07    1.03    1.43   307.16809   145.10482   172.54628
   133  N   5.0   -0.14    3.53    2.10   309.91948   140.32409   175.20234
   134  C   4.0    0.04    4.43    4.44   308.89006   138.06448   176.34179
   135  C   4.0    0.16    3.48    3.11   309.81750   137.80253   179.06496
   136  O   6.0   -0.32    1.29    1.80   308.37002   137.13587   180.75277
   137  C   4.0   -0.04    4.36    4.31   309.58493   135.71304   174.82819
   138  C   4.0   -0.02    4.18    3.96   308.42212   135.60922   172.17211
   139  C   4.0   -0.06    4.11    3.82   309.37429   133.23415   170.83683
   140  C   4.0   -0.07    4.11    3.83   305.54086   135.54128   172.30459
   141  H   1.0    0.11    1.10    1.44   311.02558   140.15445   173.65262
   142  H   1.0    0.05    1.06    1.44   306.82913   138.26735   176.46890
   143  H   1.0    0.06    1.03    1.43   311.64613   135.63903   174.70753
   144  H   1.0    0.06    1.04    1.43   308.92421   134.06162   175.87546
   145  H   1.0    0.06    1.05    1.44   309.02835   137.27235   171.09542
   146  H   1.0    0.05    1.00    1.43   308.64768   133.16691   168.91829
   147  H   1.0    0.05    1.00    1.43   311.42832   133.21914   170.74604
   148  H   1.0    0.06    1.00    1.43   308.73011   131.58199   171.87486
   149  H   1.0    0.06    1.00    1.43   304.74659   135.20205   170.44190
   150  H   1.0    0.05    1.00    1.43   304.96354   134.02046   173.55967
   151  H   1.0    0.04    1.00    1.43   304.78543   137.32227   172.99879
   152  N   5.0   -0.13    3.53    2.10   312.24300   138.33983   179.46856
   153  C   4.0    0.04    4.44    4.44   313.29987   138.19441   181.98662
   154  C   4.0    0.16    3.49    3.11   311.74984   139.82129   183.78513
   155  O   6.0   -0.30    1.24    1.80   311.17800   139.09299   185.91290
   156  C   4.0   -0.03    4.27    4.15   316.02882   139.10115   182.00283
   157  C   4.0    0.26    3.10    3.02   317.84515   137.40339   180.38756
   158  O   6.0   -0.31    1.26    1.80   317.38158   135.09008   180.31409
   159  O   6.0   -0.29    1.17    1.80   319.63212   138.51386   179.35979
   160  H   1.0    0.12    1.11    1.44   313.46946   138.61055   178.01989
   161  H   1.0    0.06    1.05    1.44   313.21462   136.23780   182.68467
   162  H   1.0    0.07    1.03    1.43   316.14415   141.02347   181.27215
   163  H   1.0    0.05    1.03    1.43   316.75588   139.07261   183.93511
   164  N   5.0   -0.14    3.51    2.09   311.12881   142.10206   182.91066
   165  C   4.0    0.05    4.40    4.38   309.65059   143.85207   184.40350
   166  C   4.0    0.17    3.50    3.12   307.06187   142.71656   185.05254
   167  O   6.0   -0.27    1.26    1.80   306.25868   142.66260   187.22431
   168  C   4.0    0.03    4.16    3.93   309.32688   146.33672   182.96132
   169  O   6.0   -0.25    2.06    1.83   307.88259   147.98734   184.45613
   170  H   1.0    0.11    1.09    1.44   311.74873   142.65000   181.18451
   171  H   1.0    0.06    1.05    1.44   310.60522   144.22204   186.20952
   172  H   1.0    0.04    1.01    1.43   311.21081   147.12060   182.57760
   173  H   1.0    0.06    1.02    1.43   308.39539   145.94665   181.15015
   174  H   1.0    0.11    1.02    1.43   307.69319   149.56259   183.55333
   175  N   5.0   -0.14    3.53    2.10   305.76932   141.80446   183.09287
   176  C   4.0    0.04    4.53    4.57   303.25857   140.78421   183.49421
   177  C   4.0    0.17    3.53    3.13   303.42588   138.79478   185.59458
   178  O   6.0   -0.29    1.22    1.80   301.86821   138.63549   187.29665
   179  C   4.0   -0.03    4.33    4.25   302.12349   139.66358   181.06626
   180  C   4.0   -0.04    4.19    3.98   301.85262   141.72637   179.04578
   181  C   4.0   -0.08    4.14    3.88   299.57011   138.45873   181.66659
   182  C   4.0   -0.07    4.02    3.65   300.78996   140.72865   176.55659
   183  H   1.0    0.11    1.09    1.44   306.49887   141.93717   181.33075
   184  H   1.0    0.06    1.05    1.44   302.01943   142.29627   184.20115
   185  H   1.0    0.05    1.05    1.44   303.42088   138.21106   180.36794
   186  H   1.0    0.04    1.03    1.43   300.62763   143.22898   179.75343
   187  H   1.0    0.06    1.03    1.43   303.69430   142.56865   178.66345
   188  H   1.0    0.03    1.00    1.43   298.79233   137.55679   179.99684
   189  H   1.0    0.05    1.01    1.43   299.76857   137.04854   183.14512
   190  H   1.0    0.04    1.00    1.43   298.25307   139.90226   182.29996
   191  H   1.0    0.06    1.00    1.43   301.08045   142.11631   175.06664
   192  H   1.0    0.04    1.00    1.43   301.75520   138.99751   176.00801
   193  H   1.0    0.04    1.00    1.43   298.77781   140.34570   176.70148
   194  N   5.0   -0.13    3.50    2.08   305.36616   137.20252   185.32730
   195  C   4.0    0.05    4.35    4.29   305.85160   135.18642   187.09990
   196  C   4.0    0.10    3.27    3.05   306.29322   136.20188   189.75031
   197  O   6.0   -0.29    1.12    1.80   305.26637   135.19087   191.58735
   198  C   4.0   -0.03    4.30    4.19   308.15493   133.63794   186.29243
   199  C   4.0   -0.03    4.24    4.08   308.62430   131.43414   188.10268
   200  C   4.0    0.15    3.24    3.04   306.45228   129.56019   188.01848
   201  O   6.0   -0.32    1.27    1.80   305.25336   129.20060   186.06100
   202  N   5.0   -0.19    3.17    1.95   305.97181   128.28830   190.13561
   203  H   1.0    0.11    1.11    1.45   306.54575   137.36448   183.82898
   204  H   1.0    0.07    1.06    1.44   304.18220   133.95252   187.19612
   205  H   1.0    0.06    1.03    1.43   307.80160   132.91694   184.39233
   206  H   1.0    0.06    1.03    1.43   309.80417   134.87205   186.21466
   207  H   1.0    0.06    1.03    1.43   310.32997   130.42880   187.51336
   208  H   1.0    0.05    1.03    1.43   308.92796   132.09884   190.02670
   209  H   1.0    0.08    1.03    1.43   306.84101   128.71967   191.77455
   210  H   1.0    0.08    1.02    1.43   304.60681   126.92701   190.14632
   211  N   5.0   -0.21    3.26    1.97   304.82911   126.51882   181.35994
   212  C   4.0    0.03    4.39    4.36   304.48042   127.48978   178.83058
   213  C   4.0    0.15    3.39    3.08   306.91482   128.54146   177.67206
   214  O   6.0   -0.32    1.25    1.80   306.87614   130.21316   176.07427
   215  C   4.0   -0.02    4.27    4.14   302.32545   129.44649   178.69117
   216  C   4.0   -0.08    4.11    3.82   299.82057   128.23984   179.45588
   217  C   4.0   -0.07    4.11    3.83   302.88545   131.77236   180.30657
   218  H   1.0    0.11    1.06    1.44   305.19825   127.78094   182.75527
   219  H   1.0    0.04    1.06    1.44   303.93789   125.85927   177.66387
   220  H   1.0    0.05    1.06    1.44   302.21621   130.02527   176.70842
   221  H   1.0    0.04    1.00    1.43   298.26840   129.47779   178.93877
   222  H   1.0    0.04    1.00    1.43   299.56303   126.44717   178.48642
   223  H   1.0    0.04    1.00    1.43   299.77539   127.90721   181.48299
   224  H   1.0    0.04    1.00    1.43   301.34022   133.11249   180.13694
   225  H   1.0    0.05    1.00    1.43   303.08905   131.26389   182.28590
   226  H   1.0    0.06    1.00    1.43   304.60665   132.69804   179.67210
   227  N   5.0   -0.13    3.50    2.08   309.06369   127.50973   178.51270
   228  C   4.0    0.03    4.43    4.42   311.51496   128.30101   177.60855
   229  C   4.0    0.14    3.39    3.08   312.46014   126.52551   175.52057
   230  O   6.0   -0.30    1.23    1.80   311.44506   124.49942   175.07951
   231  C   4.0   -0.04    4.29    4.18   313.39488   128.32703   179.80803
   232  C   4.0   -0.03    4.24    4.08   312.72961   130.40970   181.69994
   233  C   4.0    0.15    3.23    3.04   314.38405   130.18847   184.02286
   234  O   6.0   -0.31    1.20    1.80   314.05194   128.52053   185.60946
   235  N   5.0   -0.19    3.20    1.96   316.16946   131.94312   184.25354
   236  H   1.0    0.08    1.07    1.44   309.05991   126.02681   179.73481
   237  H   1.0    0.05    1.06    1.44   311.31010   130.20391   176.81079
   238  H   1.0    0.05    1.03    1.43   313.31338   126.49271   180.74669
   239  H   1.0    0.05    1.03    1.43   315.31702   128.61102   179.11481
   240  H   1.0    0.05    1.03    1.43   312.99458   132.25588   180.82865
   241  H   1.0    0.05    1.03    1.43   310.75840   130.19395   182.27207
   242  H   1.0    0.12    1.09    1.44   316.57631   133.17180   182.80709
   243  H   1.0    0.09    1.03    1.43   317.41372   131.82015   185.69164
   244  N   5.0   -0.14    3.50    2.08   314.41470   127.44303   174.19676
   245  C   4.0    0.03    4.31    4.21   315.89754   125.92918   172.46721
   246  C   4.0    0.06    3.23    3.04   318.67331   126.24911   173.22469
   247  O   6.0   -0.30    1.19    1.80   319.44317   128.28787   174.03260
   248  C   4.0   -0.04    4.28    4.17   315.58841   126.85193   169.73218
   249  C   4.0   -0.03    4.23    4.05   312.85198   126.74887   168.82885
   250  C   4.0    0.15    3.22    3.04   312.45442   128.41079   166.52099
   251  O   6.0   -0.30    1.22    1.80   313.98915   129.99214   165.82142
   252  N   5.0   -0.19    3.18    1.95   310.27135   128.00718   165.29997
   253  H   1.0    0.09    1.08    1.44   315.26003   129.06409   174.75490
   254  H   1.0    0.05    1.06    1.44   315.25301   123.97728   172.67107
   255  H   1.0    0.06    1.04    1.43   316.24064   128.80591   169.62433
   256  H   1.0    0.04    1.02    1.43   316.80041   125.74180   168.48973
   257  H   1.0    0.04    1.03    1.43   312.29355   124.81357   168.40794
   258  H   1.0    0.05    1.03    1.43   311.61187   127.46623   170.31798
   259  H   1.0    0.08    1.03    1.43   308.96225   126.82111   166.00077
   260  H   1.0    0.10    1.03    1.43   309.81349   129.12303   163.82520
   261  N   5.0   -0.21    3.24    1.97   324.04069   139.10153   158.52166
   262  C   4.0    0.03    4.25    4.09   324.31805   141.37229   157.06022
   263  C   4.0    0.07    3.19    3.03   327.08764   142.06492   156.53771
   264  O   6.0   -0.31    1.12    1.80   327.62420   143.95016   155.31178
   265  C   4.0   -0.03    4.32    4.24   323.02206   143.54543   158.48445
   266  C   4.0    0.15    3.25    3.04   320.24110   142.90436   158.81796
   267  O   6.0   -0.30    1.20    1.80   319.47211   141.54809   160.52406
   268  N   5.0   -0.19    3.18    1.95   318.70894   143.89912   157.06853
   269  H   1.0    0.09    1.03    1.43   324.41045   139.30942   160.39866
   270  H   1.0    0.04    1.05    1.44   323.42318   141.05086   155.21565
   271  H   1.0    0.05    1.03    1.43   323.91092   143.68485   160.34164
   272  H   1.0    0.04    1.03    1.43   323.29858   145.29687   157.44350
   273  H   1.0    0.09    1.03    1.43   316.85348   143.46778   157.09649
   274  H   1.0    0.07    1.03    1.43   319.38544   144.94133   155.63227
   275  H   1.0    0.08    1.07    1.44   288.40389   139.28773   173.41175
   276  H   1.0    0.05    1.05    1.44   295.20162   134.10526   169.80240
   277  H   1.0    0.09    1.07    1.44   293.72079   136.22038   165.27257
   278  H   1.0    0.07    1.04    1.44   307.41989   137.69588   190.01420
   279  H   1.0    0.09    1.08    1.44   303.41985   125.70561   181.85517
   280  H   1.0    0.04    1.04    1.43   319.87027   124.79571   173.06348
   281  H   1.0    0.11    1.08    1.44   322.44206   138.53545   158.39324
   282  H   1.0    0.05    1.04    1.44   328.47700   140.96981   157.20216

  Z AO/shell   Hii/eV     exponent
  1     Wed Apr 25 08:07:45 CEST 2018   EN: 2.200 GM2: 0.406  GM3: 0.0800  RAES: 1.40
     1s    -10.707211    1.230000
  6     Wed Apr 25 08:07:45 CEST 2018   EN: 2.550 GM2: 0.538  GM3: 0.1500  RAES: 3.00
     2s    -13.970922    2.096432
     2p    -10.063292    1.800000
  7     Wed Apr 25 08:07:45 CEST 2018   EN: 3.040 GM2: 0.461  GM3:-0.0640  RAES: 1.90
     2s    -16.686243    2.339881
     2p    -12.523956    2.014332
  8     Wed Apr 25 08:07:45 CEST 2018   EN: 3.440 GM2: 0.452  GM3:-0.0517  RAES: 1.80
     2s    -20.229985    2.439742
     2p    -15.503117    2.137023
 no old-style atom pair restraining (fixing) potential

molecular fragmentation (1/2 indicates fragments):
111111111111111111111111111122222222222222222222222222222222222222222222
222222222222222222222222222222222222222222222222222222222222222222222222
222222222222222222222222222222222222222222222222222222222222222222222222
222222222222222222222222222222222222222222222222222222222211222222
# atoms in fragment 1/2:    30   252
 fragment masses (1/2) :      217.22     1863.91
CMA distance (Bohr)    :  15.672
constraining FC (au)   :  0.0500
           ------------------------------------------------- 
          |        Self-Consistent Charge Iterations        |
           ------------------------------------------------- 

 Ncao       : 717
 Nao        : 717
 Nshell     : 427
 Nel        : 820
 T(el)      :   500.0
 intcut     :    35.0
 scfconv/Eh :  0.100E-06
   qconv/e  :  0.100E-04
 intneglect :  0.100E-08
 broydamp   :      0.400
 iter      E             dE          RMSdq      gap      omega  full diag
   1   -477.4245857 -0.477425E+03  0.511E+00    3.34       0.0  T
   2   -478.8581506 -0.143356E+01  0.229E+00    1.67       1.0  T
   3   -478.9463739 -0.882232E-01  0.132E+00    1.65       1.0  T
   4   -479.0185039 -0.721300E-01  0.271E-01    0.97       1.0  T
   5   -479.0232467 -0.474286E-02  0.131E-01    1.18       1.0  T
   6   -479.0238608 -0.614103E-03  0.511E-02    1.15       1.0  T
   7   -479.0240459 -0.185121E-03  0.216E-02    1.15       1.0  T
   8   -479.0240608 -0.148946E-04  0.915E-03    1.14       1.0  T
   9   -479.0240659 -0.509484E-05  0.366E-03    1.13       1.6  T
  10   -479.0240664 -0.509676E-06  0.145E-03    1.13       4.1  T
  11   -479.0240666 -0.146162E-06  0.648E-04    1.13       9.2  T
  12   -479.0240666 -0.190968E-07  0.246E-04    1.13      24.2  T
  13   -479.0240666 -0.310251E-08  0.119E-04    1.13      49.9  T
  14   -479.0240666 -0.641194E-09  0.446E-05    1.13     133.5  T
  15   -479.0240666 -0.986233E-10  0.183E-05    1.13     325.1  T
speedup 13.43
cpu  time for SCC   22.24 s
wall time for SCC    1.66 s

   *** convergence criteria satisfied after 15 iterations ***

          eigenvalues
 #    :         398        399        400        401        402        403        404        405
 occ. :        2.000      2.000      2.000      2.000      2.000      2.000      2.000      2.000
 eps  :       -10.779    -10.726    -10.722    -10.672    -10.669    -10.648    -10.623    -10.344
 #    :         406        407        408        409        410        411        412        413
 occ. :        2.000      2.000      2.000      2.000      2.000      0.000      0.000      0.000
 eps  :       -10.181    -10.135    -10.097    -10.094     -9.580     -8.446     -7.863     -7.819
 #    :         414        415        416        417        418        419        420        421
 occ. :        0.000      0.000      0.000      0.000      0.000      0.000      0.000      0.000
 eps  :        -7.806     -6.895     -6.773     -6.652     -6.617     -6.575     -6.463     -6.350


   #   Z            q   n(s)   n(p)   n(d)      C6AA      α(0)
   1   7 N     -0.391  1.309  4.081  0.000    30.113     8.150
   2   6 C      0.023  1.060  2.917  0.000    20.196     6.401
   3   6 C      0.261  1.050  2.689  0.000    22.601     7.785
   4   8 O     -0.496  1.747  4.749  0.000    23.706     6.528
   5   6 C     -0.064  1.054  3.010  0.000    21.717     6.634
   6   6 C     -0.100  1.060  3.040  0.000    22.406     6.738
   7   6 C      0.292  1.036  2.672  0.000    22.053     7.689
   8   8 O     -0.513  1.764  4.749  0.000    24.069     6.578
   9   7 N     -0.292  1.269  4.023  0.000    27.542     7.794
  10   1 H      0.175  0.825  0.000  0.000     1.246     1.748
  11   1 H      0.053  0.947  0.000  0.000     2.283     2.363
  12   1 H      0.058  0.942  0.000  0.000     2.227     2.334
  13   1 H      0.039  0.961  0.000  0.000     2.467     2.456
  14   1 H      0.070  0.930  0.000  0.000     2.090     2.261
  15   1 H      0.075  0.925  0.000  0.000     2.036     2.231
  16   1 H      0.235  0.765  0.000  0.000     0.945     1.523
  17   1 H      0.227  0.773  0.000  0.000     0.980     1.551
  18   7 N     -0.158  1.240  3.918  0.000    24.427     7.340
  19   6 C      0.009  1.062  2.930  0.000    20.439     6.439
  20   6 C      0.208  1.078  2.714  0.000    23.586     7.953
  21   8 O     -0.351  1.762  4.589  0.000    20.729     6.104
  22   6 C      0.077  1.037  2.886  0.000    19.505     6.326
  23   8 O     -0.462  1.724  4.739  0.000    22.098     6.346
  24   1 H      0.229  0.771  0.000  0.000     0.968     1.541
  25   1 H      0.080  0.920  0.000  0.000     1.984     2.203
  26   1 H      0.066  0.934  0.000  0.000     2.126     2.280
  27   1 H      0.048  0.952  0.000  0.000     2.347     2.396
  28   1 H      0.354  0.646  0.000  0.000     0.578     1.195
  29   7 N     -0.389  1.312  4.077  0.000    30.058     8.142
  30   6 C      0.036  1.059  2.905  0.000    19.981     6.366
  31   6 C      0.270  1.051  2.680  0.000    22.447     7.758
  32   8 O     -0.486  1.744  4.743  0.000    23.484     6.497
  33   6 C     -0.109  1.063  3.045  0.000    22.568     6.762
  34   6 C      0.293  1.034  2.673  0.000    22.028     7.685
  35   8 O     -0.503  1.750  4.753  0.000    23.858     6.549
  36   7 N     -0.296  1.274  4.022  0.000    27.630     7.807
  37   1 H      0.172  0.828  0.000  0.000     1.263     1.760
  38   1 H      0.054  0.946  0.000  0.000     2.271     2.357
  39   1 H      0.067  0.933  0.000  0.000     2.118     2.276
  40   1 H      0.065  0.935  0.000  0.000     2.144     2.290
  41   1 H      0.225  0.775  0.000  0.000     0.987     1.557
  42   1 H      0.228  0.772  0.000  0.000     0.972     1.545
  43   7 N     -0.175  1.255  3.920  0.000    24.786     7.394
  44   6 C      0.014  1.061  2.925  0.000    20.344     6.423
  45   6 C      0.274  1.041  2.686  0.000    22.372     7.746
  46   8 O     -0.482  1.754  4.728  0.000    23.380     6.483
  47   6 C      0.073  1.038  2.889  0.000    19.567     6.335
  48   8 O     -0.475  1.718  4.758  0.000    22.368     6.385
  49   1 H      0.244  0.756  0.000  0.000     0.907     1.492
  50   1 H      0.084  0.916  0.000  0.000     1.935     2.175
  51   1 H      0.050  0.950  0.000  0.000     2.318     2.381
  52   1 H      0.055  0.945  0.000  0.000     2.262     2.352
  53   1 H      0.364  0.636  0.000  0.000     0.557     1.173
  54   7 N     -0.173  1.242  3.932  0.000    24.753     7.389
  55   6 C      0.015  1.064  2.921  0.000    20.328     6.420
  56   6 C      0.278  1.041  2.682  0.000    22.305     7.734
  57   8 O     -0.507  1.754  4.753  0.000    23.930     6.559
  58   6 C      0.113  1.047  2.840  0.000    18.816     6.193
  59   8 O     -0.487  1.723  4.764  0.000    22.613     6.419
  60   6 C     -0.145  1.048  3.097  0.000    23.355     6.892
  61   1 H      0.221  0.779  0.000  0.000     1.006     1.572
  62   1 H      0.085  0.915  0.000  0.000     1.927     2.171
  63   1 H      0.026  0.974  0.000  0.000     2.638     2.540
  64   1 H      0.348  0.652  0.000  0.000     0.593     1.210
  65   1 H      0.076  0.924  0.000  0.000     2.026     2.226
  66   1 H      0.065  0.935  0.000  0.000     2.141     2.288
  67   1 H      0.075  0.925  0.000  0.000     2.030     2.228
  68   7 N     -0.185  1.252  3.933  0.000    25.019     7.429
  69   6 C      0.042  1.056  2.903  0.000    19.880     6.349
  70   6 C      0.280  1.043  2.676  0.000    22.253     7.725
  71   8 O     -0.491  1.740  4.751  0.000    23.596     6.513
  72   6 C     -0.093  1.059  3.034  0.000    22.257     6.715
  73   6 C      0.291  1.036  2.674  0.000    22.072     7.692
  74   8 O     -0.522  1.758  4.764  0.000    24.274     6.606
  75   7 N     -0.280  1.270  4.010  0.000    27.244     7.752
  76   1 H      0.229  0.771  0.000  0.000     0.970     1.543
  77   1 H      0.052  0.948  0.000  0.000     2.294     2.369
  78   1 H      0.082  0.918  0.000  0.000     1.955     2.187
  79   1 H      0.054  0.946  0.000  0.000     2.269     2.356
  80   1 H      0.219  0.781  0.000  0.000     1.012     1.576
  81   1 H      0.250  0.750  0.000  0.000     0.884     1.473
  82   7 N     -0.186  1.254  3.932  0.000    25.033     7.431
  83   6 C      0.013  1.062  2.925  0.000    20.374     6.428
  84   6 C      0.273  1.048  2.679  0.000    22.380     7.747
  85   8 O     -0.491  1.747  4.744  0.000    23.585     6.511
  86   6 C      0.065  1.039  2.895  0.000    19.702     6.360
  87   8 O     -0.458  1.715  4.743  0.000    22.014     6.334
  88   1 H      0.225  0.775  0.000  0.000     0.986     1.556
  89   1 H      0.094  0.906  0.000  0.000     1.837     2.120
  90   1 H      0.065  0.935  0.000  0.000     2.142     2.289
  91   1 H      0.080  0.920  0.000  0.000     1.974     2.197
  92   1 H      0.311  0.689  0.000  0.000     0.687     1.302
  93   7 N     -0.190  1.249  3.941  0.000    25.122     7.444
  94   6 C      0.027  1.060  2.912  0.000    20.112     6.384
  95   6 C      0.284  1.038  2.678  0.000    22.190     7.714
  96   8 O     -0.488  1.747  4.741  0.000    23.520     6.502
  97   6 C     -0.067  1.052  3.015  0.000    21.779     6.644
  98   6 C     -0.095  1.057  3.038  0.000    22.307     6.723
  99   6 C      0.294  1.032  2.673  0.000    22.008     7.681
 100   8 O     -0.497  1.748  4.749  0.000    23.711     6.529
 101   7 N     -0.282  1.263  4.018  0.000    27.274     7.756
 102   1 H      0.227  0.773  0.000  0.000     0.978     1.549
 103   1 H      0.075  0.925  0.000  0.000     2.034     2.230
 104   1 H      0.072  0.928  0.000  0.000     2.065     2.247
 105   1 H      0.065  0.935  0.000  0.000     2.141     2.288
 106   1 H      0.058  0.942  0.000  0.000     2.219     2.330
 107   1 H      0.076  0.924  0.000  0.000     2.023     2.224
 108   1 H      0.216  0.784  0.000  0.000     1.028     1.588
 109   1 H      0.239  0.761  0.000  0.000     0.929     1.510
 110   7 N     -0.177  1.240  3.937  0.000    24.841     7.402
 111   6 C      0.021  1.059  2.919  0.000    20.224     6.404
 112   6 C      0.281  1.040  2.679  0.000    22.240     7.723
 113   8 O     -0.502  1.744  4.757  0.000    23.823     6.544
 114   6 C      0.064  1.042  2.894  0.000    19.713     6.359
 115   8 O     -0.484  1.716  4.768  0.000    22.556     6.411
 116   1 H      0.226  0.774  0.000  0.000     0.982     1.552
 117   1 H      0.086  0.914  0.000  0.000     1.914     2.164
 118   1 H      0.053  0.947  0.000  0.000     2.285     2.364
 119   1 H      0.078  0.922  0.000  0.000     2.000     2.212
 120   1 H      0.364  0.636  0.000  0.000     0.557     1.173
 121   7 N     -0.176  1.248  3.928  0.000    24.811     7.398
 122   6 C      0.047  1.052  2.901  0.000    19.785     6.333
 123   6 C      0.280  1.042  2.677  0.000    22.253     7.725
 124   8 O     -0.510  1.736  4.774  0.000    23.996     6.568
 125   6 C     -0.103  1.069  3.035  0.000    22.470     6.748
 126   6 C      0.374  1.020  2.606  0.000    20.661     7.439
 127   8 O     -0.616  1.765  4.851  0.000    26.517     6.904
 128   8 O     -0.610  1.763  4.847  0.000    26.363     6.884
 129   1 H      0.209  0.791  0.000  0.000     1.061     1.613
 130   1 H      0.055  0.945  0.000  0.000     2.258     2.350
 131   1 H      0.041  0.959  0.000  0.000     2.437     2.441
 132   1 H      0.047  0.953  0.000  0.000     2.352     2.398
 133   7 N     -0.188  1.249  3.939  0.000    25.078     7.438
 134   6 C      0.039  1.055  2.906  0.000    19.922     6.355
 135   6 C      0.279  1.043  2.679  0.000    22.286     7.731
 136   8 O     -0.498  1.733  4.765  0.000    23.743     6.533
 137   6 C     -0.067  1.056  3.011  0.000    21.779     6.643
 138   6 C     -0.002  1.054  2.948  0.000    20.583     6.453
 139   6 C     -0.111  1.041  3.070  0.000    22.679     6.789
 140   6 C     -0.116  1.040  3.076  0.000    22.770     6.803
 141   1 H      0.217  0.783  0.000  0.000     1.021     1.583
 142   1 H      0.066  0.934  0.000  0.000     2.133     2.284
 143   1 H      0.034  0.966  0.000  0.000     2.525     2.485
 144   1 H      0.069  0.931  0.000  0.000     2.101     2.267
 145   1 H      0.016  0.984  0.000  0.000     2.794     2.614
 146   1 H      0.050  0.950  0.000  0.000     2.317     2.380
 147   1 H      0.025  0.975  0.000  0.000     2.666     2.553
 148   1 H      0.062  0.938  0.000  0.000     2.179     2.308
 149   1 H      0.055  0.945  0.000  0.000     2.257     2.350
 150   1 H      0.063  0.937  0.000  0.000     2.167     2.302
 151   1 H      0.019  0.981  0.000  0.000     2.756     2.596
 152   7 N     -0.192  1.254  3.938  0.000    25.164     7.450
 153   6 C      0.049  1.052  2.899  0.000    19.756     6.328
 154   6 C      0.279  1.042  2.679  0.000    22.276     7.729
 155   8 O     -0.496  1.741  4.755  0.000    23.696     6.527
 156   6 C     -0.105  1.071  3.034  0.000    22.495     6.752
 157   6 C      0.377  1.021  2.602  0.000    20.615     7.430
 158   8 O     -0.606  1.754  4.852  0.000    26.265     6.871
 159   8 O     -0.610  1.762  4.848  0.000    26.370     6.885
 160   1 H      0.218  0.782  0.000  0.000     1.021     1.583
 161   1 H      0.055  0.945  0.000  0.000     2.256     2.349
 162   1 H      0.039  0.961  0.000  0.000     2.456     2.451
 163   1 H      0.038  0.962  0.000  0.000     2.478     2.462
 164   7 N     -0.190  1.246  3.944  0.000    25.126     7.445
 165   6 C      0.027  1.061  2.912  0.000    20.120     6.387
 166   6 C      0.288  1.037  2.675  0.000    22.116     7.701
 167   8 O     -0.488  1.745  4.743  0.000    23.527     6.503
 168   6 C      0.077  1.038  2.885  0.000    19.505     6.326
 169   8 O     -0.479  1.724  4.755  0.000    22.449     6.396
 170   1 H      0.207  0.793  0.000  0.000     1.073     1.623
 171   1 H      0.076  0.924  0.000  0.000     2.022     2.224
 172   1 H      0.037  0.963  0.000  0.000     2.488     2.467
 173   1 H      0.039  0.961  0.000  0.000     2.467     2.457
 174   1 H      0.362  0.638  0.000  0.000     0.560     1.176
 175   7 N     -0.185  1.247  3.938  0.000    25.014     7.428
 176   6 C      0.025  1.066  2.909  0.000    20.154     6.391
 177   6 C      0.290  1.038  2.672  0.000    22.082     7.695
 178   8 O     -0.489  1.739  4.750  0.000    23.543     6.505
 179   6 C     -0.021  1.064  2.956  0.000    20.905     6.503
 180   6 C     -0.062  1.050  3.012  0.000    21.688     6.630
 181   6 C     -0.120  1.040  3.080  0.000    22.860     6.817
 182   6 C     -0.104  1.036  3.068  0.000    22.554     6.773
 183   1 H      0.210  0.790  0.000  0.000     1.055     1.609
 184   1 H      0.067  0.933  0.000  0.000     2.122     2.278
 185   1 H      0.039  0.961  0.000  0.000     2.466     2.456
 186   1 H      0.045  0.955  0.000  0.000     2.382     2.414
 187   1 H      0.027  0.973  0.000  0.000     2.626     2.534
 188   1 H      0.064  0.936  0.000  0.000     2.154     2.295
 189   1 H      0.046  0.954  0.000  0.000     2.374     2.410
 190   1 H      0.062  0.938  0.000  0.000     2.181     2.310
 191   1 H      0.037  0.963  0.000  0.000     2.493     2.469
 192   1 H      0.029  0.971  0.000  0.000     2.605     2.524
 193   1 H      0.055  0.945  0.000  0.000     2.264     2.353
 194   7 N     -0.185  1.245  3.940  0.000    25.015     7.428
 195   6 C      0.043  1.052  2.905  0.000    19.863     6.346
 196   6 C      0.212  1.087  2.702  0.000    23.513     7.941
 197   8 O     -0.360  1.744  4.616  0.000    20.898     6.129
 198   6 C     -0.055  1.049  3.006  0.000    21.551     6.608
 199   6 C     -0.097  1.055  3.042  0.000    22.340     6.728
 200   6 C      0.289  1.039  2.673  0.000    22.109     7.699
 201   8 O     -0.498  1.741  4.757  0.000    23.744     6.533
 202   7 N     -0.280  1.267  4.013  0.000    27.230     7.750
 203   1 H      0.215  0.785  0.000  0.000     1.033     1.592
 204   1 H      0.081  0.919  0.000  0.000     1.965     2.192
 205   1 H      0.065  0.935  0.000  0.000     2.142     2.289
 206   1 H      0.051  0.949  0.000  0.000     2.304     2.374
 207   1 H      0.085  0.915  0.000  0.000     1.926     2.170
 208   1 H      0.056  0.944  0.000  0.000     2.252     2.347
 209   1 H      0.230  0.770  0.000  0.000     0.967     1.540
 210   1 H      0.249  0.751  0.000  0.000     0.888     1.476
 211   7 N     -0.403  1.314  4.089  0.000    30.458     8.196
 212   6 C      0.025  1.063  2.912  0.000    20.159     6.395
 213   6 C      0.271  1.049  2.680  0.000    22.423     7.754
 214   8 O     -0.505  1.747  4.758  0.000    23.894     6.554
 215   6 C     -0.014  1.059  2.955  0.000    20.791     6.485
 216   6 C     -0.119  1.042  3.077  0.000    22.841     6.814
 217   6 C     -0.103  1.034  3.069  0.000    22.526     6.767
 218   1 H      0.170  0.830  0.000  0.000     1.275     1.769
 219   1 H      0.053  0.947  0.000  0.000     2.284     2.364
 220   1 H      0.028  0.972  0.000  0.000     2.609     2.526
 221   1 H      0.056  0.944  0.000  0.000     2.247     2.344
 222   1 H      0.044  0.956  0.000  0.000     2.395     2.420
 223   1 H      0.045  0.955  0.000  0.000     2.379     2.412
 224   1 H      0.038  0.962  0.000  0.000     2.478     2.462
 225   1 H      0.043  0.957  0.000  0.000     2.403     2.424
 226   1 H      0.011  0.989  0.000  0.000     2.867     2.648
 227   7 N     -0.167  1.238  3.929  0.000    24.608     7.368
 228   6 C      0.020  1.058  2.922  0.000    20.238     6.405
 229   6 C      0.269  1.044  2.688  0.000    22.466     7.761
 230   8 O     -0.458  1.737  4.720  0.000    22.870     6.412
 231   6 C     -0.062  1.054  3.008  0.000    21.688     6.629
 232   6 C     -0.086  1.054  3.032  0.000    22.136     6.697
 233   6 C      0.290  1.037  2.673  0.000    22.085     7.695
 234   8 O     -0.511  1.744  4.767  0.000    24.029     6.572
 235   7 N     -0.305  1.289  4.016  0.000    27.860     7.839
 236   1 H      0.220  0.780  0.000  0.000     1.012     1.576
 237   1 H      0.063  0.937  0.000  0.000     2.169     2.303
 238   1 H      0.071  0.929  0.000  0.000     2.073     2.252
 239   1 H      0.050  0.950  0.000  0.000     2.316     2.380
 240   1 H      0.036  0.964  0.000  0.000     2.501     2.473
 241   1 H      0.064  0.936  0.000  0.000     2.157     2.297
 242   1 H      0.229  0.771  0.000  0.000     0.969     1.542
 243   1 H      0.221  0.779  0.000  0.000     1.006     1.571
 244   7 N     -0.170  1.239  3.930  0.000    24.671     7.377
 245   6 C      0.018  1.063  2.919  0.000    20.277     6.413
 246   6 C      0.192  1.093  2.714  0.000    23.888     8.005
 247   8 O     -0.366  1.761  4.605  0.000    21.013     6.146
 248   6 C     -0.064  1.051  3.013  0.000    21.716     6.634
 249   6 C     -0.102  1.057  3.045  0.000    22.449     6.745
 250   6 C      0.289  1.036  2.674  0.000    22.094     7.696
 251   8 O     -0.503  1.756  4.747  0.000    23.847     6.547
 252   7 N     -0.291  1.266  4.025  0.000    27.498     7.788
 253   1 H      0.195  0.805  0.000  0.000     1.132     1.667
 254   1 H      0.112  0.888  0.000  0.000     1.682     2.028
 255   1 H      0.063  0.937  0.000  0.000     2.161     2.299
 256   1 H      0.082  0.918  0.000  0.000     1.956     2.187
 257   1 H      0.090  0.910  0.000  0.000     1.882     2.145
 258   1 H      0.071  0.929  0.000  0.000     2.073     2.252
 259   1 H      0.233  0.767  0.000  0.000     0.954     1.530
 260   1 H      0.228  0.772  0.000  0.000     0.973     1.545
 261   7 N     -0.381  1.309  4.072  0.000    29.862     8.116
 262   6 C      0.042  1.055  2.903  0.000    19.881     6.351
 263   6 C      0.198  1.092  2.710  0.000    23.774     7.985
 264   8 O     -0.367  1.753  4.614  0.000    21.036     6.149
 265   6 C     -0.102  1.064  3.038  0.000    22.431     6.741
 266   6 C      0.291  1.035  2.674  0.000    22.071     7.692
 267   8 O     -0.508  1.756  4.751  0.000    23.958     6.563
 268   7 N     -0.288  1.267  4.021  0.000    27.433     7.779
 269   1 H      0.165  0.835  0.000  0.000     1.306     1.791
 270   1 H      0.081  0.919  0.000  0.000     1.966     2.193
 271   1 H      0.066  0.934  0.000  0.000     2.130     2.282
 272   1 H      0.074  0.926  0.000  0.000     2.039     2.233
 273   1 H      0.225  0.775  0.000  0.000     0.987     1.556
 274   1 H      0.237  0.763  0.000  0.000     0.934     1.514
 275   1 H      0.192  0.808  0.000  0.000     1.146     1.677
 276   1 H      0.098  0.902  0.000  0.000     1.806     2.101
 277   1 H      0.187  0.813  0.000  0.000     1.173     1.696
 278   1 H      0.065  0.935  0.000  0.000     2.143     2.289
 279   1 H      0.188  0.812  0.000  0.000     1.168     1.693
 280   1 H      0.108  0.892  0.000  0.000     1.712     2.046
 281   1 H      0.181  0.819  0.000  0.000     1.208     1.721
 282   1 H      0.087  0.913  0.000  0.000     1.912     2.162

 Mol. C6AA /au·bohr⁶  :     761294.269598
 Mol. C8AA /au·bohr⁸  :   16786668.224828
 Mol. α(0) /au        :       1294.389080

 
molecular dipole:
                 x           y           z       tot (Debye)
 q only:     -628.245    -287.484    -357.950
   full:     -627.912    -285.372    -358.095    1975.329
molecular quadrupole (traceless):
                xx          xy          yy          xz          yz          zz
 q only:  -144467.152 -135326.226   89347.300 -168587.116  -77054.448   55119.852
  q+dip:  -144497.862 -134285.477   89853.581 -168538.492  -76531.181   54644.281
   full:  -144500.367 -134286.979   89856.270 -168536.882  -76529.703   54644.097
speedup 13.60
cpu  time for grad   24.33 s
wall time for grad    1.79 s

SCC energy    :    -479.0290746
rep           :       5.1942428
ES            :       1.8992252
AES           :      -0.0525562
AXC           :       0.0972778
disp          :      -0.3725540
XB            :       0.0000000
fix           :       0.0000000
Gborn         :       0.0000000
Gsasa         :       0.0000000
Ghb           :       0.0000000
Gshift        :       0.0000000
Gsolv         :      -0.4908636     -308.02
Etot ala COSMO:    -479.0290746
grad norm     :       0.4545542
total E       :    -473.8020261
atomizationE  :      80.7790538    50689.62
(atE without considering molecular charge,
 total energy contains solvation terms)
H-L gap (eV)  :          1.1342

------------------------------------------------------------------------
 * finished run on 2019/02/13 at 00:18:25.264     
------------------------------------------------------------------------
 total:
 * wall-time:     0 d,  0 h,  0 min,  2.021 sec
 *  cpu-time:     0 d,  0 h,  0 min, 27.524 sec
 * ratio c/w:    13.622 speedup
 SCF:
 * wall-time:     0 d,  0 h,  0 min,  1.893 sec
 *  cpu-time:     0 d,  0 h,  0 min, 25.991 sec
 * ratio c/w:    13.733 speedup

