      -----------------------------------------------------------      
     |                   =====================                   |     
     |                           x T B                           |     
     |                   =====================                   |     
     |                         S. Grimme                         |     
     |          Mulliken Center for Theoretical Chemistry        |     
     |                    University of Bonn                     |     
     |                Version 6.1 RC1 (SAW190329)                |     
      -----------------------------------------------------------      

   This program is distributed in the hope that it will be useful,
   but WITHOUT ANY WARRANTY; without even the implied warranty of
   MERCHANTABILITY or FITNESS FOR A PARTICULAR PURPOSE.
   
   FOR NON-COMMERCIAL, ACADEMIA USE ONLY.
   
   Cite this work as:
   S. Grimme, C. Bannwarth, P. Shushkov, J. Comput. Theory Chem., 2017,
   13, 1989-2009. DOI: 10.1021/acs.jctc.7b00118
   C. Bannwarth, S. Ehlert and S. Grimme., J. Comput. Theory Chem., 2019,
   just accepted. DOI: 10.1021/acs.jctc.8b01176
   
   for sTDA-xTB:
   S. Grimme and C. Bannwarth, J. Chem. Phys., 2016, 145, 054103.
   DOI: 10.1063/1.4959605
   
   in the mass-spec context:
   V. Asgeirsson, C. Bauer and S. Grimme, Chem. Sci., 2017, 8, 4879.
   DOI: 10.1039/c7sc00601b
   
   for metadynamics refer to:
   S. Grimme, ChemRxiv, Preprint. DOI: 10.26434/chemrxiv.7660532.v1
   
   with help from (in alphabetical order)
   C. Bannwarth, F. Bohle, G. Brandenburg, E. Caldeweyher, M. Checinski,
   S. Dohm, S. Ehlert, S. Ehrlich, F. März, H. Neugebauer, J. Pisarek,
   P. Pracht, P. Shushkov, and S. Spicher.
   
 * started run on 2019/05/31 at 05:35:28.529     

           -------------------------------------------------
          |                Calculation Setup                |
           -------------------------------------------------

          program call               : /home/lum/install/xtb/xtb-190329/bin/xtb xtb_tmp.xyz --chrg 1 --grad --gfn 2 --etemp 500 --acc 0.1 --gbsa h2o --parallel 2
          hostname                   : cpu02
          coordinate file            : xtb_tmp.xyz
          omp threads                :                     2
          number of atoms            :                   125
          number of electrons        :                   332
          charge                     :                     1
          spin                       :                   0.0
          first test random number   :      0.37071742374030


molecular fragmentation (1/2 indicates fragments):
111111111111111111111111111111111111112222222222222222222222222222222222
22222222222222222222222222222222222222222222222112222
# atoms in fragment 1/2:    40    85
 fragment masses (1/2) :      228.33      603.65
CMA distance (Bohr)    :  13.478
constraining FC (au)   :  0.0500

########################################################################
# WARNING! Please study the warnings concerning your input carefully
#  - XTBPATH is not set, using XTBHOME instead
#  - Process number higher than OMP_NUM_THREADS, I hope you know what you are doing.
########################################################################

           ------------------------------------------------- 
          |                 G F N 2 - x T B                 |
          | Geometry, Frequencies, Noncovalent interactions |
          |            JCTC 2018 parametrisation            |
           ------------------------------------------------- 
 
             k(s)              :                1.8500
             k(p)              :                2.2300
             k(d)              :                2.2300
             k(f)              :                2.0000
             kEN (H0ij)        :               -2.0000
             D4 a1             :                0.5200
             D4 a2             :                5.0000
             D4 s6             :                1.0000
             D4 s8             :                2.7000
             D4 s9             :                5.0000
             alphaj            :                2.0000

  Z AO/shell   Hii/eV     exponent
  1     Wed Apr 25 08:07:45 CEST 2018   EN: 2.200 GM2: 0.406  GM3: 0.0800  RAES: 1.40
     1s    -10.707211    1.230000
  6     Wed Apr 25 08:07:45 CEST 2018   EN: 2.550 GM2: 0.538  GM3: 0.1500  RAES: 3.00
     2s    -13.970922    2.096432
     2p    -10.063292    1.800000
  7     Wed Apr 25 08:07:45 CEST 2018   EN: 3.040 GM2: 0.461  GM3:-0.0640  RAES: 1.90
     2s    -16.686243    2.339881
     2p    -12.523956    2.014332
  8     Wed Apr 25 08:07:45 CEST 2018   EN: 3.440 GM2: 0.452  GM3:-0.0517  RAES: 1.80
     2s    -20.229985    2.439742
     2p    -15.503117    2.137023

 Solvent             : h2o
 Using internal parameter file: .param_gbsa2_h2o
 Gsolv ref. state (COSMO-RS): gsolv [1 M gas/solution]
 temperature (mdtemp)       :    298.150000000000     
 dielectric constant        :    80.2000000000000     
 rho                        :    1.00000000000000     
 mass                       :    18.0000000000000     
 surface tension            :    15.5689454083859     
 probe radius               :   0.975313790000000     
 vdW radii scaling          :    1.00000000000000     
 Gshift (Eh)                :   1.857443126794793E-003
 c1                         :    1.55243817000000     
 soset                      :   0.130326360000000     
 HB correction              :  T
 Number of grid points      :          230

            Z     q(EN)     CN     RAES       Cart. coordinates
     1  N   5.0   -0.72    3.00    1.93   182.68872   114.37478   352.68217
     2  C   4.0    0.07    3.98    3.59   184.89852   115.64135   351.70190
     3  C   4.0    0.27    3.01    3.02   186.36489   114.05241   349.78165
     4  O   6.0   -0.46    1.00    1.80   187.77504   115.10883   348.25724
     5  C   4.0   -0.13    3.99    3.60   186.68002   116.48513   353.80933
     6  C   4.0   -0.10    3.98    3.58   185.54136   118.45868   355.60658
     7  C   4.0   -0.21    3.98    3.59   187.59570   119.33251   357.43987
     8  C   4.0   -0.22    3.98    3.59   184.48053   120.71491   354.15047
     9  H   1.0    0.26    1.00    1.43   182.55706   114.06159   354.56900
    10  H   1.0    0.10    0.99    1.43   184.25574   117.30038   350.63603
    11  H   1.0    0.11    0.99    1.43   187.26442   114.81074   354.86072
    12  H   1.0    0.12    0.99    1.43   188.34809   117.28730   352.89764
    13  H   1.0    0.12    0.99    1.43   184.00324   117.58338   356.67720
    14  H   1.0    0.12    0.99    1.43   186.85775   120.75797   358.71914
    15  H   1.0    0.11    0.99    1.43   188.32732   117.75509   358.53339
    16  H   1.0    0.12    0.99    1.43   189.15305   120.16586   356.39310
    17  H   1.0    0.12    0.99    1.43   184.16828   122.31787   355.39559
    18  H   1.0    0.11    0.99    1.43   185.81140   121.31226   352.70257
    19  H   1.0    0.10    0.99    1.43   182.69025   120.24062   353.26102
    20  N   5.0   -0.48    3.01    1.93   186.06418   111.56594   349.82668
    21  C   4.0    0.06    3.99    3.61   187.30045   109.97106   347.99428
    22  C   4.0    0.08    3.00    3.02   186.08358   110.31685   345.40466
    23  O   6.0   -0.46    1.00    1.80   187.36074   110.21446   343.46743
    24  C   4.0   -0.14    3.99    3.60   187.27402   107.20491   348.81808
    25  C   4.0   -0.10    3.98    3.58   188.90041   106.68549   351.16447
    26  C   4.0   -0.22    3.98    3.59   188.64609   103.90024   351.87740
    27  C   4.0   -0.22    3.98    3.59   191.67399   107.34239   350.71118
    28  H   1.0    0.25    1.00    1.43   185.02544   110.73140   351.19896
    29  H   1.0    0.13    0.99    1.43   189.25641   110.62069   347.76442
    30  H   1.0    0.11    0.99    1.43   185.31660   106.68154   349.20187
    31  H   1.0    0.12    0.99    1.43   187.96067   106.05909   347.24647
    32  H   1.0    0.12    0.99    1.43   188.20007   107.84554   352.72446
    33  H   1.0    0.12    0.99    1.43   189.66465   103.51138   353.61655
    34  H   1.0    0.11    0.99    1.43   186.67211   103.39737   352.14778
    35  H   1.0    0.12    0.99    1.43   189.41318   102.71320   350.38599
    36  H   1.0    0.11    0.99    1.43   192.81964   106.67567   352.27816
    37  H   1.0    0.11    0.99    1.43   192.34774   106.45891   348.98150
    38  H   1.0    0.11    0.99    1.43   191.92344   109.37611   350.57103
    39  N   5.0   -0.69    3.00    1.93   183.78749   115.80354   344.06610
    40  C   4.0    0.09    3.98    3.59   185.03775   118.16617   343.47958
    41  C   4.0    0.29    3.01    3.02   187.64588   117.68556   342.30776
    42  O   6.0   -0.43    1.00    1.80   188.51663   119.18145   340.76727
    43  C   4.0   -0.13    3.99    3.60   185.33256   119.85807   345.80019
    44  C   4.0   -0.12    3.98    3.59   182.80348   120.99042   346.66805
    45  C   4.0    0.28    3.00    3.02   182.07527   123.09833   344.85892
    46  O   6.0   -0.36    1.00    1.80   181.15633   122.70995   342.78026
    47  N   5.0   -0.63    3.00    1.93   182.58274   125.44014   345.70760
    48  H   1.0    0.27    1.00    1.43   183.14335   115.44471   345.83236
    49  H   1.0    0.15    0.99    1.43   183.93372   119.17882   342.03853
    50  H   1.0    0.14    0.99    1.43   186.20596   118.74886   347.29938
    51  H   1.0    0.14    0.99    1.43   186.62704   121.38178   345.29221
    52  H   1.0    0.12    0.99    1.43   181.33918   119.54043   346.64241
    53  H   1.0    0.10    0.99    1.43   182.98633   121.73294   348.57907
    54  H   1.0    0.27    1.00    1.43   183.43995   125.73578   347.37591
    55  H   1.0    0.31    1.00    1.43   182.32624   126.93925   344.56035
    56  N   5.0   -0.46    3.00    1.93   188.89243   115.64422   343.13058
    57  C   4.0    0.09    4.00    3.62   191.47411   115.21184   342.32683
    58  C   4.0    0.28    3.01    3.02   191.60363   113.96918   339.71422
    59  O   6.0   -0.43    1.00    1.80   193.52910   114.02206   338.45277
    60  C   4.0   -0.10    3.99    3.60   193.00630   113.71538   344.25605
    61  C   4.0    0.29    3.00    3.02   194.07039   115.42604   346.31756
    62  O   6.0   -0.41    1.00    1.80   194.28733   117.70899   346.06564
    63  N   5.0   -0.64    3.00    1.93   194.83156   114.19996   348.39459
    64  H   1.0    0.31    1.00    1.43   188.28708   114.88221   344.78906
    65  H   1.0    0.15    0.99    1.43   192.37850   117.06883   342.09789
    66  H   1.0    0.12    0.99    1.43   191.85015   112.21875   345.06452
    67  H   1.0    0.12    0.99    1.43   194.61767   112.86061   343.28626
    68  H   1.0    0.29    1.00    1.43   195.62859   115.18150   349.81871
    69  H   1.0    0.25    1.00    1.43   194.75327   112.30536   348.52616
    70  N   5.0   -0.47    3.01    1.93   189.48075   112.80435   338.97439
    71  C   4.0    0.07    3.99    3.60   189.09028   111.97964   336.39370
    72  C   4.0    0.08    3.00    3.02   188.75189   114.33207   334.73342
    73  O   6.0   -0.41    1.00    1.80   189.97551   114.61160   332.78126
    74  C   4.0   -0.10    3.98    3.59   186.83794   110.17837   336.16686
    75  C   4.0    0.29    3.00    3.02   187.62236   107.46076   336.74389
    76  O   6.0   -0.36    1.00    1.80   187.80912   105.87734   335.07401
    77  N   5.0   -0.64    3.00    1.93   188.15487   106.96174   339.16346
    78  H   1.0    0.28    1.00    1.43   187.96345   112.77877   340.13761
    79  H   1.0    0.15    0.99    1.43   190.81165   111.03727   335.72465
    80  H   1.0    0.12    0.99    1.43   185.32046   110.79608   337.41637
    81  H   1.0    0.14    0.99    1.43   186.14546   110.20360   334.22568
    82  H   1.0    0.30    1.00    1.43   188.69396   105.19073   339.60896
    83  H   1.0    0.32    1.00    1.43   187.93798   108.23996   340.56982
    84  N   5.0   -0.69    3.00    1.93   191.25620   119.37357   336.25901
    85  C   4.0    0.10    3.99    3.60   193.78602   120.43207   336.20738
    86  C   4.0    0.29    3.01    3.02   195.47867   119.01834   334.34488
    87  O   6.0   -0.37    1.00    1.80   197.38948   120.03336   333.49823
    88  C   4.0   -0.08    3.99    3.60   194.96529   120.54435   338.83466
    89  C   4.0    0.29    3.00    3.02   193.70191   122.62829   340.38603
    90  O   6.0   -0.35    1.00    1.80   192.81704   124.50663   339.37308
    91  N   5.0   -0.63    3.00    1.93   193.71711   122.29150   342.88599
    92  H   1.0    0.33    1.00    1.43   190.41847   119.07631   337.96702
    93  H   1.0    0.16    0.99    1.43   193.67267   122.38452   335.50108
    94  H   1.0    0.13    0.99    1.43   194.86610   118.70901   339.75449
    95  H   1.0    0.13    0.99    1.43   196.95210   121.06865   338.62812
    96  H   1.0    0.30    1.00    1.43   192.98838   123.66916   343.97981
    97  H   1.0    0.31    1.00    1.43   194.36532   120.72018   343.76126
    98  N   5.0   -0.46    3.01    1.93   194.80462   116.68379   333.71562
    99  C   4.0    0.08    3.99    3.60   196.11266   115.27844   331.76553
   100  C   4.0    0.10    3.00    3.02   195.42817   116.31390   329.13933
   101  O   6.0   -0.35    1.00    1.80   197.04784   116.52633   327.49717
   102  C   4.0   -0.13    3.98    3.59   195.58664   112.44379   332.06211
   103  C   4.0   -0.15    3.98    3.58   197.65108   110.77314   330.88083
   104  C   4.0   -0.15    3.98    3.58   199.21952   109.36681   332.86894
   105  C   4.0   -0.05    3.98    3.58   200.84323   111.05121   334.55540
   106  N   5.0   -0.72    3.98    2.82   203.16892   111.91205   333.21367
   107  H   1.0    0.32    1.00    1.43   193.25003   115.87862   334.47436
   108  H   1.0    0.15    0.99    1.43   198.13348   115.67040   331.99867
   109  H   1.0    0.13    0.99    1.43   195.44517   112.06940   334.08567
   110  H   1.0    0.14    0.99    1.43   193.74581   112.03322   331.23629
   111  H   1.0    0.13    0.99    1.43   196.75858   109.35690   329.68365
   112  H   1.0    0.14    0.99    1.43   198.83777   111.91668   329.64590
   113  H   1.0    0.11    0.99    1.43   197.91787   108.31950   334.07257
   114  H   1.0    0.12    0.99    1.43   200.41194   107.97910   331.92211
   115  H   1.0    0.13    0.99    1.43   199.77281   112.69906   335.17220
   116  H   1.0    0.12    0.99    1.43   201.42268   109.98346   336.21989
   117  H   1.0    0.26    1.00    1.43   204.26567   113.03680   334.36391
   118  H   1.0    0.26    1.00    1.43   204.23302   110.37770   332.65487
   119  H   1.0    0.26    1.00    1.43   202.72632   112.94152   331.62100
   120  H   1.0    0.30    1.00    1.43   181.30015   115.28070   352.30305
   121  H   1.0    0.15    1.00    1.43   184.22518   110.63123   345.26832
   122  H   1.0    0.30    1.00    1.43   182.39943   115.63992   343.09705
   123  H   1.0    0.15    1.00    1.43   187.51731   115.67230   335.23410
   124  H   1.0    0.33    1.00    1.43   190.19126   120.40717   335.42827
   125  H   1.0    0.17    1.00    1.43   193.64817   116.82123   328.75822

           ------------------------------------------------- 
          |        Self-Consistent Charge Iterations        |
           ------------------------------------------------- 

          ...................................................
          :                      SETUP                      :
          :.................................................:
          :  # basis functions                 299          :
          :  # atomic orbitals                 299          :
          :  # shells                          183          :
          :  # electrons                       332          :
          :  max. iterations                   250          :
          :  Hamiltonian                  GFN2-xTB          :
          :  restarted?                      false          :
          :  GBSA solvation                   true          :
          :  PC potential                    false          :
          :  electronic temp.          500.0000000     K    :
          :  accuracy                    0.1000000          :
          :  -> integral cutoff          0.3500000E+02      :
          :  -> integral neglect         0.1000000E-08      :
          :  -> SCF convergence          0.1000000E-06 Eh   :
          :  -> wf. convergence          0.1000000E-04 e    :
          :  Broyden damping             0.4000000          :
          ...................................................

 iter      E             dE          RMSdq      gap      omega  full diag
   1   -190.3019727 -0.190302E+03  0.436E+00    1.55       0.0  T
   2   -190.9242361 -0.622263E+00  0.220E+00    1.55       1.0  T
   3   -190.9461789 -0.219428E-01  0.123E+00    2.09       1.0  T
   4   -190.9506534 -0.447449E-02  0.310E-01    1.48       1.0  T
   5   -190.9569745 -0.632110E-02  0.110E-01    1.59       1.0  T
   6   -190.9572020 -0.227573E-03  0.513E-02    1.57       1.0  T
   7   -190.9572192 -0.171489E-04  0.178E-02    1.57       1.0  T
   8   -190.9572268 -0.761267E-05  0.627E-03    1.56       1.4  T
   9   -190.9572276 -0.785323E-06  0.301E-03    1.55       3.0  T
  10   -190.9572277 -0.158866E-06  0.112E-03    1.55       8.0  T
  11   -190.9572278 -0.252889E-07  0.397E-04    1.55      22.5  T
  12   -190.9572278 -0.366359E-08  0.140E-04    1.55      64.0  T
  13   -190.9572278 -0.320256E-09  0.688E-05    1.55     129.9  T
  14   -190.9572278 -0.650573E-10  0.257E-05    1.55     348.2  T

   *** convergence criteria satisfied after 14 iterations ***

         #    Occupation            Energy/Eh            Energy/eV
      -------------------------------------------------------------
         1        2.0000           -0.7409553             -20.1624
       ...           ...                  ...                  ...
       160        2.0000           -0.4027866             -10.9604
       161        2.0000           -0.3988586             -10.8535
       162        2.0000           -0.3977976             -10.8246
       163        2.0000           -0.3924225             -10.6784
       164        2.0000           -0.3784099             -10.2971
       165        2.0000           -0.3772949             -10.2667
       166        2.0000           -0.3610384              -9.8244 (HOMO)
       167                         -0.3040184              -8.2728 (LUMO)
       168                         -0.2972192              -8.0877
       169                         -0.2819648              -7.6727
       170                         -0.2317924              -6.3074
       171                         -0.2297044              -6.2506
       ...                                ...                  ...
       299                          0.6233477              16.9622
      -------------------------------------------------------------
                  HL-Gap            0.0570200 Eh            1.5516 eV
             Fermi-level           -0.3325391 Eh           -9.0488 eV

 SCC (total)                   0 d,  0 h,  0 min,  0.372 sec
 SCC setup                      ...        0 min,  0.014 sec (  3.726%)
 Dispersion                     ...        0 min,  0.005 sec (  1.474%)
 integral evaluation            ...        0 min,  0.034 sec (  9.030%)
 zeroth order Hamiltonian       ...        0 min,  0.001 sec (  0.153%)
 iterations                     ...        0 min,  0.238 sec ( 63.863%)
 molecular gradient             ...        0 min,  0.079 sec ( 21.194%)
 printout                       ...        0 min,  0.002 sec (  0.543%)

         :::::::::::::::::::::::::::::::::::::::::::::::::::::
         ::                     SUMMARY                     ::
         :::::::::::::::::::::::::::::::::::::::::::::::::::::
         :: total energy             -188.633001066783 Eh   ::
         :: total w/o Gsasa/hb       -188.600859037254 Eh   ::
         :: gradient norm               0.387267995523 Eh/α ::
         :: HOMO-LUMO gap               1.551593940554 eV   ::
         ::.................................................::
         :: SCC energy               -190.962635025113 Eh   ::
         :: -> isotropic ES             0.634676047765 Eh   ::
         :: -> anisotropic ES          -0.030679231471 Eh   ::
         :: -> anisotropic XC           0.069270172639 Eh   ::
         :: -> dispersion              -0.138990544390 Eh   ::
         :: -> Gsolv                   -0.193008511380 Eh   ::
         ::    -> Gborn                -0.160866481851 Eh   ::
         ::    -> Gsasa                -0.007264701443 Eh   ::
         ::    -> Ghb                  -0.026734771213 Eh   ::
         ::    -> Gshift                0.001857443127 Eh   ::
         :: repulsion energy            2.322317409404 Eh   ::
         :: add. restraining            0.000000000000 Eh   ::
         :::::::::::::::::::::::::::::::::::::::::::::::::::::

           -------------------------------------------------
          |                Property Printout                |
           -------------------------------------------------

    * Orbital Energies and Occupations

         #    Occupation            Energy/Eh            Energy/eV
      -------------------------------------------------------------
         1        2.0000           -0.7409553             -20.1624
       ...           ...                  ...                  ...
       154        2.0000           -0.4188973             -11.3988
       155        2.0000           -0.4171111             -11.3502
       156        2.0000           -0.4151643             -11.2972
       157        2.0000           -0.4138646             -11.2618
       158        2.0000           -0.4087649             -11.1231
       159        2.0000           -0.4069724             -11.0743
       160        2.0000           -0.4027866             -10.9604
       161        2.0000           -0.3988586             -10.8535
       162        2.0000           -0.3977976             -10.8246
       163        2.0000           -0.3924225             -10.6784
       164        2.0000           -0.3784099             -10.2971
       165        2.0000           -0.3772949             -10.2667
       166        2.0000           -0.3610384              -9.8244 (HOMO)
       167                         -0.3040184              -8.2728 (LUMO)
       168                         -0.2972192              -8.0877
       169                         -0.2819648              -7.6727
       170                         -0.2317924              -6.3074
       171                         -0.2297044              -6.2506
       172                         -0.2272672              -6.1843
       173                         -0.2210874              -6.0161
       174                         -0.2203737              -5.9967
       175                         -0.2143681              -5.8333
       176                         -0.2121972              -5.7742
       177                         -0.2045718              -5.5667
       ...                                ...                  ...
       299                          0.6233477              16.9622
      -------------------------------------------------------------
                  HL-Gap            0.0570200 Eh            1.5516 eV
             Fermi-level           -0.3325391 Eh           -9.0488 eV

   #   Z        covCN         q      C6AA      α(0)
   1   7 N      2.634    -0.391    30.112     8.150
   2   6 C      3.785     0.029    20.105     6.387
   3   6 C      2.761     0.257    22.677     7.798
   4   8 O      0.859    -0.500    23.785     6.539
   5   6 C      3.811    -0.071    21.842     6.652
   6   6 C      3.849    -0.009    20.700     6.471
   7   6 C      3.758    -0.116    22.766     6.803
   8   6 C      3.755    -0.112    22.692     6.792
   9   1 H      0.860     0.164     1.309     1.792
  10   1 H      0.924     0.043     2.405     2.425
  11   1 H      0.924     0.047     2.361     2.403
  12   1 H      0.924     0.046     2.366     2.405
  13   1 H      0.924     0.032     2.556     2.500
  14   1 H      0.925     0.038     2.473     2.459
  15   1 H      0.925     0.041     2.442     2.444
  16   1 H      0.925     0.041     2.435     2.440
  17   1 H      0.925     0.040     2.445     2.445
  18   1 H      0.925     0.037     2.484     2.464
  19   1 H      0.925     0.033     2.550     2.497
  20   7 N      2.690    -0.156    24.373     7.332
  21   6 C      3.798     0.021    20.222     6.403
  22   6 C      2.766     0.194    23.862     8.000
  23   8 O      0.856    -0.358    20.870     6.125
  24   6 C      3.810    -0.080    22.023     6.680
  25   6 C      3.849    -0.014    20.787     6.485
  26   6 C      3.758    -0.120    22.843     6.814
  27   6 C      3.755    -0.125    22.959     6.832
  28   1 H      0.860     0.225     0.988     1.557
  29   1 H      0.924     0.098     1.805     2.101
  30   1 H      0.924     0.065     2.136     2.286
  31   1 H      0.924     0.077     2.008     2.216
  32   1 H      0.924     0.042     2.422     2.434
  33   1 H      0.925     0.044     2.391     2.418
  34   1 H      0.925     0.040     2.450     2.448
  35   1 H      0.925     0.049     2.338     2.391
  36   1 H      0.925     0.050     2.316     2.380
  37   1 H      0.925     0.054     2.271     2.356
  38   1 H      0.925     0.039     2.460     2.453
  39   7 N      2.634    -0.386    29.995     8.134
  40   6 C      3.785     0.034    20.014     6.372
  41   6 C      2.761     0.267    22.498     7.768
  42   8 O      0.858    -0.511    24.026     6.572
  43   6 C      3.809    -0.062    21.679     6.628
  44   6 C      3.806    -0.094    22.290     6.721
  45   6 C      2.746     0.293    22.039     7.687
  46   8 O      0.859    -0.509    23.977     6.565
  47   7 N      2.639    -0.295    27.607     7.803
  48   1 H      0.860     0.155     1.365     1.830
  49   1 H      0.923     0.041     2.436     2.441
  50   1 H      0.925     0.079     1.989     2.206
  51   1 H      0.924     0.031     2.568     2.506
  52   1 H      0.924     0.066     2.135     2.285
  53   1 H      0.925     0.062     2.180     2.309
  54   1 H      0.860     0.229     0.971     1.544
  55   1 H      0.860     0.223     0.997     1.564
  56   7 N      2.686    -0.187    25.057     7.434
  57   6 C      3.802     0.023    20.186     6.397
  58   6 C      2.754     0.267    22.499     7.767
  59   8 O      0.859    -0.460    22.907     6.417
  60   6 C      3.809    -0.114    22.676     6.778
  61   6 C      2.743     0.294    22.011     7.682
  62   8 O      0.859    -0.498    23.737     6.532
  63   7 N      2.639    -0.278    27.184     7.743
  64   1 H      0.860     0.239     0.927     1.508
  65   1 H      0.923     0.082     1.960     2.190
  66   1 H      0.925     0.094     1.844     2.123
  67   1 H      0.924     0.109     1.702     2.040
  68   1 H      0.860     0.235     0.943     1.521
  69   1 H      0.860     0.229     0.968     1.541
  70   7 N      2.691    -0.169    24.650     7.374
  71   6 C      3.792     0.025    20.161     6.394
  72   6 C      2.766     0.196    23.819     7.993
  73   8 O      0.856    -0.346    20.639     6.091
  74   6 C      3.807    -0.110    22.593     6.766
  75   6 C      2.743     0.293    22.027     7.685
  76   8 O      0.859    -0.498    23.730     6.531
  77   7 N      2.637    -0.283    27.306     7.761
  78   1 H      0.860     0.215     1.032     1.591
  79   1 H      0.924     0.109     1.709     2.045
  80   1 H      0.924     0.086     1.918     2.165
  81   1 H      0.924     0.085     1.932     2.174
  82   1 H      0.860     0.234     0.947     1.525
  83   1 H      0.860     0.243     0.912     1.496
  84   7 N      2.634    -0.409    30.633     8.220
  85   6 C      3.788     0.047    19.793     6.336
  86   6 C      2.757     0.264    22.548     7.776
  87   8 O      0.859    -0.521    24.248     6.602
  88   6 C      3.808    -0.097    22.336     6.728
  89   6 C      2.744     0.298    21.950     7.671
  90   8 O      0.859    -0.520    24.236     6.600
  91   7 N      2.637    -0.288    27.422     7.777
  92   1 H      0.860     0.177     1.232     1.738
  93   1 H      0.923     0.031     2.566     2.505
  94   1 H      0.925     0.071     2.074     2.252
  95   1 H      0.924     0.073     2.057     2.243
  96   1 H      0.860     0.216     1.027     1.587
  97   1 H      0.860     0.239     0.929     1.509
  98   7 N      2.690    -0.158    24.424     7.340
  99   6 C      3.793     0.022    20.221     6.404
 100   6 C      2.763     0.207    23.604     7.956
 101   8 O      0.856    -0.367    21.035     6.149
 102   6 C      3.803    -0.085    22.123     6.696
 103   6 C      3.800    -0.081    22.040     6.684
 104   6 C      3.801    -0.097    22.343     6.730
 105   6 C      3.729    -0.052    21.614     6.637
 106   7 N      3.482    -0.142    24.073     7.287
 107   1 H      0.860     0.217     1.022     1.584
 108   1 H      0.924     0.102     1.766     2.078
 109   1 H      0.924     0.091     1.869     2.138
 110   1 H      0.925     0.063     2.161     2.299
 111   1 H      0.925     0.063     2.161     2.299
 112   1 H      0.925     0.062     2.173     2.305
 113   1 H      0.925     0.089     1.888     2.149
 114   1 H      0.925     0.087     1.904     2.158
 115   1 H      0.925     0.114     1.660     2.015
 116   1 H      0.924     0.125     1.570     1.960
 117   1 H      0.859     0.298     0.718     1.328
 118   1 H      0.859     0.300     0.714     1.324
 119   1 H      0.859     0.284     0.764     1.369
 120   1 H      0.862     0.174     1.247     1.749
 121   1 H      0.930     0.085     1.931     2.173
 122   1 H      0.862     0.182     1.201     1.717
 123   1 H      0.930     0.074     2.042     2.235
 124   1 H      0.862     0.164     1.312     1.794
 125   1 H      0.930     0.063     2.163     2.300

 Mol. C6AA /au·bohr⁶  :     134313.522650
 Mol. C8AA /au·bohr⁸  :    2938594.657826
 Mol. α(0) /au        :        546.180908


Wiberg/Mayer (AO) data.
largest (>0.10) Wiberg bond orders for each atom
          total WBO             WBO to atom ...
     1  N   3.000        C    2 1.019    H  120 0.958    H    9 0.952
     2  C   3.984        N    1 1.019    C    5 0.975    H   10 0.946    C    3 0.942
     3  C   3.945        O    4 1.586    N   20 1.324    C    2 0.942
     4  O   1.957        C    3 1.586    N   20 0.189
     5  C   3.992        C    6 0.993    C    2 0.975    H   11 0.974    H   12 0.973
     6  C   3.996        C    8 1.009    C    7 1.007    C    5 0.993    H   13 0.968
     7  C   3.994        C    6 1.007    H   15 0.986    H   16 0.986    H   14 0.986
     8  C   3.996        C    6 1.009    H   18 0.985    H   17 0.984    H   19 0.984
     9  H   0.973        N    1 0.952
    10  H   0.998        C    2 0.946
    11  H   0.998        C    5 0.974
    12  H   0.998        C    5 0.973
    13  H   0.999        C    6 0.968
    14  H   0.998        C    7 0.986
    15  H   0.998        C    7 0.986
    16  H   0.998        C    7 0.986
    17  H   0.998        C    8 0.984
    18  H   0.999        C    8 0.985
    19  H   0.999        C    8 0.984
    20  N   3.490        C    3 1.324    C   21 0.981    H   28 0.912    O    4 0.189
    21  C   3.963        C   22 0.981    N   20 0.981    C   24 0.960    H   29 0.927
    22  C   3.894        O   23 1.861    C   21 0.981    H  121 0.952
    23  O   2.055        C   22 1.861
    24  C   3.980        C   25 0.989    H   30 0.970    H   31 0.968    C   21 0.960
    25  C   3.994        C   27 1.010    C   26 1.006    C   24 0.989    H   32 0.967
    26  C   3.992        C   25 1.006    H   34 0.986    H   35 0.986    H   33 0.985
    27  C   3.994        C   25 1.010    H   37 0.985    H   36 0.984    H   38 0.980
    28  H   0.949        N   20 0.912
    29  H   0.990        C   21 0.927
    30  H   0.996        C   24 0.970
    31  H   0.993        C   24 0.968
    32  H   0.998        C   25 0.967
    33  H   0.996        C   26 0.985
    34  H   0.998        C   26 0.986
    35  H   0.998        C   26 0.986
    36  H   0.997        C   27 0.984
    37  H   0.997        C   27 0.985
    38  H   0.998        C   27 0.980
    39  N   3.000        C   40 1.016    H  122 0.956    H   48 0.953
    40  C   3.985        N   39 1.016    C   43 0.979    H   49 0.956    C   41 0.938
    41  C   3.942        O   42 1.606    N   56 1.307    C   40 0.938
    42  O   1.959        C   41 1.606    N   56 0.187
    43  C   3.990        C   44 0.984    C   40 0.979    H   51 0.975    H   50 0.954
    44  C   3.994        C   43 0.984    H   53 0.970    C   45 0.968    H   52 0.966
    45  C   3.937        O   46 1.645    N   47 1.297    C   44 0.968
    46  O   1.947        C   45 1.645    N   47 0.197
    47  N   3.387        C   45 1.297    H   55 0.929    H   54 0.928    O   46 0.197
    48  H   0.976        N   39 0.953
    49  H   0.998        C   40 0.956
    50  H   0.994        C   43 0.954
    51  H   0.999        C   43 0.975
    52  H   0.996        C   44 0.966
    53  H   0.996        C   44 0.970
    54  H   0.948        N   47 0.928
    55  H   0.950        N   47 0.929
    56  N   3.453        C   41 1.307    C   57 0.984    H   64 0.869    O   42 0.187
    57  C   3.966        C   60 0.985    N   56 0.984    C   58 0.934    H   65 0.924
    58  C   3.952        O   59 1.652    N   70 1.283    C   57 0.934
    59  O   1.977        C   58 1.652    N   70 0.192
    60  C   3.986        C   57 0.985    C   61 0.964    H   66 0.952    H   67 0.943
    61  C   3.945        O   62 1.633    N   63 1.317    C   60 0.964
    62  O   1.969        C   61 1.633    N   63 0.196
    63  N   3.401        C   61 1.317    H   69 0.926    H   68 0.924    O   62 0.196
    64  H   0.943        N   56 0.869
    65  H   0.993        C   57 0.924
    66  H   0.991        C   60 0.952
    67  H   0.988        C   60 0.943
    68  H   0.944        N   63 0.924
    69  H   0.947        N   63 0.926
    70  N   3.465        C   58 1.283    C   71 0.981    H   78 0.906    O   59 0.192
    71  C   3.965        N   70 0.981    C   74 0.965    C   72 0.961    H   79 0.945
    72  C   3.900        O   73 1.892    C   71 0.961    H  123 0.954
    73  O   2.054        C   72 1.892
    74  C   3.984        H   81 0.968    C   71 0.965    H   80 0.959    C   75 0.953
    75  C   3.952        O   76 1.645    N   77 1.328    C   74 0.953
    76  O   1.954        C   75 1.645    N   77 0.210
    77  N   3.408        C   75 1.328    H   82 0.924    H   83 0.894    O   76 0.210
    78  H   0.954        N   70 0.906
    79  H   0.988        C   71 0.945
    80  H   0.993        C   74 0.959
    81  H   0.992        C   74 0.968
    82  H   0.945        N   77 0.924
    83  H   0.941        N   77 0.894
    84  N   2.997        C   85 1.016    H  124 0.962    H   92 0.911
    85  C   3.984        N   84 1.016    C   88 0.981    H   93 0.950    C   86 0.940
    86  C   3.950        O   87 1.607    N   98 1.324    C   85 0.940
    87  O   1.913        C   86 1.607    N   98 0.195
    88  C   3.994        C   85 0.981    C   89 0.961    H   94 0.958    H   95 0.950
    89  C   3.941        O   90 1.632    N   91 1.319    C   88 0.961
    90  O   1.935        C   89 1.632    N   91 0.197
    91  N   3.398        C   89 1.319    H   96 0.931    H   97 0.902    O   90 0.197
    92  H   0.969        N   84 0.911
    93  H   0.998        C   85 0.950
    94  H   0.995        C   88 0.958
    95  H   0.995        C   88 0.950
    96  H   0.952        N   91 0.931
    97  H   0.943        N   91 0.902
    98  N   3.489        C   86 1.324    C   99 0.976    H  107 0.897    O   87 0.195
    99  C   3.955        N   98 0.976    C  100 0.969    C  102 0.963    H  108 0.942
   100  C   3.895        O  101 1.899    C   99 0.969    H  125 0.956
   101  O   2.038        C  100 1.899
   102  C   3.976        C  103 1.001    H  110 0.974    C   99 0.963    H  109 0.959
   103  C   3.989        C  104 1.009    C  102 1.001    H  111 0.975    H  112 0.971
   104  C   3.985        C  105 1.013    C  103 1.009    H  114 0.967    H  113 0.965
   105  C   3.911        C  104 1.013    H  116 0.963    H  115 0.962    N  106 0.950
   106  N   3.667        C  105 0.950    H  119 0.901    H  117 0.897    H  118 0.895
   107  H   0.953        N   98 0.897
   108  H   0.989        C   99 0.942
   109  H   0.992        C  102 0.959
   110  H   0.996        C  102 0.974
   111  H   0.996        C  103 0.975
   112  H   0.996        C  103 0.971
   113  H   0.992        C  104 0.965
   114  H   0.992        C  104 0.967
   115  H   0.987        C  105 0.962
   116  H   0.984        C  105 0.963
   117  H   0.911        N  106 0.897
   118  H   0.910        N  106 0.895
   119  H   0.920        N  106 0.901
   120  H   0.970        N    1 0.958
   121  H   0.993        C   22 0.952
   122  H   0.967        N   39 0.956
   123  H   0.994        C   72 0.954
   124  H   0.973        N   84 0.962
   125  H   0.996        C  100 0.956
 
molecular dipole:
                 x           y           z       tot (Debye)
 q only:      198.766     104.411     345.991
   full:      197.253     105.673     347.695    1050.988
molecular quadrupole (traceless):
                xx          xy          yy          xz          yz          zz
 q only:   -25689.055   31176.170  -68884.367  102956.086   54312.896   94573.422
  q+dip:   -26989.994   31269.981  -68890.662  102667.009   55251.368   95880.657
   full:   -26988.641   31271.605  -68890.968  102668.374   55252.061   95879.608


           -------------------------------------------------
          | TOTAL ENERGY             -188.633001066783 Eh   |
          | GRADIENT NORM               0.387267995523 Eh/α |
          | HOMO-LUMO GAP               1.551593940554 eV   |
           -------------------------------------------------

------------------------------------------------------------------------
 * finished run on 2019/05/31 at 05:35:29.192     
------------------------------------------------------------------------
 total:
 * wall-time:     0 d,  0 h,  0 min,  0.662 sec
 *  cpu-time:     0 d,  0 h,  0 min,  1.048 sec
 * ratio c/w:     1.584 speedup
 SCF:
 * wall-time:     0 d,  0 h,  0 min,  0.372 sec
 *  cpu-time:     0 d,  0 h,  0 min,  0.736 sec
 * ratio c/w:     1.976 speedup

