      -----------------------------------------------------------      
     |                   =====================                   |     
     |                           x T B                           |     
     |                   =====================                   |     
     |                         S. Grimme                         |     
     |          Mulliken Center for Theoretical Chemistry        |     
     |                    University of Bonn                     |     
     |                 Version 6.0.1 (SAW181210)                 |     
      -----------------------------------------------------------      

   This program is distributed in the hope that it will be useful,
   but WITHOUT ANY WARRANTY; without even the implied warranty of
   MERCHANTABILITY or FITNESS FOR A PARTICULAR PURPOSE.
   
   FOR NON-COMMERCIAL, ACADEMIA USE ONLY.
   
   Cite this work as:
   S. Grimme, C. Bannwarth, P. Shushkov, J. Comput. Theory Chem., 2017,
   13, 1989-2009.
   C. Bannwarth, S. Ehlert and S. Grimme., ChemRxiv, 2018, preprint.
   http://doi.org/10.26434/chemrxiv.7246238.v1
   
   for sTDA-xTB:
   S. Grimme and C. Bannwarth, J. Chem. Phys., 2016, 145, 054103.
   
   in the mass-spec context:
   V. Asgeirsson, C. Bauer and S. Grimme, Chem. Sci., 2017, 8, 4879.
   
   if GBSA is used:
   P. Shushkov, F. März and S. Grimme, unpublished.
   
   for ANC optimizer:
   S. Grimme, unpublished.
   Rational Function algorithm used in ANCopt:
   F. Eckert, P. Pulay, H.-J. Werner, J. Comput. Chem., 1997, 18, 1473.
   
   with help from (in alphabetical order)
   C. Bannwarth, F. Bohle, G. Brandenburg, E. Caldeweyher, M. Checinski,
   S. Dohm, S. Ehlert, S. Ehrlich, F. März, H. Neugebauer, J. Pisarek,
   P. Pracht, P. Shushkov, and S. Spicher.
   
 * started run on 2019/03/14 at 15:08:19.081     
========================================================================
 # omp threads = 1
========================================================================
number of atoms            : 208
number of electrons        : 568
charge                     : -1
spin                       : .0
first test random number   : .3573
           ------------------------------------------------- 
          |                 G F N 2 - x T B                 |
          | Geometry, Frequencies, Noncovalent interactions |
          |            JCTC 2018 parametrisation            |
           ------------------------------------------------- 
 
      method parameters     
 k(s)        :  1.8500
 k(p)        :  2.2300
 k(d)        :  2.2300
 k(f)        :  2.0000
 kEN (H0ij)  : -2.0000
 D4 a1       :  0.5200
 D4 a2       :  5.0000
 D4 s6       :  1.0000
 D4 s8       :  2.7000
 D4 s9       :  5.0000
 alphaj      :  2.0000

 Solvent             : h2o
 Using internal parameter file: .param_gbsa2_h2o
 Gsolv ref. state (COSMO-RS): gsolv [1 M gas/solution]
 temperature (mdtemp)       :    298.150000000000     
 dielectric constant        :    80.2000000000000     
 rho                        :    1.00000000000000     
 mass                       :    18.0000000000000     
 surface tension            :    15.5689454083859     
 probe radius               :   0.975313790000000     
 vdW radii scaling          :    1.00000000000000     
 Gshift (Eh)                :   1.857443126794793E-003
 c1                         :    1.55243817000000     
 soset                      :   0.130326360000000     
 HB correction              :  T

            Z     q(EN)     CN     RAES       Cart. coordinates
     1  N   5.0   -0.22    3.23    1.96   119.96001    96.63262    89.36490
     2  C   4.0    0.03    4.25    4.11   117.88883    97.15506    87.65156
     3  C   4.0    0.07    3.22    3.04   118.71778    99.00003    85.62035
     4  O   6.0   -0.31    1.12    1.80   117.81930    98.94385    83.48240
     5  C   4.0   -0.04    4.31    4.22   115.58639    98.20844    89.06350
     6  C   4.0   -0.02    3.56    3.14   114.77333    96.53609    91.22766
     7  C   4.0   -0.05    3.47    3.10   113.62514    97.61893    93.32790
     8  C   4.0   -0.05    3.49    3.11   115.17024    93.93805    91.21445
     9  C   4.0   -0.05    3.43    3.09   112.97756    96.17460    95.40312
    10  C   4.0   -0.04    3.43    3.09   114.55048    92.47428    93.28380
    11  C   4.0    0.07    3.45    3.09   113.50343    93.59988    95.42085
    12  O   6.0   -0.25    2.12    1.84   113.08735    92.14097    97.48517
    13  H   1.0    0.08    1.03    1.43   119.71676    97.10188    91.19819
    14  H   1.0    0.04    1.05    1.44   117.38457    95.40467    86.65894
    15  H   1.0    0.04    1.03    1.43   116.00931   100.09328    89.79500
    16  H   1.0    0.04    1.03    1.43   114.04313    98.42780    87.70596
    17  H   1.0    0.04    1.03    1.43   113.24792    99.62361    93.35557
    18  H   1.0    0.04    1.03    1.43   116.00404    93.03118    89.58865
    19  H   1.0    0.05    1.03    1.43   112.09813    97.05266    97.02514
    20  H   1.0    0.05    1.03    1.43   114.89586    90.46347    93.27628
    21  H   1.0    0.11    1.03    1.43   112.36911    93.12488    98.84753
    22  N   5.0   -0.22    3.23    1.96    92.65393    99.80034    80.97617
    23  C   4.0    0.03    4.36    4.31    91.16690    98.26025    82.67054
    24  C   4.0    0.13    3.45    3.09    92.73867    96.83812    84.62201
    25  O   6.0   -0.30    1.23    1.80    91.74313    96.19335    86.62656
    26  C   4.0   -0.03    4.26    4.12    89.47661    96.39093    81.28424
    27  C   4.0    0.25    3.10    3.02    87.39775    97.82834    79.73127
    28  O   6.0   -0.30    1.19    1.80    86.83600    99.97981    80.47094
    29  O   6.0   -0.30    1.16    1.80    86.43195    96.63886    77.93981
    30  H   1.0    0.08    1.03    1.43    93.20237    98.88746    79.38937
    31  H   1.0    0.06    1.07    1.44    89.93026    99.47611    83.79624
    32  H   1.0    0.05    1.02    1.43    90.58219    95.15024    80.06473
    33  H   1.0    0.06    1.03    1.43    88.47313    95.23313    82.67529
    34  N   5.0   -0.15    3.48    2.06    95.19059    96.49261    84.11185
    35  C   4.0    0.03    4.38    4.34    96.95093    95.44423    85.94860
    36  C   4.0    0.15    3.45    3.09    97.89726    97.60436    87.64379
    37  O   6.0   -0.31    1.25    1.80    98.18473    97.34754    89.93660
    38  C   4.0   -0.05    4.21    4.02    99.18150    93.97732    84.76446
    39  C   4.0   -0.05    4.22    4.04   101.03103    95.69410    83.36229
    40  C   4.0   -0.06    4.14    3.89   103.53924    94.46610    82.57854
    41  C   4.0   -0.05    4.13    3.85   105.51721    96.52139    82.10827
    42  N   5.0   -0.12    4.02    2.91   106.46726    97.56835    84.54557
    43  H   1.0    0.07    1.07    1.44    95.77855    97.00133    82.36595
    44  H   1.0    0.07    1.05    1.44    95.88354    94.16096    87.19084
    45  H   1.0    0.04    1.03    1.43   100.14703    93.04026    86.32953
    46  H   1.0    0.04    1.02    1.43    98.42451    92.52799    83.50801
    47  H   1.0    0.03    1.03    1.43   100.06526    96.47664    81.72590
    48  H   1.0    0.04    1.07    1.44   101.43024    97.25863    84.63112
    49  H   1.0    0.04    1.03    1.43   104.17131    93.17578    84.05356
    50  H   1.0    0.03    1.02    1.43   103.30260    93.36246    80.86009
    51  H   1.0    0.03    1.02    1.43   107.13311    95.77662    81.07205
    52  H   1.0    0.03    1.02    1.43   104.64560    98.04949    81.03169
    53  H   1.0    0.05    1.02    1.43   107.54083    99.16342    84.22996
    54  H   1.0    0.05    1.02    1.43   104.96581    98.03189    85.69871
    55  H   1.0    0.05    1.02    1.43   107.53764    96.23820    85.48594
    56  N   5.0   -0.15    3.55    2.11    98.51370    99.74799    86.44186
    57  C   4.0    0.03    4.50    4.53    99.43373   101.97775    87.73458
    58  C   4.0    0.14    3.56    3.14    97.58883   103.09884    89.64002
    59  O   6.0   -0.32    1.34    1.80    98.42370   104.07252    91.58080
    60  C   4.0   -0.03    4.28    4.15   100.25795   103.95335    85.75971
    61  C   4.0   -0.07    4.15    3.89   100.97386   106.42308    87.05276
    62  C   4.0   -0.08    4.12    3.85   102.52697   102.96199    84.26883
    63  H   1.0    0.07    1.07    1.44    98.05662   100.01393    84.59357
    64  H   1.0    0.05    1.06    1.44   101.11514   101.46207    88.84266
    65  H   1.0    0.04    1.05    1.44    98.64542   104.25166    84.49659
    66  H   1.0    0.03    1.00    1.43   101.69263   107.74456    85.66551
    67  H   1.0    0.05    1.00    1.43    99.36077   107.27209    87.99521
    68  H   1.0    0.04    1.00    1.43   102.42139   106.09214    88.47108
    69  H   1.0    0.03    1.00    1.43   103.09177   104.37816    82.89649
    70  H   1.0    0.04    1.00    1.43   104.10114   102.64633    85.55003
    71  H   1.0    0.03    1.00    1.43   102.01442   101.24963    83.26830
    72  N   5.0   -0.10    3.68    2.25    95.10025   103.15644    89.16850
    73  C   4.0    0.03    4.63    4.70    93.48923   104.23245    91.10292
    74  C   4.0    0.16    3.52    3.12    93.65936   102.64154    93.48302
    75  O   6.0   -0.33    1.38    1.80    93.99389   103.61045    95.56363
    76  C   4.0   -0.05    4.30    4.19    90.82948   104.30812    89.97428
    77  C   4.0   -0.05    4.23    4.05    90.83770   102.29704    87.88963
    78  C   4.0   -0.01    4.41    4.40    93.63278   101.79081    87.31815
    79  H   1.0    0.06    1.06    1.44    94.19204   106.10919    91.60172
    80  H   1.0    0.04    1.02    1.43    89.43391   103.94695    91.44205
    81  H   1.0    0.04    1.02    1.43    90.48706   106.17435    89.18200
    82  H   1.0    0.05    1.02    1.43    89.96630   100.52017    88.48401
    83  H   1.0    0.04    1.02    1.43    89.86946   102.89189    86.17034
    84  H   1.0    0.06    1.08    1.44    93.93765    99.77250    87.54419
    85  H   1.0    0.04    1.02    1.43    94.14016   102.38706    85.41476
    86  N   5.0   -0.14    3.54    2.11    93.51258   100.14332    93.20091
    87  C   4.0    0.03    4.44    4.45    93.53712    98.55149    95.42673
    88  C   4.0    0.16    3.51    3.12    95.98003    99.07478    96.88282
    89  O   6.0   -0.30    1.25    1.80    96.01521    99.39445    99.16634
    90  C   4.0   -0.04    4.27    4.13    93.26374    95.76912    94.72515
    91  C   4.0   -0.03    4.17    3.94    90.79259    95.18245    93.37060
    92  C   4.0    0.25    3.08    3.02    90.44846    92.28705    92.83110
    93  O   6.0   -0.29    1.18    1.80    92.29664    90.88330    93.21416
    94  O   6.0   -0.28    1.16    1.80    88.32829    91.64081    92.02832
    95  H   1.0    0.08    1.07    1.44    93.15277    99.31149    91.52879
    96  H   1.0    0.05    1.05    1.44    91.97793    99.10502    96.67872
    97  H   1.0    0.07    1.03    1.43    94.81873    95.17110    93.51040
    98  H   1.0    0.05    1.03    1.43    93.34930    94.66577    96.46615
    99  H   1.0    0.04    1.02    1.43    89.15757    95.81524    94.45795
   100  H   1.0    0.06    1.02    1.43    90.70176    96.07634    91.50988
   101  N   5.0   -0.13    3.51    2.09    98.06047    99.22655    95.44214
   102  C   4.0    0.04    4.46    4.48   100.49210    99.69479    96.61761
   103  C   4.0    0.16    3.50    3.11   100.37688   102.19495    98.08314
   104  O   6.0   -0.31    1.27    1.80   101.19796   102.37498   100.24119
   105  C   4.0    0.05    4.22    4.04   102.63860    99.75054    94.64059
   106  O   6.0   -0.26    2.11    1.84   102.86082    97.47446    93.28480
   107  C   4.0   -0.07    4.10    3.81   105.16381   100.20993    95.95480
   108  H   1.0    0.11    1.08    1.44    97.97162    98.77437    93.58418
   109  H   1.0    0.06    1.05    1.44   100.85484    98.21018    98.02511
   110  H   1.0    0.05    1.04    1.43   102.22138   101.32029    93.33705
   111  H   1.0    0.14    1.03    1.43   101.27986    97.01358    92.49033
   112  H   1.0    0.04    1.00    1.43   106.68630   100.15364    94.58215
   113  H   1.0    0.05    1.00    1.43   105.13297   102.02504    96.90923
   114  H   1.0    0.05    1.00    1.43   105.48360    98.73176    97.34278
   115  N   5.0   -0.14    3.50    2.08    99.39103   104.16020    96.84146
   116  C   4.0    0.04    4.39    4.36    99.27010   106.63283    98.01528
   117  C   4.0    0.17    3.48    3.10    97.87156   106.59556   100.54869
   118  O   6.0   -0.28    1.24    1.80    98.54398   107.97439   102.28096
   119  C   4.0    0.04    4.15    3.89    98.04556   108.56710    96.22339
   120  O   6.0   -0.25    2.06    1.83    95.39998   108.53373    96.19788
   121  H   1.0    0.12    1.11    1.44    98.73973   104.00070    95.04173
   122  H   1.0    0.06    1.05    1.44   101.18890   107.28371    98.46855
   123  H   1.0    0.05    1.02    1.43    98.56501   110.46490    96.84777
   124  H   1.0    0.05    1.01    1.43    98.80532   108.21982    94.31844
   125  H   1.0    0.15    1.08    1.44    94.81988   106.78975    96.00640
   126  N   5.0   -0.13    3.52    2.09    95.88675   105.04498   100.68899
   127  C   4.0    0.04    4.42    4.41    94.42583   104.81964   102.98529
   128  C   4.0    0.16    3.45    3.10    96.09616   104.12724   105.25235
   129  O   6.0   -0.29    1.23    1.80    95.62053   104.92432   107.37143
   130  C   4.0   -0.04    4.36    4.32    92.38837   102.78092   102.72869
   131  C   4.0   -0.02    4.18    3.95    90.41722   103.27002   100.65843
   132  C   4.0   -0.08    4.10    3.81    88.62888   101.00517   100.51392
   133  C   4.0   -0.08    4.10    3.81    88.93020   105.68868   101.14192
   134  H   1.0    0.11    1.09    1.44    95.42538   103.90766    99.22680
   135  H   1.0    0.05    1.05    1.44    93.56694   106.65257   103.44517
   136  H   1.0    0.06    1.04    1.43    93.33697   100.99320   102.32746
   137  H   1.0    0.04    1.03    1.43    91.42815   102.62128   104.54801
   138  H   1.0    0.06    1.06    1.44    91.39188   103.44215    98.84569
   139  H   1.0    0.04    1.00    1.43    87.30422   101.20890    98.95368
   140  H   1.0    0.04    1.00    1.43    89.69088    99.26389   100.24369
   141  H   1.0    0.04    1.00    1.43    87.55323   100.83210   102.25487
   142  H   1.0    0.04    1.00    1.43    87.46333   105.91123    99.72240
   143  H   1.0    0.04    1.00    1.43    88.04284   105.62202   102.99367
   144  H   1.0    0.04    1.00    1.43    90.17032   107.32100   101.05408
   145  N   5.0   -0.13    3.50    2.08    97.98265   102.51288   104.77884
   146  C   4.0    0.05    4.40    4.38    99.54026   101.48643   106.77908
   147  C   4.0    0.15    3.41    3.08   101.04990   103.54331   108.16341
   148  O   6.0   -0.30    1.22    1.80   101.12169   103.62023   110.46726
   149  C   4.0    0.03    4.15    3.91   101.30511    99.45710   105.71464
   150  O   6.0   -0.24    2.06    1.83    99.79970    97.43048   104.86534
   151  H   1.0    0.12    1.09    1.44    98.39424   101.98426   102.98987
   152  H   1.0    0.06    1.05    1.44    98.30213   100.60368   108.19508
   153  H   1.0    0.06    1.01    1.43   102.39922   100.25713   104.14325
   154  H   1.0    0.04    1.01    1.43   102.58713    98.83064   107.22390
   155  H   1.0    0.12    1.02    1.43   100.87831    96.04973   104.36075
   156  N   5.0   -0.14    3.46    2.05   102.35353   105.12108   106.67014
   157  C   4.0    0.04    4.51    4.54   103.85337   107.17602   107.71594
   158  C   4.0    0.15    3.53    3.13   103.62423   109.51219   106.01051
   159  O   6.0   -0.29    1.25    1.80   104.69480   109.58878   103.94846
   160  C   4.0   -0.02    4.27    4.13   106.66727   106.43623   107.96882
   161  C   4.0   -0.07    4.13    3.86   108.20576   108.67874   108.93079
   162  C   4.0   -0.07    4.12    3.84   106.97097   104.20026   109.76070
   163  H   1.0    0.10    1.07    1.44   102.15686   105.01995   104.77508
   164  H   1.0    0.05    1.07    1.44   103.09580   107.52099   109.60482
   165  H   1.0    0.05    1.05    1.44   107.34273   105.92275   106.08289
   166  H   1.0    0.03    1.00    1.43   110.17671   108.13549   109.12266
   167  H   1.0    0.06    1.00    1.43   108.07890   110.25558   107.62185
   168  H   1.0    0.04    1.00    1.43   107.51663   109.29567   110.76523
   169  H   1.0    0.03    1.00    1.43   108.95926   103.74419   109.99218
   170  H   1.0    0.05    1.00    1.43   106.17417   104.65634   111.59941
   171  H   1.0    0.05    1.00    1.43   105.98628   102.54908   109.04127
   172  N   5.0   -0.09    3.65    2.21   102.29803   111.47344   106.88257
   173  C   4.0    0.04    4.57    4.63   102.15989   113.78811   105.41459
   174  C   4.0    0.15    3.42    3.08   104.67094   115.22753   105.60684
   175  O   6.0   -0.31    1.24    1.80   105.91233   115.23590   107.55022
   176  C   4.0   -0.04    4.30    4.19   100.06311   115.38492   106.62641
   177  C   4.0   -0.04    4.21    4.03    99.33216   114.04036   109.09063
   178  C   4.0   -0.01    4.33    4.26   100.85441   111.57868   109.20539
   179  H   1.0    0.06    1.05    1.44   101.76717   113.30994   103.44151
   180  H   1.0    0.04    1.03    1.43   100.75378   117.28404   107.02404
   181  H   1.0    0.04    1.02    1.43    98.45585   115.52571   105.35351
   182  H   1.0    0.04    1.02    1.43    99.78311   115.21638   110.71428
   183  H   1.0    0.04    1.02    1.43    97.32081   113.62262   109.10420
   184  H   1.0    0.04    1.02    1.43   102.12814   111.58030   110.83550
   185  H   1.0    0.05    1.02    1.43    99.61496   109.92933   109.31797
   186  N   5.0   -0.14    3.49    2.07   105.25492   116.58407   103.55207
   187  C   4.0    0.03    4.37    4.32   107.47405   118.16858   103.29001
   188  C   4.0    0.06    3.24    3.04   107.34270   119.29829   100.60570
   189  O   6.0   -0.30    1.16    1.80   105.72784   118.63680    99.09303
   190  C   4.0   -0.02    4.32    4.24   109.92556   116.64126   103.78626
   191  C   4.0   -0.06    4.17    3.93   112.21925   118.37756   104.07109
   192  C   4.0   -0.07    4.14    3.87   110.23240   114.65335   101.72266
   193  C   4.0   -0.09    4.01    3.64   114.61909   117.01292   104.89391
   194  H   1.0    0.10    1.10    1.44   104.27421   116.39232   101.91427
   195  H   1.0    0.04    1.05    1.44   107.35744   119.70270   104.68732
   196  H   1.0    0.06    1.07    1.44   109.64471   115.67896   105.59500
   197  H   1.0    0.03    1.04    1.43   112.64141   119.23360   102.25713
   198  H   1.0    0.03    1.03    1.43   111.73212   119.84510   105.44105
   199  H   1.0    0.03    1.00    1.43   112.04785   113.70994   101.85408
   200  H   1.0    0.06    1.00    1.43   108.75829   113.23218   101.90604
   201  H   1.0    0.05    1.01    1.43   110.06615   115.50664    99.86294
   202  H   1.0    0.03    1.00    1.43   116.12719   118.37956   105.17623
   203  H   1.0    0.03    1.00    1.43   114.34868   115.96306   106.63650
   204  H   1.0    0.03    1.00    1.43   115.21478   115.70152   103.42956
   205  H   1.0    0.09    1.07    1.44   120.28999    94.96419    89.36459
   206  H   1.0    0.05    1.05    1.44   120.02833   100.30530    86.00737
   207  H   1.0    0.10    1.07    1.44    91.74381   101.15315    80.49227
   208  H   1.0    0.04    1.04    1.44   108.59800   120.60439   100.06779

  Z AO/shell   Hii/eV     exponent
  1     Wed Apr 25 08:07:45 CEST 2018   EN: 2.200 GM2: 0.406  GM3: 0.0800  RAES: 1.40
     1s    -10.707211    1.230000
  6     Wed Apr 25 08:07:45 CEST 2018   EN: 2.550 GM2: 0.538  GM3: 0.1500  RAES: 3.00
     2s    -13.970922    2.096432
     2p    -10.063292    1.800000
  7     Wed Apr 25 08:07:45 CEST 2018   EN: 3.040 GM2: 0.461  GM3:-0.0640  RAES: 1.90
     2s    -16.686243    2.339881
     2p    -12.523956    2.014332
  8     Wed Apr 25 08:07:45 CEST 2018   EN: 3.440 GM2: 0.452  GM3:-0.0517  RAES: 1.80
     2s    -20.229985    2.439742
     2p    -15.503117    2.137023
 no old-style atom pair restraining (fixing) potential

molecular fragmentation (1/2 indicates fragments):
111111111111111111111222222222222222222222222222222222222222222222222222
222222222222222222222222222222222222222222222222222222222222222222222222
2222222222222222222222222222222222222222222222222222222222221122
# atoms in fragment 1/2:    23   185
 fragment masses (1/2) :      165.19     1267.46
CMA distance (Bohr)    :  19.428
constraining FC (au)   :  0.0500
           ------------------------------------------------- 
          |        Self-Consistent Charge Iterations        |
           ------------------------------------------------- 

 Ncao       : 511
 Nao        : 511
 Nshell     : 309
 Nel        : 568
 T(el)      :   500.0
 intcut     :    35.0
 scfconv/Eh :  0.100E-06
   qconv/e  :  0.100E-04
 intneglect :  0.100E-08
 broydamp   :      0.400
 iter      E             dE          RMSdq      gap      omega  full diag
   1   -325.7364185 -0.325736E+03  0.458E+00    3.43       0.0  T
   2   -326.5351083 -0.798690E+00  0.216E+00    2.20       1.0  T
   3   -326.5816261 -0.465178E-01  0.120E+00    2.35       1.0  T
   4   -326.6270091 -0.453830E-01  0.256E-01    1.61       1.0  T
   5   -326.6300922 -0.308317E-02  0.126E-01    1.76       1.0  T
   6   -326.6304642 -0.371938E-03  0.562E-02    1.80       1.0  T
   7   -326.6306434 -0.179264E-03  0.243E-02    1.83       1.0  T
   8   -326.6306631 -0.197142E-04  0.111E-02    1.86       1.0  T
   9   -326.6306685 -0.538455E-05  0.458E-03    1.87       1.5  T
  10   -326.6306693 -0.775273E-06  0.199E-03    1.87       3.5  T
  11   -326.6306695 -0.156690E-06  0.808E-04    1.87       8.6  T
  12   -326.6306695 -0.240385E-07  0.338E-04    1.87      20.5  T
  13   -326.6306695 -0.445402E-08  0.173E-04    1.87      40.1  T
  14   -326.6306695 -0.147895E-08  0.687E-05    1.87     100.9  T
  15   -326.6306695 -0.234877E-09  0.290E-05    1.87     238.9  T
speedup  1.00
cpu  time for SCC    1.53 s
wall time for SCC    1.54 s

   *** convergence criteria satisfied after 15 iterations ***

          eigenvalues
 #    :         272        273        274        275        276        277        278        279
 occ. :        2.000      2.000      2.000      2.000      2.000      2.000      2.000      2.000
 eps  :       -10.972    -10.850    -10.771    -10.755    -10.748    -10.651    -10.514    -10.433
 #    :         280        281        282        283        284        285        286        287
 occ. :        2.000      2.000      2.000      2.000      2.000      0.000      0.000      0.000
 eps  :       -10.340    -10.306     -9.962     -9.949     -9.833     -7.961     -7.623     -7.125
 #    :         288        289        290        291        292        293        294        295
 occ. :        0.000      0.000      0.000      0.000      0.000      0.000      0.000      0.000
 eps  :        -7.047     -6.821     -6.561     -6.431     -6.416     -6.160     -6.106     -6.072


   #   Z            q   n(s)   n(p)   n(d)      C6AA      α(0)
   1   7 N     -0.391  1.312  4.079  0.000    30.115     8.150
   2   6 C      0.041  1.053  2.906  0.000    19.907     6.355
   3   6 C      0.199  1.091  2.709  0.000    23.752     7.982
   4   8 O     -0.384  1.757  4.628  0.000    21.373     6.198
   5   6 C     -0.075  1.057  3.018  0.000    21.920     6.664
   6   6 C      0.002  1.075  2.922  0.000    27.975     8.676
   7   6 C     -0.045  1.083  2.961  0.000    29.107     8.848
   8   6 C     -0.042  1.079  2.963  0.000    29.046     8.838
   9   6 C     -0.074  1.078  2.996  0.000    29.846     8.959
  10   6 C     -0.061  1.075  2.986  0.000    29.505     8.907
  11   6 C      0.145  1.045  2.810  0.000    24.834     8.167
  12   8 O     -0.442  1.721  4.721  0.000    21.686     6.287
  13   1 H      0.164  0.836  0.000  0.000     1.308     1.792
  14   1 H      0.061  0.939  0.000  0.000     2.184     2.311
  15   1 H      0.059  0.941  0.000  0.000     2.207     2.323
  16   1 H      0.073  0.927  0.000  0.000     2.049     2.238
  17   1 H      0.048  0.952  0.000  0.000     2.347     2.396
  18   1 H      0.048  0.952  0.000  0.000     2.342     2.393
  19   1 H      0.035  0.965  0.000  0.000     2.512     2.479
  20   1 H      0.043  0.957  0.000  0.000     2.410     2.428
  21   1 H      0.343  0.657  0.000  0.000     0.605     1.222
  22   7 N     -0.382  1.303  4.080  0.000    29.888     8.120
  23   6 C      0.039  1.051  2.910  0.000    19.926     6.358
  24   6 C      0.266  1.053  2.681  0.000    22.511     7.769
  25   8 O     -0.542  1.772  4.770  0.000    24.741     6.669
  26   6 C     -0.089  1.071  3.018  0.000    22.204     6.709
  27   6 C      0.375  1.022  2.603  0.000    20.646     7.436
  28   8 O     -0.631  1.766  4.865  0.000    26.897     6.953
  29   8 O     -0.650  1.777  4.873  0.000    27.376     7.015
  30   1 H      0.167  0.833  0.000  0.000     1.291     1.780
  31   1 H      0.045  0.955  0.000  0.000     2.378     2.411
  32   1 H      0.020  0.980  0.000  0.000     2.727     2.582
  33   1 H      0.001  0.999  0.000  0.000     3.039     2.726
  34   7 N     -0.188  1.244  3.944  0.000    25.079     7.438
  35   6 C      0.019  1.064  2.917  0.000    20.265     6.411
  36   6 C      0.270  1.050  2.680  0.000    22.434     7.756
  37   8 O     -0.501  1.748  4.752  0.000    23.801     6.541
  38   6 C     -0.082  1.057  3.025  0.000    22.066     6.688
  39   6 C     -0.093  1.053  3.039  0.000    22.266     6.718
  40   6 C     -0.095  1.053  3.042  0.000    22.317     6.726
  41   6 C     -0.060  1.064  2.996  0.000    21.740     6.655
  42   7 N     -0.138  1.226  3.912  0.000    23.984     7.274
  43   1 H      0.228  0.772  0.000  0.000     0.974     1.546
  44   1 H      0.062  0.938  0.000  0.000     2.173     2.306
  45   1 H      0.077  0.923  0.000  0.000     2.008     2.216
  46   1 H      0.069  0.931  0.000  0.000     2.092     2.262
  47   1 H      0.065  0.935  0.000  0.000     2.141     2.288
  48   1 H      0.058  0.942  0.000  0.000     2.220     2.330
  49   1 H      0.087  0.913  0.000  0.000     1.908     2.160
  50   1 H      0.093  0.907  0.000  0.000     1.850     2.127
  51   1 H      0.135  0.865  0.000  0.000     1.495     1.912
  52   1 H      0.127  0.873  0.000  0.000     1.557     1.952
  53   1 H      0.303  0.697  0.000  0.000     0.705     1.315
  54   1 H      0.273  0.727  0.000  0.000     0.799     1.401
  55   1 H      0.300  0.700  0.000  0.000     0.714     1.324
  56   7 N     -0.177  1.246  3.931  0.000    24.833     7.401
  57   6 C      0.008  1.068  2.924  0.000    20.445     6.439
  58   6 C      0.259  1.048  2.692  0.000    22.638     7.792
  59   8 O     -0.493  1.742  4.751  0.000    23.628     6.517
  60   6 C     -0.027  1.065  2.962  0.000    21.014     6.520
  61   6 C     -0.121  1.037  3.083  0.000    22.865     6.817
  62   6 C     -0.152  1.049  3.103  0.000    23.498     6.911
  63   1 H      0.223  0.777  0.000  0.000     0.998     1.565
  64   1 H      0.099  0.901  0.000  0.000     1.790     2.092
  65   1 H      0.050  0.950  0.000  0.000     2.314     2.379
  66   1 H      0.069  0.931  0.000  0.000     2.091     2.261
  67   1 H      0.027  0.973  0.000  0.000     2.630     2.536
  68   1 H      0.060  0.940  0.000  0.000     2.200     2.320
  69   1 H      0.083  0.917  0.000  0.000     1.949     2.183
  70   1 H      0.075  0.925  0.000  0.000     2.033     2.230
  71   1 H      0.070  0.930  0.000  0.000     2.090     2.261
  72   7 N     -0.096  1.236  3.860  0.000    23.112     7.140
  73   6 C      0.019  1.063  2.917  0.000    20.221     6.397
  74   6 C      0.277  1.041  2.681  0.000    22.308     7.735
  75   8 O     -0.483  1.740  4.744  0.000    23.420     6.488
  76   6 C     -0.074  1.055  3.019  0.000    21.890     6.658
  77   6 C     -0.061  1.048  3.013  0.000    21.670     6.626
  78   6 C     -0.005  1.049  2.957  0.000    20.713     6.487
  79   1 H      0.097  0.903  0.000  0.000     1.816     2.107
  80   1 H      0.059  0.941  0.000  0.000     2.215     2.327
  81   1 H      0.089  0.911  0.000  0.000     1.885     2.147
  82   1 H      0.033  0.967  0.000  0.000     2.545     2.495
  83   1 H      0.063  0.937  0.000  0.000     2.162     2.299
  84   1 H      0.041  0.959  0.000  0.000     2.431     2.438
  85   1 H      0.084  0.916  0.000  0.000     1.940     2.178
  86   7 N     -0.170  1.240  3.930  0.000    24.677     7.378
  87   6 C      0.028  1.061  2.911  0.000    20.095     6.382
  88   6 C      0.281  1.040  2.679  0.000    22.244     7.724
  89   8 O     -0.481  1.746  4.735  0.000    23.359     6.480
  90   6 C     -0.049  1.047  3.002  0.000    21.450     6.593
  91   6 C     -0.088  1.065  3.023  0.000    22.189     6.707
  92   6 C      0.374  1.025  2.602  0.000    20.667     7.440
  93   8 O     -0.636  1.766  4.870  0.000    27.008     6.968
  94   8 O     -0.659  1.779  4.880  0.000    27.602     7.044
  95   1 H      0.201  0.799  0.000  0.000     1.102     1.644
  96   1 H      0.063  0.937  0.000  0.000     2.160     2.298
  97   1 H      0.052  0.948  0.000  0.000     2.300     2.371
  98   1 H      0.043  0.957  0.000  0.000     2.415     2.430
  99   1 H      0.016  0.984  0.000  0.000     2.794     2.614
 100   1 H      0.022  0.978  0.000  0.000     2.705     2.572
 101   7 N     -0.194  1.248  3.946  0.000    25.213     7.458
 102   6 C      0.012  1.069  2.919  0.000    20.384     6.428
 103   6 C      0.279  1.042  2.679  0.000    22.280     7.730
 104   8 O     -0.497  1.744  4.753  0.000    23.720     6.530
 105   6 C      0.113  1.046  2.841  0.000    18.832     6.196
 106   8 O     -0.450  1.699  4.751  0.000    21.836     6.308
 107   6 C     -0.130  1.042  3.089  0.000    23.061     6.847
 108   1 H      0.214  0.786  0.000  0.000     1.039     1.597
 109   1 H      0.071  0.929  0.000  0.000     2.075     2.253
 110   1 H      0.036  0.964  0.000  0.000     2.506     2.476
 111   1 H      0.321  0.679  0.000  0.000     0.661     1.277
 112   1 H      0.096  0.904  0.000  0.000     1.824     2.112
 113   1 H      0.047  0.953  0.000  0.000     2.361     2.403
 114   1 H      0.063  0.937  0.000  0.000     2.162     2.299
 115   7 N     -0.192  1.253  3.940  0.000    25.167     7.451
 116   6 C      0.013  1.064  2.923  0.000    20.358     6.425
 117   6 C      0.285  1.036  2.678  0.000    22.164     7.709
 118   8 O     -0.503  1.749  4.754  0.000    23.861     6.549
 119   6 C      0.071  1.040  2.889  0.000    19.599     6.342
 120   8 O     -0.487  1.718  4.769  0.000    22.604     6.418
 121   1 H      0.232  0.768  0.000  0.000     0.955     1.531
 122   1 H      0.073  0.927  0.000  0.000     2.051     2.240
 123   1 H      0.066  0.934  0.000  0.000     2.129     2.282
 124   1 H      0.059  0.941  0.000  0.000     2.213     2.326
 125   1 H      0.326  0.674  0.000  0.000     0.647     1.263
 126   7 N     -0.178  1.243  3.935  0.000    24.855     7.404
 127   6 C      0.029  1.060  2.911  0.000    20.091     6.382
 128   6 C      0.280  1.042  2.677  0.000    22.252     7.725
 129   8 O     -0.500  1.747  4.754  0.000    23.793     6.540
 130   6 C     -0.074  1.058  3.016  0.000    21.900     6.661
 131   6 C     -0.012  1.056  2.955  0.000    20.750     6.479
 132   6 C     -0.109  1.041  3.068  0.000    22.631     6.783
 133   6 C     -0.119  1.041  3.078  0.000    22.829     6.813
 134   1 H      0.216  0.784  0.000  0.000     1.027     1.588
 135   1 H      0.069  0.931  0.000  0.000     2.094     2.263
 136   1 H      0.056  0.944  0.000  0.000     2.250     2.346
 137   1 H      0.053  0.947  0.000  0.000     2.288     2.366
 138   1 H      0.039  0.961  0.000  0.000     2.462     2.454
 139   1 H      0.038  0.962  0.000  0.000     2.478     2.462
 140   1 H      0.024  0.976  0.000  0.000     2.678     2.559
 141   1 H      0.048  0.952  0.000  0.000     2.347     2.396
 142   1 H      0.049  0.951  0.000  0.000     2.332     2.388
 143   1 H      0.047  0.953  0.000  0.000     2.357     2.401
 144   1 H      0.042  0.958  0.000  0.000     2.427     2.436
 145   7 N     -0.178  1.241  3.937  0.000    24.856     7.405
 146   6 C      0.023  1.061  2.916  0.000    20.199     6.400
 147   6 C      0.276  1.042  2.682  0.000    22.329     7.738
 148   8 O     -0.470  1.738  4.732  0.000    23.131     6.448
 149   6 C      0.076  1.039  2.885  0.000    19.523     6.330
 150   8 O     -0.483  1.728  4.754  0.000    22.527     6.407
 151   1 H      0.212  0.788  0.000  0.000     1.049     1.604
 152   1 H      0.077  0.923  0.000  0.000     2.009     2.216
 153   1 H      0.053  0.947  0.000  0.000     2.289     2.366
 154   1 H      0.044  0.956  0.000  0.000     2.393     2.419
 155   1 H      0.350  0.650  0.000  0.000     0.588     1.204
 156   7 N     -0.168  1.239  3.928  0.000    24.627     7.370
 157   6 C      0.021  1.066  2.914  0.000    20.230     6.404
 158   6 C      0.264  1.046  2.690  0.000    22.544     7.776
 159   8 O     -0.508  1.746  4.762  0.000    23.956     6.562
 160   6 C     -0.013  1.061  2.952  0.000    20.765     6.481
 161   6 C     -0.114  1.039  3.074  0.000    22.729     6.797
 162   6 C     -0.116  1.041  3.075  0.000    22.768     6.803
 163   1 H      0.189  0.811  0.000  0.000     1.165     1.691
 164   1 H      0.065  0.935  0.000  0.000     2.147     2.291
 165   1 H      0.047  0.953  0.000  0.000     2.356     2.401
 166   1 H      0.063  0.937  0.000  0.000     2.162     2.299
 167   1 H      0.037  0.963  0.000  0.000     2.490     2.467
 168   1 H      0.044  0.956  0.000  0.000     2.392     2.418
 169   1 H      0.061  0.939  0.000  0.000     2.183     2.311
 170   1 H      0.050  0.950  0.000  0.000     2.323     2.384
 171   1 H      0.028  0.972  0.000  0.000     2.609     2.526
 172   7 N     -0.072  1.229  3.843  0.000    22.634     7.066
 173   6 C      0.021  1.066  2.914  0.000    20.215     6.399
 174   6 C      0.278  1.041  2.681  0.000    22.294     7.732
 175   8 O     -0.474  1.741  4.733  0.000    23.208     6.459
 176   6 C     -0.069  1.056  3.013  0.000    21.805     6.646
 177   6 C     -0.069  1.052  3.018  0.000    21.817     6.648
 178   6 C     -0.003  1.050  2.952  0.000    20.682     6.485
 179   1 H      0.055  0.945  0.000  0.000     2.262     2.352
 180   1 H      0.066  0.934  0.000  0.000     2.128     2.281
 181   1 H      0.065  0.935  0.000  0.000     2.143     2.289
 182   1 H      0.074  0.926  0.000  0.000     2.044     2.236
 183   1 H      0.064  0.936  0.000  0.000     2.154     2.295
 184   1 H      0.065  0.935  0.000  0.000     2.141     2.288
 185   1 H      0.049  0.951  0.000  0.000     2.330     2.387
 186   7 N     -0.176  1.239  3.937  0.000    24.817     7.399
 187   6 C      0.020  1.070  2.910  0.000    20.256     6.410
 188   6 C      0.201  1.086  2.713  0.000    23.728     7.978
 189   8 O     -0.362  1.756  4.606  0.000    20.946     6.136
 190   6 C     -0.020  1.065  2.955  0.000    20.894     6.502
 191   6 C     -0.069  1.051  3.018  0.000    21.819     6.650
 192   6 C     -0.112  1.035  3.077  0.000    22.699     6.793
 193   6 C     -0.112  1.037  3.075  0.000    22.710     6.796
 194   1 H      0.212  0.788  0.000  0.000     1.047     1.603
 195   1 H      0.092  0.908  0.000  0.000     1.857     2.131
 196   1 H      0.066  0.934  0.000  0.000     2.125     2.280
 197   1 H      0.048  0.952  0.000  0.000     2.340     2.392
 198   1 H      0.044  0.956  0.000  0.000     2.396     2.421
 199   1 H      0.060  0.940  0.000  0.000     2.201     2.320
 200   1 H      0.035  0.965  0.000  0.000     2.516     2.481
 201   1 H      0.038  0.962  0.000  0.000     2.473     2.459
 202   1 H      0.050  0.950  0.000  0.000     2.323     2.383
 203   1 H      0.040  0.960  0.000  0.000     2.450     2.448
 204   1 H      0.044  0.956  0.000  0.000     2.390     2.418
 205   1 H      0.179  0.821  0.000  0.000     1.222     1.731
 206   1 H      0.072  0.928  0.000  0.000     2.066     2.248
 207   1 H      0.181  0.819  0.000  0.000     1.206     1.720
 208   1 H      0.092  0.908  0.000  0.000     1.863     2.134

 Mol. C6AA /au·bohr⁶  :     398060.984438
 Mol. C8AA /au·bohr⁸  :    8833743.974448
 Mol. α(0) /au        :        939.689172

 
molecular dipole:
                 x           y           z       tot (Debye)
 q only:      -69.998     -92.847     -99.709
   full:      -72.062     -94.102    -100.894     395.637
molecular quadrupole (traceless):
                xx          xy          yy          xz          yz          zz
 q only:     5131.783   -9590.826   -1479.032  -11048.650  -13996.783   -3652.751
  q+dip:     4963.107  -10089.479   -1407.755  -11496.929  -14369.333   -3555.353
   full:     4967.668  -10089.848   -1407.574  -11496.438  -14367.887   -3560.094
speedup  1.00
cpu  time for grad    2.33 s
wall time for grad    2.33 s

SCC energy    :    -326.6372431
rep           :       3.7678895
ES            :       1.2419304
AES           :      -0.0515888
AXC           :       0.0873070
disp          :      -0.2558312
XB            :       0.0000000
fix           :       0.0000000
Gborn         :       0.0000000
Gsasa         :       0.0000000
Ghb           :       0.0000000
Gshift        :       0.0000000
Gsolv         :      -0.3986007     -250.13
Etot ala COSMO:    -326.6372431
grad norm     :       0.3170224
total E       :    -322.8534959
atomizationE  :      59.1296767    37104.43
(atE without considering molecular charge,
 total energy contains solvation terms)
H-L gap (eV)  :          1.8720

------------------------------------------------------------------------
 * finished run on 2019/03/14 at 15:08:21.833     
------------------------------------------------------------------------
 total:
 * wall-time:     0 d,  0 h,  0 min,  2.751 sec
 *  cpu-time:     0 d,  0 h,  0 min,  2.577 sec
 * ratio c/w:     0.937 speedup
 SCF:
 * wall-time:     0 d,  0 h,  0 min,  2.531 sec
 *  cpu-time:     0 d,  0 h,  0 min,  2.530 sec
 * ratio c/w:     0.999 speedup

