      -----------------------------------------------------------      
     |                   =====================                   |     
     |                           x T B                           |     
     |                   =====================                   |     
     |                         S. Grimme                         |     
     |          Mulliken Center for Theoretical Chemistry        |     
     |                    University of Bonn                     |     
     |                Version 6.1 RC1 (SAW190329)                |     
      -----------------------------------------------------------      

   This program is distributed in the hope that it will be useful,
   but WITHOUT ANY WARRANTY; without even the implied warranty of
   MERCHANTABILITY or FITNESS FOR A PARTICULAR PURPOSE.
   
   FOR NON-COMMERCIAL, ACADEMIA USE ONLY.
   
   Cite this work as:
   S. Grimme, C. Bannwarth, P. Shushkov, J. Comput. Theory Chem., 2017,
   13, 1989-2009. DOI: 10.1021/acs.jctc.7b00118
   C. Bannwarth, S. Ehlert and S. Grimme., J. Comput. Theory Chem., 2019,
   just accepted. DOI: 10.1021/acs.jctc.8b01176
   
   for sTDA-xTB:
   S. Grimme and C. Bannwarth, J. Chem. Phys., 2016, 145, 054103.
   DOI: 10.1063/1.4959605
   
   in the mass-spec context:
   V. Asgeirsson, C. Bauer and S. Grimme, Chem. Sci., 2017, 8, 4879.
   DOI: 10.1039/c7sc00601b
   
   for metadynamics refer to:
   S. Grimme, ChemRxiv, Preprint. DOI: 10.26434/chemrxiv.7660532.v1
   
   with help from (in alphabetical order)
   C. Bannwarth, F. Bohle, G. Brandenburg, E. Caldeweyher, M. Checinski,
   S. Dohm, S. Ehlert, S. Ehrlich, F. März, H. Neugebauer, J. Pisarek,
   P. Pracht, P. Shushkov, and S. Spicher.
   
 * started run on 2019/05/31 at 05:35:02.883     

           -------------------------------------------------
          |                Calculation Setup                |
           -------------------------------------------------

          program call               : /home/lum/install/xtb/xtb-190329/bin/xtb xtb_tmp.xyz --chrg -2 --grad --gfn 2 --etemp 500 --acc 0.1 --gbsa h2o --parallel 2
          hostname                   : cpu02
          coordinate file            : xtb_tmp.xyz
          omp threads                :                     2
          number of atoms            :                   392
          number of electrons        :                  1104
          charge                     :                    -2
          spin                       :                   0.0
          first test random number   :      0.12190320825287


molecular fragmentation (1/2 indicates fragments):
111111111111111111111111111111111111111111111111111111111111111111111111
111111111111111111111122222222222222222222222222222222222222222222222222
222222222222222222222222222222222222222222222222222222222222222222222222
222222222222222222222222222222222222222222222222222222222222222222222222
222222222222222222222222222222222222222222222222222222222222222222222222
22222222222222222222112222222222
# atoms in fragment 1/2:    96   296
 fragment masses (1/2) :      708.74     2086.30
CMA distance (Bohr)    :   3.647
constraining FC (au)   :  0.0500

########################################################################
# WARNING! Please study the warnings concerning your input carefully
#  - XTBPATH is not set, using XTBHOME instead
#  - Process number higher than OMP_NUM_THREADS, I hope you know what you are doing.
########################################################################

           ------------------------------------------------- 
          |                 G F N 2 - x T B                 |
          | Geometry, Frequencies, Noncovalent interactions |
          |            JCTC 2018 parametrisation            |
           ------------------------------------------------- 
 
             k(s)              :                1.8500
             k(p)              :                2.2300
             k(d)              :                2.2300
             k(f)              :                2.0000
             kEN (H0ij)        :               -2.0000
             D4 a1             :                0.5200
             D4 a2             :                5.0000
             D4 s6             :                1.0000
             D4 s8             :                2.7000
             D4 s9             :                5.0000
             alphaj            :                2.0000

  Z AO/shell   Hii/eV     exponent
  1     Wed Apr 25 08:07:45 CEST 2018   EN: 2.200 GM2: 0.406  GM3: 0.0800  RAES: 1.40
     1s    -10.707211    1.230000
  6     Wed Apr 25 08:07:45 CEST 2018   EN: 2.550 GM2: 0.538  GM3: 0.1500  RAES: 3.00
     2s    -13.970922    2.096432
     2p    -10.063292    1.800000
  7     Wed Apr 25 08:07:45 CEST 2018   EN: 3.040 GM2: 0.461  GM3:-0.0640  RAES: 1.90
     2s    -16.686243    2.339881
     2p    -12.523956    2.014332
  8     Wed Apr 25 08:07:45 CEST 2018   EN: 3.440 GM2: 0.452  GM3:-0.0517  RAES: 1.80
     2s    -20.229985    2.439742
     2p    -15.503117    2.137023

 Solvent             : h2o
 Using internal parameter file: .param_gbsa2_h2o
 Gsolv ref. state (COSMO-RS): gsolv [1 M gas/solution]
 temperature (mdtemp)       :    298.150000000000     
 dielectric constant        :    80.2000000000000     
 rho                        :    1.00000000000000     
 mass                       :    18.0000000000000     
 surface tension            :    15.5689454083859     
 probe radius               :   0.975313790000000     
 vdW radii scaling          :    1.00000000000000     
 Gshift (Eh)                :   1.857443126794793E-003
 c1                         :    1.55243817000000     
 soset                      :   0.130326360000000     
 HB correction              :  T
 Number of grid points      :          230

            Z     q(EN)     CN     RAES       Cart. coordinates
     1  N   5.0   -0.69    3.00    1.93   370.64572   137.17653   189.42882
     2  C   4.0    0.07    3.99    3.60   370.83161   138.57990   191.77798
     3  C   4.0    0.27    3.01    3.02   373.54804   138.28011   192.75313
     4  O   6.0   -0.41    1.00    1.80   374.60037   136.22042   192.78160
     5  C   4.0   -0.09    3.98    3.59   368.95446   137.54109   193.73791
     6  C   4.0   -0.22    3.98    3.59   369.14282   139.01923   196.21174
     7  C   4.0   -0.24    3.98    3.59   366.24480   137.65052   192.74727
     8  H   1.0    0.25    1.00    1.43   369.40311   135.71758   189.32897
     9  H   1.0    0.09    0.99    1.43   370.44570   140.58236   191.40767
    10  H   1.0    0.13    0.99    1.43   369.48563   135.57121   194.09445
    11  H   1.0    0.12    0.99    1.43   368.03676   138.08585   197.66934
    12  H   1.0    0.14    0.99    1.43   371.07929   139.13949   196.88645
    13  H   1.0    0.10    0.99    1.43   368.41227   140.92638   195.98103
    14  H   1.0    0.09    0.99    1.43   364.96930   136.96736   194.20422
    15  H   1.0    0.09    0.99    1.43   365.73700   139.59123   192.30656
    16  H   1.0    0.09    0.99    1.43   365.98952   136.49589   191.06749
    17  N   5.0   -0.48    3.01    1.93   374.63903   140.41486   193.54448
    18  C   4.0    0.10    3.99    3.61   377.15808   140.55821   194.56653
    19  C   4.0    0.28    3.01    3.02   377.01667   141.08688   197.41596
    20  O   6.0   -0.42    1.00    1.80   375.03808   141.56382   198.49202
    21  C   4.0    0.03    3.98    3.58   378.60132   142.69667   193.18924
    22  O   6.0   -0.47    1.99    1.82   377.08721   144.88366   193.40567
    23  C   4.0   -0.22    3.98    3.59   379.11697   141.97419   190.44649
    24  H   1.0    0.26    1.00    1.43   373.69505   142.07244   193.54639
    25  H   1.0    0.12    0.99    1.43   378.07869   138.73621   194.23518
    26  H   1.0    0.11    0.99    1.43   380.40909   143.02024   194.17070
    27  H   1.0    0.24    0.99    1.43   377.73064   146.17295   192.27589
    28  H   1.0    0.09    0.99    1.43   380.01241   143.53771   189.45857
    29  H   1.0    0.10    0.99    1.43   380.37050   140.35017   190.37536
    30  H   1.0    0.12    0.99    1.43   377.36750   141.47962   189.48705
    31  N   5.0   -0.49    3.00    1.93   379.27060   141.08085   198.59464
    32  C   4.0    0.02    3.99    3.61   379.52418   141.64655   201.24669
    33  C   4.0    0.28    3.00    3.02   380.13565   139.29437   202.80561
    34  O   6.0   -0.43    1.00    1.80   380.30514   137.19502   201.84620
    35  H   1.0    0.24    1.00    1.43   380.81950   140.40218   197.71573
    36  H   1.0    0.11    0.99    1.43   381.02477   143.04248   201.51905
    37  H   1.0    0.14    0.99    1.43   377.73548   142.45251   201.89831
    38  N   5.0   -0.48    3.01    1.93   380.52870   139.77874   205.24782
    39  C   4.0    0.09    3.99    3.61   381.29953   137.91556   207.07509
    40  C   4.0    0.28    3.01    3.02   379.84216   138.35500   209.53529
    41  O   6.0   -0.40    1.00    1.80   379.40172   140.50613   210.27494
    42  C   4.0   -0.12    3.99    3.60   384.14364   138.20437   207.68214
    43  C   4.0   -0.03    3.03    3.02   385.74246   137.79838   205.37771
    44  C   4.0   -0.09    3.03    3.02   386.11340   139.73778   203.64338
    45  C   4.0   -0.10    3.03    3.02   386.83562   135.46276   204.90371
    46  C   4.0   -0.07    3.03    3.02   387.50294   139.35341   201.47096
    47  C   4.0   -0.10    3.03    3.02   388.23711   135.05417   202.73546
    48  C   4.0    0.11    3.03    3.02   388.56454   136.99262   200.99087
    49  O   6.0   -0.44    1.99    1.83   389.90885   136.67752   198.82776
    50  H   1.0    0.26    1.00    1.43   380.14154   141.49869   205.98715
    51  H   1.0    0.17    0.99    1.43   380.92429   136.03063   206.32665
    52  H   1.0    0.11    0.99    1.43   384.43436   140.10493   208.44007
    53  H   1.0    0.11    0.99    1.43   384.60575   136.80171   209.12053
    54  H   1.0    0.12    0.99    1.43   385.32728   141.58623   204.01776
    55  H   1.0    0.13    0.99    1.43   386.59321   133.95065   206.25458
    56  H   1.0    0.16    1.00    1.43   387.83758   140.87417   200.15522
    57  H   1.0    0.11    0.99    1.43   389.08012   133.22367   202.40408
    58  H   1.0    0.26    0.99    1.43   390.42343   134.93559   198.66363
    59  N   5.0   -0.48    3.01    1.93   379.29010   136.24626   210.79108
    60  C   4.0    0.09    3.99    3.61   377.88244   136.20910   213.13591
    61  C   4.0    0.29    3.03    3.02   379.48012   135.02637   215.21248
    62  O   6.0   -0.46    1.00    1.80   380.65930   133.05480   214.83653
    63  C   4.0   -0.17    3.99    3.60   375.49330   134.61471   212.86212
    64  H   1.0    0.28    1.00    1.43   379.71689   134.55090   209.99749
    65  H   1.0    0.17    0.99    1.43   377.37815   138.15028   213.62768
    66  H   1.0    0.14    0.99    1.43   374.47337   134.63121   214.64389
    67  H   1.0    0.15    0.99    1.43   374.30139   135.41318   211.39262
    68  H   1.0    0.12    0.99    1.43   375.99016   132.68768   212.35379
    69  N   5.0   -0.47    3.01    1.93   379.54766   136.21275   217.42560
    70  C   4.0    0.09    4.01    3.63   380.69767   134.94395   219.55537
    71  C   4.0    0.29    3.01    3.02   379.19714   132.55630   220.18514
    72  O   6.0   -0.37    1.00    1.80   376.88514   132.45891   220.12774
    73  C   4.0   -0.09    3.98    3.59   380.85049   136.63650   221.88208
    74  C   4.0    0.33    2.99    3.02   378.29523   137.96514   222.47979
    75  O   6.0   -0.39    1.00    1.80   377.50007   139.48805   220.85338
    76  O   6.0   -0.37    1.00    1.80   377.28454   137.46416   224.54200
    77  H   1.0    0.29    1.00    1.43   378.39867   137.68977   217.87421
    78  H   1.0    0.13    0.99    1.43   382.62674   134.40005   219.01398
    79  H   1.0    0.13    0.99    1.43   381.42074   135.51213   223.51702
    80  H   1.0    0.14    0.99    1.43   382.26179   138.10185   221.53627
    81  N   5.0   -0.47    3.01    1.93   380.67101   130.57939   220.71410
    82  C   4.0    0.07    3.99    3.60   379.76089   128.24334   221.77331
    83  C   4.0    0.08    3.00    3.02   380.55812   128.14341   224.55329
    84  O   6.0   -0.39    1.00    1.80   382.05093   129.64663   225.46710
    85  C   4.0    0.03    3.98    3.58   380.99187   125.93544   220.43401
    86  O   6.0   -0.47    1.99    1.82   383.47370   125.56152   221.33481
    87  C   4.0   -0.20    3.98    3.59   380.90764   126.21620   217.56898
    88  H   1.0    0.24    1.00    1.43   382.56238   130.85403   220.82636
    89  H   1.0    0.13    0.99    1.43   377.70432   128.24135   221.57370
    90  H   1.0    0.11    0.99    1.43   379.95903   124.23539   221.00673
    91  H   1.0    0.27    0.99    1.43   384.45429   127.06450   220.91958
    92  H   1.0    0.11    0.99    1.43   381.75194   124.55595   216.70738
    93  H   1.0    0.10    0.99    1.43   378.96371   126.41892   216.94769
    94  H   1.0    0.14    0.99    1.43   381.94136   127.89792   216.99656
    95  N   5.0   -0.68    3.00    1.93   400.64941   142.40366   216.20083
    96  C   4.0    0.06    3.98    3.58   399.59960   141.05070   214.06244
    97  C   4.0    0.07    3.00    3.02   399.23236   142.86494   211.83417
    98  O   6.0   -0.38    1.00    1.80   398.73799   145.11820   212.13978
    99  C   4.0   -0.13    3.99    3.60   397.09778   139.81824   214.84780
   100  C   4.0   -0.04    3.03    3.02   395.73034   138.55781   212.69960
   101  C   4.0   -0.10    3.03    3.02   396.22236   136.04768   212.10648
   102  C   4.0   -0.10    3.03    3.02   393.90846   139.84755   211.31314
   103  C   4.0   -0.09    3.03    3.02   394.87891   134.82700   210.22580
   104  C   4.0   -0.11    3.03    3.02   392.56177   138.63264   209.42734
   105  C   4.0   -0.11    3.03    3.02   393.02391   136.11162   208.89888
   106  H   1.0    0.26    1.00    1.43   399.36631   143.14550   217.41850
   107  H   1.0    0.10    0.99    1.43   400.95038   139.59943   213.46112
   108  H   1.0    0.09    0.99    1.43   397.53029   138.42760   216.30807
   109  H   1.0    0.12    0.99    1.43   395.90732   141.28235   215.68325
   110  H   1.0    0.11    1.00    1.43   397.66919   135.04347   213.13566
   111  H   1.0    0.12    0.99    1.43   393.53041   141.82191   211.71622
   112  H   1.0    0.13    1.00    1.43   395.29935   132.87816   209.79830
   113  H   1.0    0.11    0.99    1.43   391.15027   139.66989   208.37161
   114  H   1.0    0.11    1.00    1.43   391.93197   135.18071   207.44948
   115  N   5.0   -0.72    3.00    1.93   395.65652   144.08308   205.02425
   116  C   4.0    0.08    3.98    3.59   393.29499   143.42979   203.83205
   117  C   4.0    0.31    3.01    3.02   393.26843   143.88343   200.97911
   118  O   6.0   -0.41    1.00    1.80   391.28263   143.94831   199.79192
   119  C   4.0   -0.10    3.98    3.59   391.09343   144.73804   205.13291
   120  C   4.0    0.33    2.99    3.02   391.13111   147.66734   204.75581
   121  O   6.0   -0.37    1.00    1.80   393.02819   148.59086   203.70908
   122  O   6.0   -0.39    1.00    1.80   389.23249   148.82007   205.54030
   123  H   1.0    0.31    1.00    1.43   395.93367   145.94781   205.33170
   124  H   1.0    0.11    0.99    1.43   393.09572   141.36508   204.03872
   125  H   1.0    0.12    0.99    1.43   389.31159   144.03486   204.37925
   126  H   1.0    0.10    0.99    1.43   391.14061   144.39154   207.17001
   127  N   5.0   -0.46    3.01    1.93   395.54052   143.88590   199.87250
   128  C   4.0    0.08    3.99    3.61   395.83829   143.61759   197.17801
   129  C   4.0    0.26    3.01    3.02   396.73018   140.93859   196.51165
   130  O   6.0   -0.42    1.00    1.80   396.17444   139.93063   194.51350
   131  C   4.0    0.03    3.98    3.58   397.68827   145.62433   196.13560
   132  O   6.0   -0.46    1.99    1.82   397.01215   148.05715   196.97771
   133  C   4.0   -0.22    3.98    3.59   397.82987   145.47997   193.25709
   134  H   1.0    0.25    1.00    1.43   397.12133   144.10924   200.92383
   135  H   1.0    0.15    0.99    1.43   393.96645   143.88662   196.32728
   136  H   1.0    0.12    0.99    1.43   399.54738   145.29587   196.99429
   137  H   1.0    0.27    0.99    1.43   395.29158   148.40568   196.47913
   138  H   1.0    0.10    0.99    1.43   399.16104   146.87407   192.55537
   139  H   1.0    0.12    0.99    1.43   398.42384   143.60513   192.67877
   140  H   1.0    0.11    0.99    1.43   395.97404   145.84996   192.45593
   141  N   5.0   -0.48    3.01    1.93   398.17429   139.83451   198.27647
   142  C   4.0    0.09    3.99    3.61   399.52576   137.51117   197.82445
   143  C   4.0    0.29    3.01    3.02   398.75097   135.30012   199.51949
   144  O   6.0   -0.42    1.00    1.80   398.94614   133.12344   198.77210
   145  C   4.0    0.03    3.98    3.59   402.40111   137.91287   198.26199
   146  O   6.0   -0.47    1.99    1.82   402.85641   138.60606   200.79923
   147  C   4.0   -0.22    3.98    3.59   403.48325   139.82867   196.40480
   148  H   1.0    0.23    1.00    1.43   398.67811   140.86867   199.80241
   149  H   1.0    0.14    0.99    1.43   399.18052   136.96112   195.86105
   150  H   1.0    0.13    0.99    1.43   403.33255   136.07957   198.01949
   151  H   1.0    0.24    0.99    1.43   402.21631   140.31900   201.05047
   152  H   1.0    0.10    0.99    1.43   405.51140   139.99165   196.67839
   153  H   1.0    0.10    0.99    1.43   403.08969   139.24328   194.47975
   154  H   1.0    0.10    0.99    1.43   402.63312   141.67352   196.73270
   155  N   5.0   -0.48    3.00    1.93   398.03751   135.91264   201.86422
   156  C   4.0    0.01    3.99    3.60   397.56789   134.04768   203.78759
   157  C   4.0    0.07    2.99    3.02   399.86983   133.41032   205.42357
   158  O   6.0   -0.42    1.00    1.80   399.72254   131.83872   207.10711
   159  H   1.0    0.25    1.00    1.43   397.89040   137.73207   202.42784
   160  H   1.0    0.11    0.99    1.43   396.08252   134.73459   205.04386
   161  H   1.0    0.15    0.99    1.43   396.95739   132.29462   202.87844
   162  N   5.0   -0.69    3.00    1.93   388.53766   131.13994   216.67433
   163  C   4.0    0.08    3.98    3.59   386.69107   132.10891   214.89680
   164  C   4.0    0.28    3.02    3.02   386.23308   130.08525   212.84816
   165  O   6.0   -0.41    1.00    1.80   387.95156   128.68922   212.20249
   166  C   4.0   -0.14    3.99    3.60   387.76516   134.44096   213.54275
   167  C   4.0   -0.12    3.98    3.59   388.45922   136.60873   215.32926
   168  C   4.0    0.27    3.00    3.02   386.19245   137.94528   216.46451
   169  O   6.0   -0.43    1.00    1.80   385.84258   138.06779   218.74337
   170  N   5.0   -0.64    3.00    1.93   384.57370   138.96748   214.78347
   171  H   1.0    0.27    1.00    1.43   390.32839   131.10708   216.01224
   172  H   1.0    0.14    0.99    1.43   384.94196   132.55993   215.89608
   173  H   1.0    0.12    0.99    1.43   389.46957   133.88336   212.51789
   174  H   1.0    0.11    0.99    1.43   386.36495   135.09298   212.18047
   175  H   1.0    0.11    0.99    1.43   389.58725   135.92251   216.91267
   176  H   1.0    0.11    0.99    1.43   389.56498   138.01517   214.29912
   177  H   1.0    0.25    1.00    1.43   384.99541   139.13684   212.93909
   178  H   1.0    0.30    1.00    1.43   383.05854   139.92702   215.42015
   179  N   5.0   -0.50    3.01    1.93   383.93293   130.05414   211.81587
   180  C   4.0    0.08    4.00    3.62   383.39813   128.46813   209.65605
   181  C   4.0    0.27    3.01    3.02   382.67563   130.14706   207.43545
   182  O   6.0   -0.45    1.00    1.80   381.44580   132.10020   207.70224
   183  C   4.0   -0.09    3.98    3.58   381.35008   126.47788   210.24553
   184  C   4.0   -0.20    3.98    3.59   378.78815   127.68900   210.76793
   185  C   4.0   -0.22    3.98    3.59   381.14348   124.57312   208.09635
   186  H   1.0    0.29    1.00    1.43   382.56191   131.22645   212.45834
   187  H   1.0    0.14    0.99    1.43   385.16933   127.48815   209.21702
   188  H   1.0    0.11    0.99    1.43   381.97747   125.50171   211.95730
   189  H   1.0    0.11    0.99    1.43   377.41535   126.22714   211.20511
   190  H   1.0    0.12    0.99    1.43   378.89742   128.99788   212.34888
   191  H   1.0    0.14    0.99    1.43   378.12655   128.72329   209.11582
   192  H   1.0    0.12    0.99    1.43   379.72805   123.16479   208.56551
   193  H   1.0    0.15    0.99    1.43   380.55969   125.50308   206.36040
   194  H   1.0    0.11    0.99    1.43   382.93694   123.63593   207.74269
   195  N   5.0   -0.49    3.01    1.93   383.59896   129.42282   205.18610
   196  C   4.0    0.07    3.99    3.61   382.72248   130.63937   202.88271
   197  C   4.0    0.29    3.02    3.02   379.89450   130.11203   202.69718
   198  O   6.0   -0.43    1.00    1.80   379.04105   127.96600   202.89162
   199  C   4.0   -0.20    3.99    3.59   384.11842   129.52785   200.62783
   200  H   1.0    0.25    1.00    1.43   384.23146   127.63144   204.95732
   201  H   1.0    0.14    0.99    1.43   383.03612   132.67992   203.04299
   202  H   1.0    0.11    0.99    1.43   383.45720   130.38207   198.88405
   203  H   1.0    0.11    0.99    1.43   386.13009   129.87018   200.82515
   204  H   1.0    0.16    0.99    1.43   383.80496   127.49322   200.56762
   205  N   5.0   -0.49    3.01    1.93   378.38135   132.09457   202.28308
   206  C   4.0    0.09    4.01    3.63   375.66886   131.68382   202.38378
   207  C   4.0    0.29    3.00    3.02   374.91043   129.67936   200.42999
   208  O   6.0   -0.46    1.00    1.80   373.24061   128.13893   200.85717
   209  C   4.0   -0.10    3.99    3.60   374.27524   134.17593   202.01410
   210  C   4.0    0.30    3.00    3.02   374.46343   135.76028   204.41877
   211  O   6.0   -0.40    1.00    1.80   374.29892   134.81619   206.51579
   212  N   5.0   -0.63    3.00    1.93   374.87025   138.23009   204.03384
   213  H   1.0    0.29    1.00    1.43   379.06483   133.88979   202.27197
   214  H   1.0    0.15    0.99    1.43   375.15737   130.91891   204.25024
   215  H   1.0    0.13    0.99    1.43   375.04345   135.20870   200.40892
   216  H   1.0    0.13    0.99    1.43   372.26593   133.82823   201.69254
   217  H   1.0    0.33    1.00    1.43   374.78948   139.45220   205.51632
   218  H   1.0    0.29    1.00    1.43   374.73368   138.97154   202.28424
   219  N   5.0   -0.48    3.01    1.93   376.21441   129.78191   198.27356
   220  C   4.0    0.07    3.99    3.60   375.88867   128.08157   196.14761
   221  C   4.0    0.29    3.01    3.02   375.93060   125.27820   196.86622
   222  O   6.0   -0.44    1.00    1.80   374.91175   123.71826   195.49985
   223  C   4.0   -0.21    3.99    3.60   377.98455   128.54476   194.22340
   224  H   1.0    0.25    1.00    1.43   377.54001   131.14086   198.08276
   225  H   1.0    0.12    0.99    1.43   374.04292   128.43715   195.26995
   226  H   1.0    0.11    0.99    1.43   377.72573   127.28321   192.62588
   227  H   1.0    0.11    0.99    1.43   377.91920   130.48781   193.55909
   228  H   1.0    0.12    0.99    1.43   379.81736   128.15931   195.07513
   229  N   5.0   -0.47    3.01    1.93   377.17390   124.62673   198.96341
   230  C   4.0    0.09    4.00    3.62   377.33858   121.99749   199.69540
   231  C   4.0    0.28    3.01    3.02   374.78943   120.95224   200.53429
   232  O   6.0   -0.48    1.00    1.80   374.34775   118.67391   200.40003
   233  C   4.0   -0.10    3.98    3.59   379.29725   121.68284   201.77971
   234  C   4.0    0.31    2.99    3.02   382.01494   122.23220   200.70400
   235  O   6.0   -0.43    1.00    1.80   383.43254   123.53547   202.05120
   236  O   6.0   -0.40    1.00    1.80   382.51045   121.30231   198.60192
   237  H   1.0    0.30    1.00    1.43   378.00569   125.90029   200.12092
   238  H   1.0    0.15    0.99    1.43   377.97601   120.90165   198.04810
   239  H   1.0    0.13    0.99    1.43   378.93136   122.97613   203.33689
   240  H   1.0    0.11    0.99    1.43   379.29078   119.74250   202.47420
   241  N   5.0   -0.48    3.00    1.93   373.16508   122.62442   201.49499
   242  C   4.0    0.08    3.99    3.60   370.55812   122.04626   202.12301
   243  C   4.0    0.28    3.01    3.02   370.28635   120.44913   204.50809
   244  O   6.0   -0.46    1.00    1.80   368.33929   119.25826   204.90793
   245  C   4.0   -0.12    3.99    3.60   369.12174   120.73551   199.96157
   246  C   4.0   -0.09    3.98    3.58   369.12775   122.19318   197.46478
   247  C   4.0   -0.24    3.99    3.60   367.40106   120.85219   195.57521
   248  C   4.0   -0.22    3.98    3.59   368.22718   124.90362   197.83971
   249  H   1.0    0.30    1.00    1.43   373.57725   124.49118   201.34118
   250  H   1.0    0.11    0.99    1.43   369.64981   123.85853   202.54079
   251  H   1.0    0.13    0.99    1.43   369.95911   118.87930   199.68255
   252  H   1.0    0.11    0.99    1.43   367.17821   120.48761   200.60015
   253  H   1.0    0.16    0.99    1.43   371.04801   122.23939   196.70169
   254  H   1.0    0.10    0.99    1.43   367.38079   121.87953   193.79897
   255  H   1.0    0.09    0.99    1.43   368.04444   118.94326   195.18521
   256  H   1.0    0.09    0.99    1.43   365.47894   120.76846   196.29633
   257  H   1.0    0.10    0.99    1.43   368.08032   125.83623   196.02263
   258  H   1.0    0.09    0.99    1.43   366.38292   124.91835   198.74350
   259  H   1.0    0.13    0.99    1.43   369.54149   125.99093   198.98417
   260  N   5.0   -0.47    3.00    1.93   372.17568   120.47190   206.18113
   261  C   4.0    0.08    3.99    3.60   372.13484   118.86108   208.40060
   262  C   4.0    0.09    3.00    3.02   369.43932   118.43170   209.36837
   263  O   6.0   -0.42    1.00    1.80   368.58651   116.30287   209.62664
   264  C   4.0    0.03    3.98    3.58   373.77849   120.03393   210.52723
   265  O   6.0   -0.51    1.99    1.82   376.18155   120.69436   209.58727
   266  C   4.0   -0.23    3.98    3.59   373.98403   118.22979   212.75927
   267  H   1.0    0.27    1.00    1.43   373.80162   121.42486   205.86535
   268  H   1.0    0.13    0.99    1.43   372.89941   116.99310   207.90324
   269  H   1.0    0.12    0.99    1.43   372.89768   121.81516   211.12274
   270  H   1.0    0.25    0.99    1.43   377.33707   119.31992   209.92903
   271  H   1.0    0.10    0.99    1.43   375.10112   119.10141   214.24664
   272  H   1.0    0.11    0.99    1.43   372.12665   117.77987   213.50667
   273  H   1.0    0.10    0.99    1.43   374.89208   116.48052   212.16940
   274  N   5.0   -0.70    3.00    1.93   364.33280   115.52122   204.76833
   275  C   4.0    0.07    3.98    3.59   364.98655   112.89715   204.34188
   276  C   4.0    0.08    3.00    3.02   364.40475   111.28037   206.65618
   277  O   6.0   -0.43    1.00    1.80   363.37135   109.20753   206.40324
   278  C   4.0   -0.14    3.98    3.59   367.76354   112.63796   203.58870
   279  C   4.0   -0.18    3.98    3.59   368.16867   113.30029   200.80645
   280  C   4.0   -0.15    3.98    3.59   370.98141   113.37685   200.16288
   281  C   4.0   -0.06    3.98    3.58   371.39379   113.91762   197.36014
   282  N   5.0   -0.73    3.98    2.82   374.04922   114.71837   196.93168
   283  H   1.0    0.32    1.00    1.43   365.75531   116.80611   204.82993
   284  H   1.0    0.11    0.99    1.43   363.77421   112.15683   202.82769
   285  H   1.0    0.14    0.99    1.43   368.88100   113.87817   204.79991
   286  H   1.0    0.11    0.99    1.43   368.36443   110.69625   203.92936
   287  H   1.0    0.09    0.99    1.43   367.22633   111.88770   199.63939
   288  H   1.0    0.10    0.99    1.43   367.32482   115.13854   200.41632
   289  H   1.0    0.14    0.99    1.43   371.87495   114.87020   201.26939
   290  H   1.0    0.10    0.99    1.43   371.84670   111.58140   200.68118
   291  H   1.0    0.09    0.99    1.43   370.98527   112.25031   196.22067
   292  H   1.0    0.10    0.99    1.43   370.15667   115.45158   196.75447
   293  H   1.0    0.24    1.00    1.43   374.34058   115.22621   195.07965
   294  H   1.0    0.30    0.99    1.43   374.44026   116.27092   198.10243
   295  H   1.0    0.24    1.00    1.43   375.27487   113.28805   197.40608
   296  N   5.0   -0.68    3.00    1.93   361.11234   140.45919   208.30224
   297  C   4.0    0.07    3.98    3.59   361.16515   141.62717   210.76937
   298  C   4.0    0.27    3.01    3.02   363.34945   143.54947   210.80003
   299  O   6.0   -0.39    1.00    1.80   364.55900   143.97668   208.87218
   300  C   4.0   -0.11    3.98    3.59   361.27399   139.63927   212.89987
   301  C   4.0    0.27    3.00    3.02   359.69508   137.33737   212.15800
   302  O   6.0   -0.43    1.00    1.80   360.61772   135.44875   211.15943
   303  N   5.0   -0.67    3.00    1.93   357.23564   137.50699   212.67874
   304  H   1.0    0.34    1.00    1.43   362.53997   139.28112   207.80297
   305  H   1.0    0.10    0.99    1.43   359.38826   142.70508   210.87451
   306  H   1.0    0.15    0.99    1.43   363.21727   139.01278   213.16743
   307  H   1.0    0.08    0.99    1.43   360.53163   140.42338   214.64976
   308  H   1.0    0.27    1.00    1.43   356.09269   136.05680   212.19079
   309  H   1.0    0.24    1.00    1.43   356.45850   139.07523   213.42395
   310  N   5.0   -0.51    3.00    1.93   363.77034   144.77466   212.99084
   311  C   4.0    0.07    3.99    3.60   365.15748   147.14333   212.99549
   312  C   4.0    0.28    3.01    3.02   367.77914   147.08103   211.75528
   313  O   6.0   -0.43    1.00    1.80   368.69082   149.09813   211.07206
   314  C   4.0   -0.16    3.98    3.58   365.35357   148.31290   215.67170
   315  C   4.0   -0.16    3.98    3.58   365.03599   146.52009   217.92083
   316  C   4.0   -0.14    3.98    3.58   366.96584   144.36517   217.97242
   317  C   4.0   -0.06    3.98    3.58   366.28046   142.28005   219.84193
   318  N   5.0   -0.73    3.98    2.82   366.29913   143.22492   222.49732
   319  H   1.0    0.21    1.00    1.43   362.46416   144.59429   214.37130
   320  H   1.0    0.12    0.99    1.43   364.14282   148.49794   211.78382
   321  H   1.0    0.12    0.99    1.43   367.18582   149.25081   215.77709
   322  H   1.0    0.09    0.99    1.43   363.91305   149.77924   215.82900
   323  H   1.0    0.09    0.99    1.43   365.24303   147.71401   219.58823
   324  H   1.0    0.09    0.99    1.43   363.12291   145.74994   217.92231
   325  H   1.0    0.13    0.99    1.43   367.07550   143.49944   216.10856
   326  H   1.0    0.12    0.99    1.43   368.84498   145.10687   218.37774
   327  H   1.0    0.10    0.99    1.43   364.40245   141.54689   219.41928
   328  H   1.0    0.12    0.99    1.43   367.64138   140.74212   219.65761
   329  H   1.0    0.23    1.00    1.43   365.93203   141.77211   223.74274
   330  H   1.0    0.24    1.00    1.43   368.04852   143.96953   222.92332
   331  H   1.0    0.22    1.00    1.43   364.95028   144.61372   222.72051
   332  N   5.0   -0.48    3.00    1.93   369.04611   144.89715   211.57619
   333  C   4.0    0.09    4.00    3.61   371.57649   144.78287   210.55724
   334  C   4.0    0.30    3.01    3.02   371.78421   143.16548   208.17454
   335  O   6.0   -0.43    1.00    1.80   373.86136   142.50118   207.35864
   336  C   4.0   -0.08    3.98    3.59   373.41327   143.72449   212.51162
   337  C   4.0    0.32    2.99    3.02   372.68372   140.94476   213.13998
   338  O   6.0   -0.43    1.00    1.80   371.11591   139.93102   211.67985
   339  O   6.0   -0.40    1.00    1.80   373.65538   139.97015   215.03375
   340  H   1.0    0.28    1.00    1.43   368.30089   143.21327   212.07274
   341  H   1.0    0.14    0.99    1.43   372.10818   146.72107   210.04117
   342  H   1.0    0.14    0.99    1.43   375.31823   143.65884   211.72213
   343  H   1.0    0.12    0.99    1.43   373.45591   144.84250   214.24014
   344  N   5.0   -0.48    3.00    1.93   369.63434   142.76822   206.88934
   345  C   4.0    0.03    4.00    3.61   369.61601   141.25577   204.63426
   346  C   4.0    0.30    3.01    3.02   369.09351   138.43829   205.03510
   347  O   6.0   -0.42    1.00    1.80   368.76188   137.05256   203.20491
   348  H   1.0    0.31    1.00    1.43   367.94645   143.18192   207.69586
   349  H   1.0    0.12    0.99    1.43   368.18601   141.96057   203.32873
   350  H   1.0    0.14    0.99    1.43   371.45582   141.45206   203.71938
   351  N   5.0   -0.44    3.01    1.93   368.94189   137.65666   207.42509
   352  C   4.0    0.09    4.00    3.62   368.10199   135.11745   207.97599
   353  C   4.0    0.30    3.02    3.02   365.57133   134.76028   206.63381
   354  O   6.0   -0.41    1.00    1.80   364.18679   136.56593   206.19937
   355  C   4.0   -0.01    3.98    3.59   367.74616   134.77521   210.84067
   356  O   6.0   -0.46    1.99    1.82   365.78694   136.26317   211.80953
   357  H   1.0    0.31    1.00    1.43   369.59003   138.70172   208.90291
   358  H   1.0    0.12    0.99    1.43   369.47942   133.71813   207.30225
   359  H   1.0    0.10    0.99    1.43   367.45984   132.76191   211.25772
   360  H   1.0    0.14    0.99    1.43   369.47235   135.41128   211.78505
   361  H   1.0    0.31    0.99    1.43   364.14392   135.55415   211.33115
   362  N   5.0   -0.49    3.01    1.93   364.96795   132.39954   206.00617
   363  C   4.0    0.07    3.99    3.61   362.58873   131.82567   204.78092
   364  C   4.0    0.05    3.00    3.02   361.40949   129.53370   206.07590
   365  O   6.0   -0.42    1.00    1.80   362.53031   127.53784   206.40860
   366  C   4.0   -0.07    3.98    3.58   362.93262   131.44989   201.90552
   367  C   4.0   -0.17    3.98    3.59   360.39071   130.72862   200.72136
   368  C   4.0   -0.20    3.98    3.59   364.99718   129.52177   201.35124
   369  C   4.0   -0.25    3.98    3.59   360.44894   130.78875   197.84274
   370  H   1.0    0.25    1.00    1.43   366.04605   130.92861   206.56004
   371  H   1.0    0.13    0.99    1.43   361.35805   133.45950   205.08954
   372  H   1.0    0.12    0.99    1.43   363.53382   133.28270   201.14911
   373  H   1.0    0.11    0.99    1.43   359.86071   128.84331   201.37370
   374  H   1.0    0.10    0.99    1.43   358.96295   132.05265   201.40930
   375  H   1.0    0.09    0.99    1.43   365.17494   129.22819   199.33145
   376  H   1.0    0.13    0.99    1.43   366.80977   130.19485   202.05090
   377  H   1.0    0.13    0.99    1.43   364.57080   127.73504   202.27064
   378  H   1.0    0.09    0.99    1.43   358.55489   130.53634   197.09594
   379  H   1.0    0.09    0.99    1.43   361.17987   132.59388   197.19402
   380  H   1.0    0.09    0.99    1.43   361.64516   129.29544   197.10690
   381  H   1.0    0.27    1.00    1.43   370.18157   138.22756   188.17484
   382  H   1.0    0.12    1.00    1.43   379.85036   126.81162   225.69192
   383  H   1.0    0.28    1.00    1.43   401.62518   141.35211   217.11444
   384  H   1.0    0.12    1.00    1.43   399.39284   142.22926   210.06182
   385  H   1.0    0.30    1.00    1.43   395.75321   143.32699   206.54463
   386  H   1.0    0.15    1.00    1.43   401.51705   134.28480   205.11858
   387  H   1.0    0.29    1.00    1.43   388.54379   132.10948   218.07166
   388  H   1.0    0.14    1.00    1.43   368.34419   119.90965   209.80129
   389  H   1.0    0.29    1.00    1.43   363.30596   116.05990   203.52415
   390  H   1.0    0.15    1.00    1.43   364.86156   111.90122   208.38156
   391  H   1.0    0.31    1.00    1.43   359.70647   139.51400   208.15157
   392  H   1.0    0.12    1.00    1.43   359.62916   129.61554   206.70423

           ------------------------------------------------- 
          |        Self-Consistent Charge Iterations        |
           ------------------------------------------------- 

          ...................................................
          :                      SETUP                      :
          :.................................................:
          :  # basis functions                 980          :
          :  # atomic orbitals                 980          :
          :  # shells                          588          :
          :  # electrons                      1104          :
          :  max. iterations                   250          :
          :  Hamiltonian                  GFN2-xTB          :
          :  restarted?                      false          :
          :  GBSA solvation                   true          :
          :  PC potential                    false          :
          :  electronic temp.          500.0000000     K    :
          :  accuracy                    0.1000000          :
          :  -> integral cutoff          0.3500000E+02      :
          :  -> integral neglect         0.1000000E-08      :
          :  -> SCF convergence          0.1000000E-06 Eh   :
          :  -> wf. convergence          0.1000000E-04 e    :
          :  Broyden damping             0.4000000          :
          ...................................................

 iter      E             dE          RMSdq      gap      omega  full diag
   1   -637.7703367 -0.637770E+03  0.450E+00    2.24       0.0  T
   2   -639.6413400 -0.187100E+01  0.232E+00    1.53       1.0  T
   3   -639.7087907 -0.674507E-01  0.125E+00    1.86       1.0  T
   4   -639.7305171 -0.217263E-01  0.301E-01    1.25       1.0  T
   5   -639.7489090 -0.183920E-01  0.124E-01    1.36       1.0  T
   6   -639.7496374 -0.728322E-03  0.600E-02    1.30       1.0  T
   7   -639.7497836 -0.146254E-03  0.283E-02    1.28       1.0  T
   8   -639.7498889 -0.105293E-03  0.120E-02    1.28       1.0  T
   9   -639.7499000 -0.110853E-04  0.657E-03    1.27       1.0  T
  10   -639.7499039 -0.393052E-05  0.264E-03    1.27       1.9  T
  11   -639.7499046 -0.651088E-06  0.124E-03    1.27       4.1  T
  12   -639.7499047 -0.130771E-06  0.620E-04    1.27       8.2  T
  13   -639.7499047 -0.443292E-07  0.263E-04    1.27      19.2  T
  14   -639.7499047 -0.525404E-08  0.107E-04    1.27      47.0  T
  15   -639.7499047 -0.977820E-09  0.468E-05    1.27     108.0  T
  16   -639.7499048 -0.161322E-09  0.221E-05    1.27     228.5  T

   *** convergence criteria satisfied after 16 iterations ***

         #    Occupation            Energy/Eh            Energy/eV
      -------------------------------------------------------------
         1        2.0000           -0.7422977             -20.1989
       ...           ...                  ...                  ...
       546        2.0000           -0.3717131             -10.1148
       547        2.0000           -0.3673339              -9.9957
       548        2.0000           -0.3633293              -9.8867
       549        2.0000           -0.3624599              -9.8630
       550        2.0000           -0.3600158              -9.7965
       551        2.0000           -0.3570725              -9.7164
       552        2.0000           -0.3447588              -9.3814 (HOMO)
       553        0.0000           -0.2982538              -8.1159 (LUMO)
       554        0.0000           -0.2956330              -8.0446
       555                         -0.2920943              -7.9483
       556                         -0.2895158              -7.8781
       557                         -0.2772657              -7.5448
       ...                                ...                  ...
       980                          0.6509095              17.7121
      -------------------------------------------------------------
                  HL-Gap            0.0465050 Eh            1.2655 eV
             Fermi-level           -0.3216604 Eh           -8.7528 eV

 SCC (total)                   0 d,  0 h,  0 min,  7.710 sec
 SCC setup                      ...        0 min,  0.098 sec (  1.271%)
 Dispersion                     ...        0 min,  0.076 sec (  0.990%)
 integral evaluation            ...        0 min,  0.283 sec (  3.674%)
 zeroth order Hamiltonian       ...        0 min,  0.006 sec (  0.072%)
 iterations                     ...        0 min,  6.080 sec ( 78.851%)
 molecular gradient             ...        0 min,  1.119 sec ( 14.507%)
 printout                       ...        0 min,  0.049 sec (  0.634%)

         :::::::::::::::::::::::::::::::::::::::::::::::::::::
         ::                     SUMMARY                     ::
         :::::::::::::::::::::::::::::::::::::::::::::::::::::
         :: total energy             -632.404532310906 Eh   ::
         :: total w/o Gsasa/hb       -632.324790166395 Eh   ::
         :: gradient norm               0.546384846619 Eh/α ::
         :: HOMO-LUMO gap               1.265465697556 eV   ::
         ::.................................................::
         :: SCC energy               -639.759623431066 Eh   ::
         :: -> isotropic ES             2.518785289645 Eh   ::
         :: -> anisotropic ES          -0.108100762634 Eh   ::
         :: -> anisotropic XC           0.162837801675 Eh   ::
         :: -> dispersion              -0.504878670061 Eh   ::
         :: -> Gsolv                   -0.723951493872 Eh   ::
         ::    -> Gborn                -0.644209349362 Eh   ::
         ::    -> Gsasa                -0.011576124162 Eh   ::
         ::    -> Ghb                  -0.070023463475 Eh   ::
         ::    -> Gshift                0.001857443127 Eh   ::
         :: repulsion energy            7.313824184829 Eh   ::
         :: add. restraining            0.000000000000 Eh   ::
         :::::::::::::::::::::::::::::::::::::::::::::::::::::

           -------------------------------------------------
          |                Property Printout                |
           -------------------------------------------------

    * Orbital Energies and Occupations

         #    Occupation            Energy/Eh            Energy/eV
      -------------------------------------------------------------
         1        2.0000           -0.7422977             -20.1989
       ...           ...                  ...                  ...
       540        2.0000           -0.3873071             -10.5392
       541        2.0000           -0.3864355             -10.5154
       542        2.0000           -0.3847225             -10.4688
       543        2.0000           -0.3761750             -10.2362
       544        2.0000           -0.3755217             -10.2185
       545        2.0000           -0.3746737             -10.1954
       546        2.0000           -0.3717131             -10.1148
       547        2.0000           -0.3673339              -9.9957
       548        2.0000           -0.3633293              -9.8867
       549        2.0000           -0.3624599              -9.8630
       550        2.0000           -0.3600158              -9.7965
       551        2.0000           -0.3570725              -9.7164
       552        2.0000           -0.3447588              -9.3814 (HOMO)
       553        0.0000           -0.2982538              -8.1159 (LUMO)
       554        0.0000           -0.2956330              -8.0446
       555                         -0.2920943              -7.9483
       556                         -0.2895158              -7.8781
       557                         -0.2772657              -7.5448
       558                         -0.2714267              -7.3859
       559                         -0.2496131              -6.7923
       560                         -0.2492539              -6.7825
       561                         -0.2445733              -6.6552
       562                         -0.2421733              -6.5899
       563                         -0.2412604              -6.5650
       ...                                ...                  ...
       980                          0.6509095              17.7121
      -------------------------------------------------------------
                  HL-Gap            0.0465050 Eh            1.2655 eV
             Fermi-level           -0.3216604 Eh           -8.7528 eV

   #   Z        covCN         q      C6AA      α(0)
   1   7 N      2.637    -0.388    30.052     8.142
   2   6 C      3.789     0.030    20.075     6.381
   3   6 C      2.756     0.272    22.408     7.752
   4   8 O      0.858    -0.487    23.501     6.500
   5   6 C      3.853    -0.014    20.795     6.486
   6   6 C      3.756    -0.115    22.754     6.801
   7   6 C      3.756    -0.115    22.758     6.802
   8   1 H      0.860     0.166     1.297     1.784
   9   1 H      0.924     0.026     2.647     2.545
  10   1 H      0.924     0.035     2.514     2.480
  11   1 H      0.925     0.041     2.433     2.439
  12   1 H      0.925     0.020     2.726     2.582
  13   1 H      0.925     0.044     2.397     2.421
  14   1 H      0.925     0.048     2.347     2.396
  15   1 H      0.925     0.048     2.343     2.394
  16   1 H      0.925     0.052     2.299     2.371
  17   7 N      2.693    -0.164    24.555     7.360
  18   6 C      3.795     0.012    20.389     6.430
  19   6 C      2.755     0.274    22.375     7.746
  20   8 O      0.858    -0.475    23.235     6.463
  21   6 C      3.727     0.113    18.826     6.195
  22   8 O      1.655    -0.491    22.690     6.430
  23   6 C      3.752    -0.141    23.276     6.880
  24   1 H      0.860     0.214     1.039     1.597
  25   1 H      0.924     0.081     1.966     2.193
  26   1 H      0.923     0.023     2.683     2.562
  27   1 H      0.804     0.353     0.581     1.198
  28   1 H      0.925     0.073     2.057     2.243
  29   1 H      0.925     0.060     2.194     2.316
  30   1 H      0.925     0.069     2.094     2.263
  31   7 N      2.687    -0.166    24.602     7.367
  32   6 C      3.747    -0.033    21.238     6.573
  33   6 C      2.751     0.274    22.375     7.746
  34   8 O      0.858    -0.478    23.308     6.473
  35   1 H      0.860     0.212     1.045     1.601
  36   1 H      0.924     0.085     1.931     2.173
  37   1 H      0.924     0.096     1.822     2.111
  38   7 N      2.694    -0.168    24.637     7.372
  39   6 C      3.797     0.025    20.160     6.393
  40   6 C      2.759     0.273    22.393     7.749
  41   8 O      0.858    -0.506    23.915     6.557
  42   6 C      3.813    -0.059    21.628     6.619
  43   6 C      2.969    -0.002    28.062     8.689
  44   6 C      2.925    -0.037    28.909     8.817
  45   6 C      2.924    -0.038    28.948     8.823
  46   6 C      2.918    -0.057    29.414     8.894
  47   6 C      2.917    -0.077    29.922     8.970
  48   6 C      2.846     0.147    24.803     8.162
  49   8 O      1.660    -0.427    21.386     6.243
  50   1 H      0.860     0.204     1.087     1.633
  51   1 H      0.924     0.080     1.980     2.201
  52   1 H      0.924     0.040     2.447     2.446
  53   1 H      0.924     0.042     2.425     2.435
  54   1 H      0.925     0.017     2.778     2.606
  55   1 H      0.926     0.037     2.485     2.465
  56   1 H      0.926     0.055     2.253     2.347
  57   1 H      0.926     0.061     2.184     2.311
  58   1 H      0.805     0.361     0.563     1.179
  59   7 N      2.692    -0.181    24.927     7.415
  60   6 C      3.795     0.043    19.851     6.345
  61   6 C      2.772     0.273    22.380     7.748
  62   8 O      0.859    -0.495    23.664     6.522
  63   6 C      3.760    -0.101    22.474     6.758
  64   1 H      0.860     0.228     0.976     1.547
  65   1 H      0.924     0.057     2.238     2.339
  66   1 H      0.925     0.055     2.259     2.350
  67   1 H      0.925     0.056     2.246     2.343
  68   1 H      0.925     0.060     2.199     2.319
  69   7 N      2.690    -0.178    24.860     7.405
  70   6 C      3.809     0.051    19.712     6.320
  71   6 C      2.757     0.281    22.244     7.723
  72   8 O      0.858    -0.497    23.719     6.530
  73   6 C      3.803    -0.102    22.442     6.744
  74   6 C      2.684     0.376    20.634     7.434
  75   8 O      0.856    -0.635    27.000     6.967
  76   8 O      0.856    -0.622    26.659     6.922
  77   1 H      0.860     0.213     1.042     1.599
  78   1 H      0.923     0.044     2.390     2.418
  79   1 H      0.924     0.036     2.499     2.472
  80   1 H      0.924     0.053     2.289     2.366
  81   7 N      2.695    -0.158    24.425     7.340
  82   6 C      3.789     0.007    20.479     6.445
  83   6 C      2.770     0.204    23.658     7.966
  84   8 O      0.856    -0.363    20.955     6.137
  85   6 C      3.728     0.107    18.914     6.209
  86   8 O      1.654    -0.459    22.029     6.336
  87   6 C      3.752    -0.136    23.176     6.865
  88   1 H      0.860     0.199     1.109     1.650
  89   1 H      0.924     0.105     1.739     2.062
  90   1 H      0.924     0.085     1.931     2.173
  91   1 H      0.804     0.320     0.663     1.279
  92   1 H      0.925     0.084     1.943     2.180
  93   1 H      0.925     0.060     2.195     2.317
  94   1 H      0.925     0.046     2.376     2.411
  95   7 N      2.636    -0.380    29.829     8.111
  96   6 C      3.782     0.041    19.902     6.355
  97   6 C      2.765     0.201    23.730     7.978
  98   8 O      0.856    -0.376    21.202     6.173
  99   6 C      3.812    -0.073    21.880     6.658
 100   6 C      2.968     0.005    27.912     8.666
 101   6 C      2.925    -0.041    29.025     8.835
 102   6 C      2.924    -0.041    29.027     8.835
 103   6 C      2.918    -0.034    28.841     8.807
 104   6 C      2.918    -0.034    28.848     8.808
 105   6 C      2.920    -0.040    28.988     8.829
 106   1 H      0.860     0.162     1.320     1.799
 107   1 H      0.924     0.069     2.102     2.267
 108   1 H      0.924     0.072     2.067     2.248
 109   1 H      0.924     0.047     2.362     2.404
 110   1 H      0.926     0.062     2.179     2.308
 111   1 H      0.925     0.008     2.927     2.675
 112   1 H      0.926     0.059     2.206     2.323
 113   1 H      0.925     0.009     2.906     2.666
 114   1 H      0.926     0.033     2.546     2.495
 115   7 N      2.635    -0.383    29.891     8.120
 116   6 C      3.787     0.049    19.772     6.333
 117   6 C      2.755     0.283    22.205     7.716
 118   8 O      0.859    -0.509    23.978     6.565
 119   6 C      3.802    -0.085    22.122     6.696
 120   6 C      2.683     0.374    20.656     7.438
 121   8 O      0.856    -0.631    26.882     6.951
 122   8 O      0.856    -0.661    27.664     7.052
 123   1 H      0.860     0.161     1.330     1.807
 124   1 H      0.923     0.032     2.564     2.504
 125   1 H      0.925     0.014     2.831     2.631
 126   1 H      0.924     0.006     2.956     2.689
 127   7 N      2.690    -0.180    24.900     7.411
 128   6 C      3.797     0.001    20.565     6.457
 129   6 C      2.754     0.270    22.435     7.756
 130   8 O      0.858    -0.459    22.885     6.414
 131   6 C      3.726     0.115    18.800     6.191
 132   8 O      1.655    -0.471    22.269     6.370
 133   6 C      3.753    -0.139    23.239     6.874
 134   1 H      0.860     0.210     1.057     1.611
 135   1 H      0.924     0.083     1.950     2.184
 136   1 H      0.924     0.052     2.300     2.372
 137   1 H      0.805     0.320     0.664     1.280
 138   1 H      0.925     0.079     1.984     2.203
 139   1 H      0.925     0.065     2.136     2.286
 140   1 H      0.925     0.056     2.247     2.344
 141   7 N      2.688    -0.177    24.827     7.400
 142   6 C      3.795    -0.006    20.687     6.477
 143   6 C      2.758     0.275    22.352     7.742
 144   8 O      0.859    -0.476    23.258     6.466
 145   6 C      3.730     0.106    18.935     6.212
 146   8 O      1.654    -0.471    22.274     6.371
 147   6 C      3.752    -0.140    23.254     6.877
 148   1 H      0.860     0.192     1.145     1.676
 149   1 H      0.924     0.101     1.773     2.082
 150   1 H      0.924     0.068     2.108     2.271
 151   1 H      0.803     0.325     0.650     1.266
 152   1 H      0.925     0.082     1.958     2.188
 153   1 H      0.925     0.065     2.144     2.290
 154   1 H      0.925     0.049     2.334     2.389
 155   7 N      2.686    -0.158    24.414     7.338
 156   6 C      3.742    -0.033    21.243     6.576
 157   6 C      2.761     0.202    23.705     7.973
 158   8 O      0.856    -0.357    20.839     6.120
 159   1 H      0.860     0.202     1.097     1.641
 160   1 H      0.924     0.102     1.763     2.076
 161   1 H      0.924     0.126     1.563     1.955
 162   7 N      2.637    -0.381    29.843     8.113
 163   6 C      3.784     0.031    20.066     6.381
 164   6 C      2.762     0.269    22.457     7.761
 165   8 O      0.859    -0.474    23.219     6.461
 166   6 C      3.808    -0.061    21.663     6.625
 167   6 C      3.805    -0.095    22.309     6.724
 168   6 C      2.743     0.292    22.055     7.690
 169   8 O      0.859    -0.489    23.547     6.506
 170   7 N      2.638    -0.280    27.244     7.752
 171   1 H      0.860     0.176     1.237     1.742
 172   1 H      0.924     0.028     2.608     2.526
 173   1 H      0.924     0.060     2.198     2.319
 174   1 H      0.925     0.017     2.776     2.606
 175   1 H      0.924     0.081     1.971     2.195
 176   1 H      0.924     0.066     2.130     2.282
 177   1 H      0.860     0.199     1.109     1.650
 178   1 H      0.860     0.197     1.124     1.660
 179   7 N      2.690    -0.187    25.047     7.433
 180   6 C      3.803     0.016    20.298     6.414
 181   6 C      2.760     0.279    22.285     7.731
 182   8 O      0.858    -0.506    23.922     6.558
 183   6 C      3.851    -0.017    20.836     6.492
 184   6 C      3.755    -0.108    22.624     6.782
 185   6 C      3.757    -0.123    22.910     6.824
 186   1 H      0.860     0.212     1.045     1.601
 187   1 H      0.924     0.080     1.978     2.200
 188   1 H      0.924     0.061     2.189     2.314
 189   1 H      0.925     0.063     2.160     2.299
 190   1 H      0.925     0.037     2.486     2.466
 191   1 H      0.925     0.019     2.750     2.593
 192   1 H      0.925     0.075     2.028     2.227
 193   1 H      0.925     0.039     2.463     2.454
 194   1 H      0.925     0.046     2.369     2.407
 195   7 N      2.695    -0.177    24.825     7.400
 196   6 C      3.797     0.031    20.048     6.376
 197   6 C      2.770     0.279    22.287     7.732
 198   8 O      0.859    -0.485    23.464     6.495
 199   6 C      3.757    -0.127    22.985     6.835
 200   1 H      0.860     0.226     0.984     1.554
 201   1 H      0.924     0.061     2.188     2.313
 202   1 H      0.925     0.061     2.185     2.312
 203   1 H      0.925     0.075     2.033     2.230
 204   1 H      0.925     0.078     1.999     2.211
 205   7 N      2.690    -0.202    25.381     7.482
 206   6 C      3.808     0.041    19.877     6.347
 207   6 C      2.751     0.278    22.301     7.733
 208   8 O      0.858    -0.477    23.276     6.468
 209   6 C      3.809    -0.096    22.325     6.726
 210   6 C      2.745     0.298    21.945     7.670
 211   8 O      0.859    -0.494    23.658     6.521
 212   7 N      2.637    -0.293    27.549     7.795
 213   1 H      0.860     0.219     1.014     1.577
 214   1 H      0.923     0.071     2.076     2.253
 215   1 H      0.925     0.066     2.131     2.283
 216   1 H      0.924     0.094     1.844     2.123
 217   1 H      0.860     0.217     1.026     1.586
 218   1 H      0.860     0.211     1.051     1.606
 219   7 N      2.690    -0.177    24.825     7.400
 220   6 C      3.790     0.023    20.205     6.402
 221   6 C      2.761     0.278    22.303     7.734
 222   8 O      0.859    -0.471    23.147     6.450
 223   6 C      3.759    -0.130    23.052     6.845
 224   1 H      0.860     0.200     1.108     1.649
 225   1 H      0.924     0.088     1.899     2.155
 226   1 H      0.925     0.089     1.892     2.151
 227   1 H      0.925     0.078     1.995     2.209
 228   1 H      0.925     0.050     2.321     2.382
 229   7 N      2.690    -0.188    25.087     7.439
 230   6 C      3.803     0.035    19.990     6.365
 231   6 C      2.754     0.267    22.485     7.765
 232   8 O      0.858    -0.467    23.057     6.438
 233   6 C      3.802    -0.104    22.482     6.751
 234   6 C      2.682     0.372    20.694     7.444
 235   8 O      0.856    -0.630    26.871     6.950
 236   8 O      0.856    -0.630    26.858     6.948
 237   1 H      0.860     0.195     1.130     1.665
 238   1 H      0.923     0.085     1.927     2.171
 239   1 H      0.925     0.033     2.547     2.496
 240   1 H      0.924     0.049     2.338     2.391
 241   7 N      2.686    -0.176    24.811     7.398
 242   6 C      3.791     0.023    20.191     6.399
 243   6 C      2.758     0.274    22.363     7.744
 244   8 O      0.860    -0.450    22.695     6.387
 245   6 C      3.811    -0.077    21.964     6.671
 246   6 C      3.850    -0.017    20.835     6.492
 247   6 C      3.758    -0.122    22.895     6.822
 248   6 C      3.757    -0.117    22.785     6.806
 249   1 H      0.860     0.202     1.098     1.642
 250   1 H      0.924     0.077     2.009     2.216
 251   1 H      0.925     0.079     1.984     2.203
 252   1 H      0.924     0.072     2.063     2.246
 253   1 H      0.924     0.041     2.429     2.437
 254   1 H      0.925     0.046     2.366     2.406
 255   1 H      0.925     0.053     2.289     2.366
 256   1 H      0.925     0.049     2.327     2.385
 257   1 H      0.925     0.037     2.494     2.469
 258   1 H      0.925     0.044     2.399     2.422
 259   1 H      0.925     0.024     2.670     2.555
 260   7 N      2.688    -0.165    24.559     7.360
 261   6 C      3.792     0.012    20.379     6.429
 262   6 C      2.764     0.210    23.556     7.948
 263   8 O      0.856    -0.356    20.815     6.117
 264   6 C      3.726     0.110    18.877     6.203
 265   8 O      1.655    -0.481    22.484     6.401
 266   6 C      3.753    -0.143    23.308     6.885
 267   1 H      0.860     0.202     1.094     1.638
 268   1 H      0.923     0.086     1.916     2.164
 269   1 H      0.924     0.045     2.386     2.415
 270   1 H      0.805     0.342     0.607     1.223
 271   1 H      0.925     0.074     2.041     2.234
 272   1 H      0.925     0.060     2.203     2.321
 273   1 H      0.925     0.071     2.078     2.254
 274   7 N      2.635    -0.406    30.528     8.206
 275   6 C      3.784     0.040    19.913     6.356
 276   6 C      2.766     0.202    23.709     7.974
 277   8 O      0.856    -0.392    21.525     6.220
 278   6 C      3.807    -0.067    21.783     6.644
 279   6 C      3.804    -0.070    21.843     6.654
 280   6 C      3.804    -0.092    22.242     6.714
 281   6 C      3.732    -0.041    21.407     6.604
 282   7 N      3.483    -0.160    24.446     7.343
 283   1 H      0.860     0.182     1.202     1.718
 284   1 H      0.923     0.055     2.263     2.352
 285   1 H      0.924     0.052     2.290     2.367
 286   1 H      0.924     0.043     2.406     2.426
 287   1 H      0.924     0.061     2.189     2.314
 288   1 H      0.925     0.054     2.269     2.356
 289   1 H      0.924     0.070     2.087     2.259
 290   1 H      0.925     0.074     2.040     2.234
 291   1 H      0.924     0.121     1.605     1.981
 292   1 H      0.924     0.101     1.776     2.084
 293   1 H      0.859     0.291     0.740     1.348
 294   1 H      0.857     0.288     0.749     1.356
 295   1 H      0.859     0.291     0.740     1.348
 296   7 N      2.637    -0.390    30.109     8.149
 297   6 C      3.784     0.031    20.067     6.381
 298   6 C      2.757     0.268    22.466     7.762
 299   8 O      0.858    -0.489    23.539     6.505
 300   6 C      3.805    -0.128    22.951     6.820
 301   6 C      2.744     0.295    21.998     7.680
 302   8 O      0.859    -0.515    24.109     6.583
 303   7 N      2.638    -0.278    27.197     7.745
 304   1 H      0.860     0.166     1.295     1.783
 305   1 H      0.923     0.074     2.039     2.233
 306   1 H      0.925     0.077     2.005     2.215
 307   1 H      0.925     0.082     1.963     2.191
 308   1 H      0.860     0.240     0.923     1.505
 309   1 H      0.860     0.246     0.900     1.486
 310   7 N      2.684    -0.196    25.262     7.465
 311   6 C      3.792     0.018    20.284     6.414
 312   6 C      2.754     0.283    22.199     7.715
 313   8 O      0.859    -0.501    23.806     6.542
 314   6 C      3.801    -0.082    22.067     6.688
 315   6 C      3.800    -0.094    22.286     6.721
 316   6 C      3.801    -0.086    22.140     6.699
 317   6 C      3.730    -0.047    21.507     6.620
 318   7 N      3.482    -0.146    24.139     7.297
 319   1 H      0.860     0.236     0.939     1.518
 320   1 H      0.923     0.078     1.997     2.210
 321   1 H      0.924     0.060     2.200     2.320
 322   1 H      0.924     0.089     1.887     2.148
 323   1 H      0.924     0.093     1.849     2.126
 324   1 H      0.924     0.083     1.944     2.180
 325   1 H      0.925     0.054     2.265     2.354
 326   1 H      0.924     0.058     2.226     2.333
 327   1 H      0.925     0.128     1.549     1.946
 328   1 H      0.924     0.095     1.827     2.114
 329   1 H      0.859     0.307     0.693     1.304
 330   1 H      0.859     0.290     0.745     1.352
 331   1 H      0.859     0.311     0.682     1.294
 332   7 N      2.687    -0.172    24.730     7.386
 333   6 C      3.798     0.038    19.935     6.357
 334   6 C      2.761     0.286    22.147     7.707
 335   8 O      0.858    -0.530    24.456     6.630
 336   6 C      3.806    -0.092    22.253     6.715
 337   6 C      2.685     0.376    20.624     7.432
 338   8 O      0.856    -0.619    26.594     6.914
 339   8 O      0.856    -0.618    26.560     6.910
 340   1 H      0.860     0.195     1.131     1.666
 341   1 H      0.923     0.073     2.055     2.242
 342   1 H      0.924     0.033     2.539     2.492
 343   1 H      0.925     0.037     2.486     2.466
 344   7 N      2.685    -0.184    24.986     7.424
 345   6 C      3.748    -0.029    21.149     6.559
 346   6 C      2.757     0.281    22.239     7.722
 347   8 O      0.858    -0.507    23.930     6.559
 348   1 H      0.860     0.227     0.977     1.549
 349   1 H      0.924     0.100     1.787     2.091
 350   1 H      0.924     0.080     1.974     2.197
 351   7 N      2.694    -0.180    24.896     7.411
 352   6 C      3.800     0.030    20.069     6.378
 353   6 C      2.764     0.284    22.189     7.714
 354   8 O      0.859    -0.466    23.051     6.437
 355   6 C      3.679     0.080    19.452     6.318
 356   8 O      1.654    -0.467    22.197     6.360
 357   1 H      0.860     0.225     0.987     1.556
 358   1 H      0.923     0.034     2.537     2.491
 359   1 H      0.923     0.031     2.570     2.507
 360   1 H      0.924     0.051     2.313     2.378
 361   1 H      0.803     0.336     0.621     1.238
 362   7 N      2.691    -0.164    24.548     7.359
 363   6 C      3.798     0.024    20.182     6.397
 364   6 C      2.766     0.201    23.729     7.978
 365   8 O      0.856    -0.354    20.785     6.112
 366   6 C      3.852    -0.014    20.798     6.486
 367   6 C      3.803    -0.066    21.757     6.641
 368   6 C      3.754    -0.115    22.754     6.802
 369   6 C      3.752    -0.115    22.767     6.804
 370   1 H      0.860     0.199     1.111     1.651
 371   1 H      0.924     0.085     1.924     2.169
 372   1 H      0.924     0.047     2.355     2.400
 373   1 H      0.924     0.045     2.380     2.413
 374   1 H      0.924     0.043     2.403     2.424
 375   1 H      0.925     0.066     2.134     2.285
 376   1 H      0.925     0.024     2.679     2.559
 377   1 H      0.925     0.056     2.242     2.341
 378   1 H      0.925     0.058     2.223     2.331
 379   1 H      0.925     0.041     2.440     2.443
 380   1 H      0.925     0.051     2.311     2.377
 381   1 H      0.862     0.188     1.166     1.692
 382   1 H      0.930     0.099     1.794     2.094
 383   1 H      0.862     0.196     1.128     1.663
 384   1 H      0.930     0.063     2.165     2.301
 385   1 H      0.862     0.173     1.253     1.754
 386   1 H      0.930     0.091     1.873     2.140
 387   1 H      0.862     0.177     1.230     1.737
 388   1 H      0.930     0.067     2.123     2.278
 389   1 H      0.862     0.179     1.221     1.731
 390   1 H      0.930     0.069     2.097     2.264
 391   1 H      0.862     0.177     1.233     1.739
 392   1 H      0.930     0.090     1.880     2.144

 Mol. C6AA /au·bohr⁶  :    1451557.358707
 Mol. C8AA /au·bohr⁸  :   32190536.486864
 Mol. α(0) /au        :       1797.795751


Wiberg/Mayer (AO) data.
largest (>0.10) Wiberg bond orders for each atom
          total WBO             WBO to atom ...
     1  N   2.995        C    2 1.017    H  381 0.955    H    8 0.949
     2  C   3.987        N    1 1.017    C    5 0.964    H    9 0.963    C    3 0.935
     3  C   3.937        O    4 1.648    N   17 1.279    C    2 0.935
     4  O   1.955        C    3 1.648    N   17 0.192
     5  C   3.993        C    6 1.008    C    7 1.007    H   10 0.968    C    2 0.964
     6  C   3.994        C    5 1.008    H   13 0.986    H   11 0.985    H   12 0.983
     7  C   3.994        C    5 1.007    H   15 0.986    H   14 0.984    H   16 0.979
     8  H   0.972        N    1 0.949
     9  H   0.999        C    2 0.963
    10  H   0.999        C    5 0.968
    11  H   0.998        C    6 0.985
    12  H   1.000        C    6 0.983
    13  H   0.998        C    6 0.986
    14  H   0.997        C    7 0.984
    15  H   0.998        C    7 0.986
    16  H   0.997        C    7 0.979
    17  N   3.466        C    3 1.279    C   18 1.002    H   24 0.919    O    4 0.192
    18  C   3.976        N   17 1.002    C   21 0.950    H   25 0.945    C   19 0.936
    19  C   3.942        O   20 1.654    N   31 1.272    C   18 0.936
    20  O   1.977        C   19 1.654    N   31 0.192
    21  C   3.955        C   23 1.001    O   22 0.994    H   26 0.958    C   18 0.950
    22  O   1.930        C   21 0.994    H   27 0.858
    23  C   3.987        C   21 1.001    H   29 0.983    H   30 0.982    H   28 0.979
    24  H   0.954        N   17 0.919
    25  H   0.993        C   18 0.945
    26  H   0.999        C   21 0.958
    27  H   0.875        O   22 0.858
    28  H   0.994        C   23 0.979
    29  H   0.996        C   23 0.983
    30  H   0.995        C   23 0.982
    31  N   3.456        C   19 1.272    C   32 1.010    H   35 0.925    O   20 0.192
    32  C   3.971        N   31 1.010    C   33 0.950    H   36 0.949    H   37 0.946
    33  C   3.947        O   34 1.609    N   38 1.305    C   32 0.950
    34  O   1.965        C   33 1.609    N   38 0.190
    35  H   0.955        N   31 0.925
    36  H   0.992        C   32 0.949
    37  H   0.990        C   32 0.946
    38  N   3.482        C   33 1.305    C   39 0.989    H   50 0.922    O   34 0.190
    39  C   3.962        N   38 0.989    H   51 0.948    C   42 0.944    C   40 0.935
    40  C   3.948        O   41 1.616    N   59 1.323    C   39 0.935
    41  O   1.942        C   40 1.616    N   59 0.201
    42  C   3.990        C   43 1.009    H   52 0.970    H   53 0.961    C   39 0.944
    43  C   3.985        C   45 1.410    C   44 1.396    C   42 1.009
    44  C   3.991        C   46 1.465    C   43 1.396    H   54 0.968    C   47 0.103
    45  C   3.990        C   47 1.446    C   43 1.410    H   55 0.967    C   46 0.107
    46  C   3.988        C   44 1.465    C   48 1.358    H   56 0.965    C   45 0.107
    47  C   3.984        C   45 1.446    C   48 1.371    H   57 0.962    C   44 0.103
    48  C   3.944        C   47 1.371    C   46 1.358    O   49 1.086
    49  O   2.099        C   48 1.086    H   58 0.850
    50  H   0.958        N   38 0.922
    51  H   0.994        C   39 0.948
    52  H   0.998        C   42 0.970
    53  H   0.997        C   42 0.961
    54  H   1.000        C   44 0.968
    55  H   0.999        C   45 0.967
    56  H   0.997        C   46 0.965
    57  H   0.996        C   47 0.962
    58  H   0.870        O   49 0.850
    59  N   3.483        C   40 1.323    C   60 0.979    H   64 0.894    O   41 0.201
    60  C   3.965        C   63 0.980    N   59 0.979    H   65 0.954    C   61 0.944
    61  C   3.950        O   62 1.579    N   69 1.338    C   60 0.944
    62  O   1.936        C   61 1.579    N   69 0.192
    63  C   3.989        H   66 0.982    H   68 0.982    C   60 0.980    H   67 0.979
    64  H   0.948        N   59 0.894
    65  H   0.997        C   60 0.954
    66  H   0.996        C   63 0.982
    67  H   0.996        C   63 0.979
    68  H   0.996        C   63 0.982
    69  N   3.489        C   61 1.338    C   70 0.977    H   77 0.886    O   62 0.192
    70  C   3.964        N   69 0.977    C   73 0.974    H   78 0.947    C   71 0.933
    71  C   3.950        O   72 1.642    N   81 1.294    C   70 0.933
    72  O   1.952        C   71 1.642    N   81 0.193
    73  C   3.980        H   79 0.977    C   70 0.974    H   80 0.963    C   74 0.916
    74  C   3.937        O   76 1.520    O   75 1.478    C   73 0.916
    75  O   1.822        C   74 1.478    O   76 0.216
    76  O   1.812        C   74 1.520    O   75 0.216
    77  H   0.954        N   69 0.886
    78  H   0.998        C   70 0.947
    79  H   0.998        C   73 0.977
    80  H   0.997        C   73 0.963
    81  N   3.468        C   71 1.294    C   82 0.985    H   88 0.923    O   72 0.193
    82  C   3.957        N   81 0.985    C   83 0.978    H   89 0.936    C   85 0.925
    83  C   3.899        O   84 1.904    C   82 0.978    H  382 0.948
    84  O   2.047        C   83 1.904
    85  C   3.951        C   87 1.001    O   86 1.000    H   90 0.958    C   82 0.925
    86  O   1.960        C   85 1.000    H   91 0.878
    87  C   3.989        C   85 1.001    H   93 0.982    H   94 0.982    H   92 0.977
    88  H   0.960        N   81 0.923
    89  H   0.989        C   82 0.936
    90  H   0.992        C   85 0.958
    91  H   0.897        O   86 0.878
    92  H   0.991        C   87 0.977
    93  H   0.996        C   87 0.982
    94  H   0.998        C   87 0.982
    95  N   3.002        C   96 1.023    H  106 0.956    H  383 0.950
    96  C   3.988        N   95 1.023    C   97 0.978    H  107 0.955    C   99 0.939
    97  C   3.896        O   98 1.898    C   96 0.978    H  384 0.956
    98  O   2.033        C   97 1.898
    99  C   3.992        C  100 1.011    H  109 0.970    H  108 0.965    C   96 0.939
   100  C   3.988        C  101 1.413    C  102 1.408    C   99 1.011    C  105 0.109
   101  C   3.989        C  103 1.444    C  100 1.413    H  110 0.966    C  104 0.110
   102  C   3.992        C  104 1.446    C  100 1.408    H  111 0.970    C  103 0.111
   103  C   3.990        C  101 1.444    C  105 1.436    H  112 0.967    C  102 0.111
   104  C   3.992        C  102 1.446    C  105 1.434    H  113 0.970    C  101 0.110
   105  C   3.990        C  103 1.436    C  104 1.434    H  114 0.969    C  100 0.109
   106  H   0.974        N   95 0.956
   107  H   0.995        C   96 0.955
   108  H   0.995        C   99 0.965
   109  H   0.998        C   99 0.970
   110  H   0.996        C  101 0.966
   111  H   1.000        C  102 0.970
   112  H   0.996        C  103 0.967
   113  H   1.000        C  104 0.970
   114  H   0.998        C  105 0.969
   115  N   3.001        C  116 1.020    H  385 0.956    H  123 0.951
   116  C   3.988        N  115 1.020    C  119 0.990    C  117 0.946    H  124 0.941
   117  C   3.944        O  118 1.634    N  127 1.282    C  116 0.946
   118  O   1.939        C  117 1.634    N  127 0.183
   119  C   3.987        C  116 0.990    H  125 0.968    H  126 0.967    C  120 0.911
   120  C   3.933        O  121 1.503    O  122 1.497    C  119 0.911
   121  O   1.810        C  120 1.503    O  122 0.214
   122  O   1.785        C  120 1.497    O  121 0.214
   123  H   0.974        N  115 0.951
   124  H   0.999        C  116 0.941
   125  H   1.000        C  119 0.968
   126  H   0.999        C  119 0.967
   127  N   3.449        C  117 1.282    C  128 0.985    H  134 0.912    O  118 0.183
   128  C   3.956        N  127 0.985    H  135 0.948    C  131 0.943    C  129 0.934
   129  C   3.953        O  130 1.664    N  141 1.273    C  128 0.934
   130  O   1.986        C  129 1.664    N  141 0.195
   131  C   3.950        C  133 0.999    O  132 0.996    H  136 0.958    C  128 0.943
   132  O   1.958        C  131 0.996    H  137 0.880
   133  C   3.987        C  131 0.999    H  140 0.984    H  138 0.981    H  139 0.980
   134  H   0.956        N  127 0.912
   135  H   0.993        C  128 0.948
   136  H   0.997        C  131 0.958
   137  H   0.898        O  132 0.880
   138  H   0.993        C  133 0.981
   139  H   0.996        C  133 0.980
   140  H   0.997        C  133 0.984
   141  N   3.455        C  129 1.273    C  142 0.985    H  148 0.914    O  130 0.195
   142  C   3.955        N  141 0.985    H  149 0.948    C  143 0.939    C  145 0.934
   143  C   3.952        O  144 1.648    N  155 1.287    C  142 0.939
   144  O   1.967        C  143 1.648    N  155 0.197
   145  C   3.951        C  147 1.001    O  146 0.998    H  150 0.959    C  142 0.934
   146  O   1.955        C  145 0.998    H  151 0.870
   147  C   3.988        C  145 1.001    H  153 0.982    H  154 0.981    H  152 0.979
   148  H   0.963        N  141 0.914
   149  H   0.989        C  142 0.948
   150  H   0.995        C  145 0.959
   151  H   0.894        O  146 0.870
   152  H   0.993        C  147 0.979
   153  H   0.996        C  147 0.982
   154  H   0.998        C  147 0.981
   155  N   3.472        C  143 1.287    C  156 1.004    H  159 0.927    O  144 0.197
   156  C   3.964        N  155 1.004    C  157 0.992    H  160 0.934    H  161 0.929
   157  C   3.904        O  158 1.903    C  156 0.992    H  386 0.950
   158  O   2.051        C  157 1.903
   159  H   0.959        N  155 0.927
   160  H   0.989        C  156 0.934
   161  H   0.984        C  156 0.929
   162  N   2.999        C  163 1.026    H  387 0.954    H  171 0.952
   163  C   3.988        N  162 1.026    C  166 0.969    H  172 0.956    C  164 0.933
   164  C   3.948        O  165 1.644    N  179 1.301    C  163 0.933
   165  O   1.960        C  164 1.644    N  179 0.199
   166  C   3.993        C  167 0.992    H  173 0.971    C  163 0.969    H  174 0.966
   167  C   3.992        C  166 0.992    C  168 0.972    H  175 0.967    H  176 0.955
   168  C   3.933        O  169 1.654    N  170 1.277    C  167 0.972
   169  O   1.956        C  168 1.654    N  170 0.193
   170  N   3.383        C  168 1.277    H  178 0.939    H  177 0.935    O  169 0.193
   171  H   0.969        N  162 0.952
   172  H   0.999        C  163 0.956
   173  H   0.996        C  166 0.971
   174  H   1.000        C  166 0.966
   175  H   0.993        C  167 0.967
   176  H   0.995        C  167 0.955
   177  H   0.960        N  170 0.935
   178  H   0.961        N  170 0.939
   179  N   3.470        C  164 1.301    C  180 0.984    H  186 0.893    O  165 0.199
   180  C   3.963        N  179 0.984    C  181 0.949    H  187 0.948    C  183 0.948
   181  C   3.941        O  182 1.608    N  195 1.299    C  180 0.949
   182  O   1.956        C  181 1.608    N  195 0.187
   183  C   3.987        C  184 1.011    C  185 1.008    H  188 0.962    C  180 0.948
   184  C   3.995        C  183 1.011    H  191 0.986    H  189 0.982    H  190 0.981
   185  C   3.990        C  183 1.008    H  194 0.985    H  193 0.977    H  192 0.976
   186  H   0.955        N  179 0.893
   187  H   0.993        C  180 0.948
   188  H   0.996        C  183 0.962
   189  H   0.996        C  184 0.982
   190  H   0.999        C  184 0.981
   191  H   1.000        C  184 0.986
   192  H   0.994        C  185 0.976
   193  H   0.998        C  185 0.977
   194  H   0.998        C  185 0.985
   195  N   3.456        C  181 1.299    C  196 0.972    H  200 0.911    O  182 0.187
   196  C   3.965        C  199 0.994    N  195 0.972    H  201 0.953    C  197 0.939
   197  C   3.943        O  198 1.609    N  205 1.305    C  196 0.939
   198  O   1.962        C  197 1.609    N  205 0.188
   199  C   3.981        C  196 0.994    H  202 0.982    H  203 0.978    H  204 0.972
   200  H   0.949        N  195 0.911
   201  H   0.996        C  196 0.953
   202  H   0.996        C  199 0.982
   203  H   0.994        C  199 0.978
   204  H   0.994        C  199 0.972
   205  N   3.461        C  197 1.305    C  206 0.977    H  213 0.887    O  198 0.188
   206  C   3.964        C  209 0.984    N  205 0.977    H  214 0.946    C  207 0.932
   207  C   3.955        O  208 1.613    N  219 1.317    C  206 0.932
   208  O   1.956        C  207 1.613    N  219 0.196
   209  C   3.991        C  206 0.984    H  215 0.969    C  210 0.959    H  216 0.947
   210  C   3.941        O  211 1.650    N  212 1.300    C  209 0.959
   211  O   1.956        C  210 1.650    N  212 0.194
   212  N   3.389        C  210 1.300    H  218 0.926    H  217 0.900    O  211 0.194
   213  H   0.952        N  205 0.887
   214  H   0.995        C  206 0.946
   215  H   0.996        C  209 0.969
   216  H   0.991        C  209 0.947
   217  H   0.952        N  212 0.900
   218  H   0.955        N  212 0.926
   219  N   3.479        C  207 1.317    C  220 0.967    H  224 0.923    O  208 0.196
   220  C   3.952        C  223 0.993    N  219 0.967    H  225 0.945    C  221 0.939
   221  C   3.955        O  222 1.628    N  229 1.306    C  220 0.939
   222  O   1.950        C  221 1.628    N  229 0.198
   223  C   3.982        C  220 0.993    H  228 0.985    H  227 0.978    H  226 0.978
   224  H   0.960        N  219 0.923
   225  H   0.992        C  220 0.945
   226  H   0.992        C  223 0.978
   227  H   0.993        C  223 0.978
   228  H   0.997        C  223 0.985
   229  N   3.479        C  221 1.306    C  230 0.975    H  237 0.902    O  222 0.198
   230  C   3.958        C  233 0.979    N  229 0.975    C  231 0.945    H  238 0.941
   231  C   3.953        O  232 1.577    N  241 1.324    C  230 0.945
   232  O   1.955        C  231 1.577    N  241 0.183
   233  C   3.980        C  230 0.979    H  239 0.974    H  240 0.965    C  234 0.893
   234  C   3.936        O  236 1.512    O  235 1.506    C  233 0.893
   235  O   1.815        C  234 1.506    O  236 0.219
   236  O   1.813        C  234 1.512    O  235 0.219
   237  H   0.962        N  229 0.902
   238  H   0.992        C  230 0.941
   239  H   0.999        C  233 0.974
   240  H   0.997        C  233 0.965
   241  N   3.485        C  231 1.324    C  242 0.974    H  249 0.903    O  232 0.183
   242  C   3.955        N  241 0.974    C  245 0.970    C  243 0.946    H  250 0.936
   243  C   3.948        O  244 1.606    N  260 1.308    C  242 0.946
   244  O   2.024        C  243 1.606    N  260 0.191
   245  C   3.979        C  246 0.996    C  242 0.970    H  252 0.967    H  251 0.964
   246  C   3.993        C  248 1.009    C  247 1.006    C  245 0.996    H  253 0.962
   247  C   3.993        C  246 1.006    H  256 0.986    H  254 0.985    H  255 0.982
   248  C   3.995        C  246 1.009    H  257 0.985    H  258 0.983    H  259 0.981
   249  H   0.959        N  241 0.903
   250  H   0.994        C  242 0.936
   251  H   0.994        C  245 0.964
   252  H   0.994        C  245 0.967
   253  H   0.998        C  246 0.962
   254  H   0.997        C  247 0.985
   255  H   0.997        C  247 0.982
   256  H   0.997        C  247 0.986
   257  H   0.998        C  248 0.985
   258  H   0.998        C  248 0.983
   259  H   0.999        C  248 0.981
   260  N   3.475        C  243 1.308    C  261 0.974    H  267 0.921    O  244 0.191
   261  C   3.962        N  260 0.974    C  262 0.972    H  268 0.948    C  264 0.940
   262  C   3.918        O  263 1.877    C  261 0.972    H  388 0.955
   263  O   2.046        C  262 1.877
   264  C   3.954        C  266 1.006    O  265 0.995    H  269 0.961    C  261 0.940
   265  O   1.957        C  264 0.995    H  270 0.864
   266  C   3.987        C  264 1.006    H  271 0.981    H  272 0.980    H  273 0.979
   267  H   0.959        N  260 0.921
   268  H   0.992        C  261 0.948
   269  H   0.998        C  264 0.961
   270  H   0.883        O  265 0.864
   271  H   0.994        C  266 0.981
   272  H   0.996        C  266 0.980
   273  H   0.995        C  266 0.979
   274  N   2.996        C  275 1.016    H  389 0.956    H  283 0.927
   275  C   3.985        N  274 1.016    C  276 0.980    H  284 0.958    C  278 0.958
   276  C   3.886        O  277 1.879    C  275 0.980    H  390 0.956
   277  O   2.014        C  276 1.879
   278  C   3.992        C  279 1.003    H  286 0.974    H  285 0.971    C  275 0.958
   279  C   3.993        C  278 1.003    C  280 1.003    H  287 0.975    H  288 0.973
   280  C   3.986        C  281 1.009    C  279 1.003    H  290 0.973    H  289 0.967
   281  C   3.914        C  280 1.009    H  291 0.965    H  292 0.962    N  282 0.955
   282  N   3.654        C  281 0.955    H  293 0.902    H  295 0.901    H  294 0.846
   283  H   0.967        N  274 0.927
   284  H   0.997        C  275 0.958
   285  H   0.997        C  278 0.971
   286  H   0.998        C  278 0.974
   287  H   0.996        C  279 0.975
   288  H   0.997        C  279 0.973
   289  H   0.995        C  280 0.967
   290  H   0.994        C  280 0.973
   291  H   0.985        C  281 0.965
   292  H   0.990        C  281 0.962
   293  H   0.915        N  282 0.902
   294  H   0.917        N  282 0.846
   295  H   0.915        N  282 0.901
   296  N   3.001        C  297 1.034    H  391 0.951    H  304 0.930
   297  C   3.986        N  296 1.034    C  300 0.951    H  305 0.944    C  298 0.940
   298  C   3.936        O  299 1.645    N  310 1.271    C  297 0.940
   299  O   1.984        C  298 1.645    N  310 0.183
   300  C   3.990        H  307 0.966    C  301 0.965    H  306 0.962    C  297 0.951
   301  C   3.941        O  302 1.611    N  303 1.334    C  300 0.965
   302  O   1.964        C  301 1.611    N  303 0.196
   303  N   3.409        C  301 1.334    H  309 0.921    H  308 0.920    O  302 0.196
   304  H   0.972        N  296 0.930
   305  H   0.994        C  297 0.944
   306  H   0.994        C  300 0.962
   307  H   0.993        C  300 0.966
   308  H   0.942        N  303 0.920
   309  H   0.940        N  303 0.921
   310  N   3.422        C  298 1.271    C  311 0.982    H  319 0.904    O  299 0.183
   311  C   3.961        N  310 0.982    C  314 0.964    C  312 0.946    H  320 0.944
   312  C   3.935        O  313 1.629    N  332 1.281    C  311 0.946
   313  O   1.944        C  312 1.629    N  332 0.187
   314  C   3.978        C  315 1.008    H  321 0.973    H  322 0.971    C  311 0.964
   315  C   3.987        C  314 1.008    C  316 1.006    H  323 0.966    H  324 0.964
   316  C   3.987        C  317 1.012    C  315 1.006    H  326 0.972    H  325 0.961
   317  C   3.923        C  316 1.012    H  328 0.970    H  327 0.961    N  318 0.960
   318  N   3.664        C  317 0.960    H  330 0.901    H  329 0.893    H  331 0.888
   319  H   0.944        N  310 0.904
   320  H   0.994        C  311 0.944
   321  H   0.996        C  314 0.973
   322  H   0.991        C  314 0.971
   323  H   0.991        C  315 0.966
   324  H   0.993        C  315 0.964
   325  H   0.997        C  316 0.961
   326  H   0.997        C  316 0.972
   327  H   0.984        C  317 0.961
   328  H   0.991        C  317 0.970
   329  H   0.906        N  318 0.893
   330  H   0.916        N  318 0.901
   331  H   0.903        N  318 0.888
   332  N   3.469        C  312 1.281    C  333 0.992    H  340 0.919    O  313 0.187
   333  C   3.975        N  332 0.992    C  336 0.984    C  334 0.945    H  341 0.936
   334  C   3.943        O  335 1.585    N  344 1.298    C  333 0.945
   335  O   1.928        C  334 1.585    N  344 0.178
   336  C   3.984        C  333 0.984    H  343 0.972    H  342 0.961    C  337 0.915
   337  C   3.934        O  339 1.535    O  338 1.448    C  336 0.915
   338  O   1.844        C  337 1.448    O  339 0.210
   339  O   1.835        C  337 1.535    O  338 0.210
   340  H   0.962        N  332 0.919
   341  H   0.994        C  333 0.936
   342  H   0.998        C  336 0.961
   343  H   0.998        C  336 0.972
   344  N   3.458        C  334 1.298    C  345 1.004    H  348 0.889    O  335 0.178
   345  C   3.965        N  344 1.004    H  349 0.951    C  346 0.947    H  350 0.945
   346  C   3.951        O  347 1.607    N  351 1.323    C  345 0.947
   347  O   1.924        C  346 1.607    N  351 0.193
   348  H   0.948        N  344 0.889
   349  H   0.990        C  345 0.951
   350  H   0.993        C  345 0.945
   351  N   3.475        C  346 1.323    C  352 0.988    H  357 0.876    O  347 0.193
   352  C   3.971        N  351 0.988    C  355 0.961    H  358 0.950    C  353 0.937
   353  C   3.956        O  354 1.628    N  362 1.302    C  352 0.937
   354  O   1.977        C  353 1.628    N  362 0.194
   355  C   3.967        O  356 1.020    H  359 0.968    H  360 0.964    C  352 0.961
   356  O   1.947        C  355 1.020    H  361 0.829
   357  H   0.949        N  351 0.876
   358  H   0.999        C  352 0.950
   359  H   0.998        C  355 0.968
   360  H   0.997        C  355 0.964
   361  H   0.887        O  356 0.829
   362  N   3.472        C  353 1.302    C  363 0.967    H  370 0.928    O  354 0.194
   363  C   3.952        C  364 0.981    N  362 0.967    H  371 0.954    C  366 0.933
   364  C   3.902        O  365 1.903    C  363 0.981    H  392 0.952
   365  O   2.049        C  364 1.903
   366  C   3.982        C  368 1.012    C  367 0.992    H  372 0.963    C  363 0.933
   367  C   3.994        C  369 1.019    C  366 0.992    H  374 0.976    H  373 0.973
   368  C   3.993        C  366 1.012    H  376 0.985    H  377 0.981    H  375 0.975
   369  C   3.993        C  367 1.019    H  379 0.986    H  378 0.985    H  380 0.984
   370  H   0.960        N  362 0.928
   371  H   0.993        C  363 0.954
   372  H   0.998        C  366 0.963
   373  H   0.998        C  367 0.973
   374  H   0.998        C  367 0.976
   375  H   0.996        C  368 0.975
   376  H   0.999        C  368 0.985
   377  H   0.997        C  368 0.981
   378  H   0.996        C  369 0.985
   379  H   0.998        C  369 0.986
   380  H   0.997        C  369 0.984
   381  H   0.964        N    1 0.955
   382  H   0.990        C   83 0.948
   383  H   0.962        N   95 0.950
   384  H   0.996        C   97 0.956
   385  H   0.970        N  115 0.956
   386  H   0.992        C  157 0.950
   387  H   0.968        N  162 0.954
   388  H   0.996        C  262 0.955
   389  H   0.968        N  274 0.956
   390  H   0.995        C  276 0.956
   391  H   0.968        N  296 0.951
   392  H   0.992        C  364 0.952
 
molecular dipole:
                 x           y           z       tot (Debye)
 q only:     -780.209    -283.832    -418.486
   full:     -779.757    -279.914    -417.154    2357.704
molecular quadrupole (traceless):
                xx          xy          yy          xz          yz          zz
 q only:  -240080.860 -166121.276  155482.693 -244973.694  -88813.483   84598.167
  q+dip:  -240552.184 -163832.635  156082.016 -244073.802  -87340.446   84470.168
   full:  -240549.317 -163830.988  156074.742 -244073.505  -87340.224   84474.575


           -------------------------------------------------
          | TOTAL ENERGY             -632.404532310906 Eh   |
          | GRADIENT NORM               0.546384846619 Eh/α |
          | HOMO-LUMO GAP               1.265465697556 eV   |
           -------------------------------------------------

------------------------------------------------------------------------
 * finished run on 2019/05/31 at 05:35:11.327     
------------------------------------------------------------------------
 total:
 * wall-time:     0 d,  0 h,  0 min,  8.443 sec
 *  cpu-time:     0 d,  0 h,  0 min, 15.569 sec
 * ratio c/w:     1.844 speedup
 SCF:
 * wall-time:     0 d,  0 h,  0 min,  7.712 sec
 *  cpu-time:     0 d,  0 h,  0 min, 14.641 sec
 * ratio c/w:     1.898 speedup

