      -----------------------------------------------------------      
     |                   =====================                   |     
     |                           x T B                           |     
     |                   =====================                   |     
     |                         S. Grimme                         |     
     |          Mulliken Center for Theoretical Chemistry        |     
     |                    University of Bonn                     |     
     |                 Version 6.0.1 (SAW181210)                 |     
      -----------------------------------------------------------      

   This program is distributed in the hope that it will be useful,
   but WITHOUT ANY WARRANTY; without even the implied warranty of
   MERCHANTABILITY or FITNESS FOR A PARTICULAR PURPOSE.
   
   FOR NON-COMMERCIAL, ACADEMIA USE ONLY.
   
   Cite this work as:
   S. Grimme, C. Bannwarth, P. Shushkov, J. Comput. Theory Chem., 2017,
   13, 1989-2009.
   C. Bannwarth, S. Ehlert and S. Grimme., ChemRxiv, 2018, preprint.
   http://doi.org/10.26434/chemrxiv.7246238.v1
   
   for sTDA-xTB:
   S. Grimme and C. Bannwarth, J. Chem. Phys., 2016, 145, 054103.
   
   in the mass-spec context:
   V. Asgeirsson, C. Bauer and S. Grimme, Chem. Sci., 2017, 8, 4879.
   
   if GBSA is used:
   P. Shushkov, F. März and S. Grimme, unpublished.
   
   for ANC optimizer:
   S. Grimme, unpublished.
   Rational Function algorithm used in ANCopt:
   F. Eckert, P. Pulay, H.-J. Werner, J. Comput. Chem., 1997, 18, 1473.
   
   with help from (in alphabetical order)
   C. Bannwarth, F. Bohle, G. Brandenburg, E. Caldeweyher, M. Checinski,
   S. Dohm, S. Ehlert, S. Ehrlich, F. März, H. Neugebauer, J. Pisarek,
   P. Pracht, P. Shushkov, and S. Spicher.
   
 * started run on 2019/02/13 at 00:17:53.923     
========================================================================
 # omp threads = 16
========================================================================
number of atoms            : 464
number of electrons        : 1256
charge                     : 0
spin                       : .0
first test random number   : .3747

########################################################################
# WARNING! Please study the warnings concerning your input carefully
#  - Process number higher than OMP_NUM_THREADS, I hope you know what you are doing.
########################################################################

           ------------------------------------------------- 
          |                 G F N 2 - x T B                 |
          | Geometry, Frequencies, Noncovalent interactions |
          |            JCTC 2018 parametrisation            |
           ------------------------------------------------- 
 
      method parameters     
 k(s)        :  1.8500
 k(p)        :  2.2300
 k(d)        :  2.2300
 k(f)        :  2.0000
 kEN (H0ij)  : -2.0000
 D4 a1       :  0.5200
 D4 a2       :  5.0000
 D4 s6       :  1.0000
 D4 s8       :  2.7000
 D4 s9       :  5.0000
 alphaj      :  2.0000

 Solvent             : h2o
 Using internal parameter file: .param_gbsa2_h2o
 Gsolv ref. state (COSMO-RS): gsolv [1 M gas/solution]
 temperature (mdtemp)       :    298.150000000000     
 dielectric constant        :    80.2000000000000     
 rho                        :    1.00000000000000     
 mass                       :    18.0000000000000     
 surface tension            :    15.5689454083859     
 probe radius               :   0.975313790000000     
 vdW radii scaling          :    1.00000000000000     
 Gshift (Eh)                :   1.857443126794793E-003
 c1                         :    1.55243817000000     
 soset                      :   0.130326360000000     
 HB correction              :  T

            Z     q(EN)     CN     RAES       Cart. coordinates
     1  N   5.0   -0.21    3.20    1.96   274.17576   134.12370   220.76503
     2  C   4.0    0.03    4.14    3.89   276.63212   133.28113   219.88198
     3  C   4.0    0.07    3.20    3.04   276.41222   132.11058   217.24649
     4  O   6.0   -0.33    1.17    1.80   277.87291   132.70061   215.53954
     5  C   4.0   -0.08    4.11    3.82   277.71245   131.40425   221.76928
     6  H   1.0    0.08    1.03    1.43   273.55588   133.45433   222.45412
     7  H   1.0    0.04    1.05    1.44   277.88589   134.92538   219.69073
     8  H   1.0    0.04    1.00    1.43   279.55409   130.74743   221.15051
     9  H   1.0    0.04    1.00    1.43   277.92557   132.32911   223.58862
    10  H   1.0    0.04    1.00    1.43   276.43191   129.80864   221.96009
    11  N   5.0   -0.20    3.24    1.97   275.79640   136.96708   212.47750
    12  C   4.0    0.04    4.34    4.28   278.23114   138.08677   211.90787
    13  C   4.0    0.15    3.44    3.09   279.65157   136.42371   210.03205
    14  O   6.0   -0.31    1.31    1.80   280.73327   137.30382   208.16559
    15  C   4.0   -0.04    4.28    4.17   279.80465   138.39710   214.31209
    16  C   4.0   -0.03    4.17    3.94   278.91558   140.66402   215.85751
    17  C   4.0    0.25    3.12    3.03   279.42374   143.12771   214.31149
    18  O   6.0   -0.27    1.16    1.80   281.63968   143.92810   214.32534
    19  O   6.0   -0.28    1.16    1.80   277.59281   144.05376   213.14602
    20  H   1.0    0.09    1.02    1.43   275.33665   136.65533   214.31605
    21  H   1.0    0.07    1.06    1.44   277.95718   139.94977   211.03100
    22  H   1.0    0.06    1.03    1.43   279.68199   136.65055   215.40664
    23  H   1.0    0.06    1.03    1.43   281.77507   138.72143   213.78190
    24  H   1.0    0.05    1.02    1.43   276.90336   140.52570   216.27919
    25  H   1.0    0.05    1.02    1.43   279.99315   140.77324   217.61195
    26  N   5.0   -0.15    3.50    2.08   279.70419   133.97661   210.58692
    27  C   4.0    0.03    4.42    4.41   280.97168   132.17684   208.95000
    28  C   4.0    0.09    3.28    3.05   279.83491   132.34534   206.29107
    29  O   6.0   -0.32    1.17    1.80   281.17414   132.55077   204.41334
    30  C   4.0   -0.03    4.32    4.24   280.80141   129.50656   210.08085
    31  C   4.0   -0.05    4.19    3.98   282.53259   129.37660   212.40355
    32  C   4.0   -0.08    4.13    3.86   281.49055   127.52243   208.10237
    33  C   4.0   -0.08    4.01    3.64   282.13318   127.02905   214.01759
    34  H   1.0    0.11    1.10    1.44   278.86144   133.33722   212.19151
    35  H   1.0    0.05    1.05    1.44   282.96566   132.73001   208.76103
    36  H   1.0    0.04    1.06    1.44   278.84116   129.21224   210.66910
    37  H   1.0    0.04    1.03    1.43   284.49716   129.44802   211.77798
    38  H   1.0    0.05    1.03    1.43   282.18660   131.03402   213.58182
    39  H   1.0    0.03    1.00    1.43   281.40348   125.64307   208.91841
    40  H   1.0    0.04    1.01    1.43   280.18278   127.60054   206.52133
    41  H   1.0    0.04    1.00    1.43   283.38583   127.84865   207.38475
    42  H   1.0    0.04    1.00    1.43   283.49047   127.01534   215.55838
    43  H   1.0    0.04    1.00    1.43   280.24103   127.03198   214.81791
    44  H   1.0    0.04    1.00    1.43   282.39186   125.30878   212.93033
    45  N   5.0   -0.19    3.25    1.97   282.03301   137.66927   202.63417
    46  C   4.0    0.04    4.31    4.22   284.53982   137.22367   201.62125
    47  C   4.0    0.15    3.41    3.08   284.30816   135.64509   199.18750
    48  O   6.0   -0.29    1.23    1.80   285.53769   136.19190   197.29999
    49  C   4.0   -0.03    4.29    4.18   286.25583   135.90907   203.55228
    50  C   4.0    0.15    3.22    3.04   287.42291   137.81163   205.36993
    51  O   6.0   -0.31    1.24    1.80   289.50044   138.74874   204.97477
    52  N   5.0   -0.18    3.19    1.95   286.02648   138.41383   207.38425
    53  H   1.0    0.12    1.05    1.44   281.65917   137.25077   204.46177
    54  H   1.0    0.06    1.05    1.44   285.38414   139.03573   201.05546
    55  H   1.0    0.06    1.03    1.43   285.16699   134.48679   204.56687
    56  H   1.0    0.05    1.03    1.43   287.81290   134.99585   202.55666
    57  H   1.0    0.10    1.03    1.43   286.70599   139.67825   208.63636
    58  H   1.0    0.11    1.06    1.44   284.23668   137.79859   207.65357
    59  N   5.0   -0.15    3.47    2.06   282.74409   133.68490   199.28891
    60  C   4.0    0.04    4.33    4.26   282.39471   132.03926   197.12712
    61  C   4.0    0.09    3.21    3.04   281.17644   133.39388   194.87184
    62  O   6.0   -0.27    1.11    1.80   281.72011   132.79316   192.69644
    63  C   4.0   -0.05    4.35    4.29   280.82332   129.73380   197.88107
    64  C   4.0   -0.02    4.18    3.96   282.13458   128.04265   199.84153
    65  C   4.0   -0.08    4.10    3.81   280.30082   126.01197   200.76586
    66  C   4.0   -0.08    4.11    3.82   284.48798   126.79264   198.74232
    67  H   1.0    0.11    1.10    1.44   281.80254   133.26669   200.91057
    68  H   1.0    0.06    1.06    1.44   284.26057   131.43949   196.45268
    69  H   1.0    0.05    1.03    1.43   279.03276   130.42266   198.63519
    70  H   1.0    0.05    1.03    1.43   280.43226   128.63794   196.17911
    71  H   1.0    0.05    1.06    1.44   282.67755   129.20254   201.46304
    72  H   1.0    0.03    1.00    1.43   281.16503   124.89133   202.25421
    73  H   1.0    0.04    1.00    1.43   278.58817   126.86513   201.51264
    74  H   1.0    0.04    1.00    1.43   279.77375   124.75074   199.23087
    75  H   1.0    0.03    1.00    1.43   285.29866   125.49884   200.11423
    76  H   1.0    0.04    1.00    1.43   283.99649   125.74015   197.04903
    77  H   1.0    0.04    1.00    1.43   285.92294   128.17782   198.25930
    78  N   5.0   -0.21    3.25    1.97   302.33274   133.92989   195.76505
    79  C   4.0    0.03    4.37    4.32   303.65076   132.79745   197.87102
    80  C   4.0    0.14    3.46    3.10   302.89091   134.11934   200.31705
    81  O   6.0   -0.31    1.31    1.80   302.27302   132.93101   202.20597
    82  C   4.0    0.05    4.23    4.06   306.53483   132.89384   197.44087
    83  O   6.0   -0.25    2.12    1.84   307.17526   131.78338   195.09843
    84  C   4.0   -0.06    4.09    3.78   307.90844   131.44097   199.51273
    85  H   1.0    0.08    1.03    1.43   303.35164   134.70249   194.34754
    86  H   1.0    0.05    1.05    1.44   303.06656   130.81207   198.04999
    87  H   1.0    0.04    1.03    1.43   307.11128   134.89222   197.45347
    88  H   1.0    0.11    1.02    1.43   306.54960   132.86700   193.75476
    89  H   1.0    0.05    1.00    1.43   309.92773   131.77324   199.37249
    90  H   1.0    0.06    1.00    1.43   307.23047   132.01058   201.36296
    91  H   1.0    0.06    1.00    1.43   307.55696   129.43226   199.27454
    92  N   5.0   -0.15    3.49    2.07   302.90095   136.64084   200.24099
    93  C   4.0    0.03    4.44    4.45   302.06475   138.06648   202.42527
    94  C   4.0    0.16    3.52    3.12   299.47671   137.08542   203.29824
    95  O   6.0   -0.31    1.28    1.80   299.04949   136.62881   205.53134
    96  C   4.0   -0.05    4.27    4.14   301.91360   140.89298   201.83504
    97  C   4.0   -0.03    4.23    4.07   301.34565   142.39471   204.25166
    98  C   4.0    0.15    3.22    3.04   300.40965   145.04433   203.67858
    99  O   6.0   -0.30    1.25    1.80   298.27322   145.73640   204.22527
   100  N   5.0   -0.19    3.19    1.95   302.10058   146.58590   202.60792
   101  H   1.0    0.07    1.06    1.44   303.51652   137.58849   198.69181
   102  H   1.0    0.05    1.05    1.44   303.38231   137.74127   203.99801
   103  H   1.0    0.04    1.02    1.43   303.71167   141.47345   201.00854
   104  H   1.0    0.05    1.03    1.43   300.44518   141.20925   200.42009
   105  H   1.0    0.06    1.04    1.43   299.88618   141.42741   205.34165
   106  H   1.0    0.04    1.03    1.43   303.04024   142.51167   205.41913
   107  H   1.0    0.08    1.03    1.43   303.77088   145.92301   201.99180
   108  H   1.0    0.10    1.03    1.43   301.52581   148.28967   201.97533
   109  N   5.0   -0.14    3.51    2.09   297.74415   136.90619   201.48207
   110  C   4.0    0.03    4.42    4.42   295.17556   136.12393   202.03613
   111  C   4.0    0.16    3.49    3.11   295.20412   133.63341   203.51826
   112  O   6.0   -0.31    1.27    1.80   293.91531   133.32719   205.42129
   113  C   4.0   -0.05    4.27    4.14   293.66637   135.76276   199.59276
   114  C   4.0   -0.05    4.16    3.93   293.25706   138.20772   198.10488
   115  C   4.0   -0.00    4.19    3.98   291.32423   139.99045   199.34757
   116  N   5.0   -0.14    3.40    2.02   292.18111   142.58904   199.32770
   117  C   4.0    0.10    3.36    3.07   293.27908   143.81885   201.23937
   118  N   5.0   -0.17    3.24    1.97   293.19190   142.98458   203.61064
   119  N   5.0   -0.17    3.26    1.97   294.33928   146.03461   200.72092
   120  H   1.0    0.07    1.07    1.44   298.18440   137.34567   199.66827
   121  H   1.0    0.06    1.05    1.44   294.27902   137.52649   203.27381
   122  H   1.0    0.04    1.03    1.43   294.69137   134.41973   198.41532
   123  H   1.0    0.05    1.03    1.43   291.83876   134.94580   200.07759
   124  H   1.0    0.04    1.03    1.43   295.05240   139.19815   197.89788
   125  H   1.0    0.05    1.03    1.43   292.60526   137.70964   196.21588
   126  H   1.0    0.06    1.02    1.43   289.53359   139.90830   198.32910
   127  H   1.0    0.06    1.05    1.44   290.95900   139.40626   201.28420
   128  H   1.0    0.08    1.08    1.44   292.63227   143.31839   197.60481
   129  H   1.0    0.11    1.05    1.44   292.09030   141.52812   204.16548
   130  H   1.0    0.11    1.04    1.43   294.11315   143.98629   204.94127
   131  H   1.0    0.08    1.02    1.43   294.77422   146.33876   198.82853
   132  H   1.0    0.12    1.06    1.44   295.48456   146.78871   202.05289
   133  N   5.0   -0.14    3.52    2.09   296.62342   131.82940   202.47887
   134  C   4.0    0.04    4.42    4.42   296.75721   129.30649   203.53269
   135  C   4.0    0.17    3.49    3.11   297.66447   129.44284   206.27475
   136  O   6.0   -0.29    1.28    1.80   296.56177   128.44525   208.04800
   137  C   4.0   -0.04    4.36    4.32   298.55070   127.61844   202.02733
   138  C   4.0   -0.02    4.17    3.95   297.72255   127.12545   199.29345
   139  C   4.0   -0.07    4.11    3.81   299.78423   125.62212   197.94281
   140  C   4.0   -0.07    4.10    3.81   295.22135   125.69294   199.18429
   141  H   1.0    0.08    1.07    1.44   297.64104   132.24178   200.90774
   142  H   1.0    0.05    1.05    1.44   294.86287   128.46543   203.58933
   143  H   1.0    0.06    1.03    1.43   300.42527   128.48057   202.03270
   144  H   1.0    0.06    1.03    1.43   298.68503   125.81533   203.02630
   145  H   1.0    0.04    1.05    1.44   297.49630   128.93771   198.32276
   146  H   1.0    0.04    1.00    1.43   299.27848   125.27761   195.98263
   147  H   1.0    0.04    1.00    1.43   301.58448   126.61158   197.99894
   148  H   1.0    0.05    1.00    1.43   300.05277   123.78963   198.83890
   149  H   1.0    0.04    1.00    1.43   294.90656   124.96193   197.29183
   150  H   1.0    0.05    1.00    1.43   295.26239   124.09611   200.48240
   151  H   1.0    0.04    1.00    1.43   293.64371   126.90056   199.70123
   152  N   5.0   -0.12    3.56    2.13   299.74384   130.84549   206.57194
   153  C   4.0    0.05    4.45    4.47   300.92665   131.08840   209.02100
   154  C   4.0    0.16    3.49    3.11   298.96634   132.00042   210.94105
   155  O   6.0   -0.31    1.27    1.80   298.80714   131.08441   213.06965
   156  C   4.0   -0.03    4.32    4.24   303.10247   132.97725   208.87666
   157  C   4.0    0.16    3.22    3.04   305.31554   131.94704   207.33443
   158  O   6.0   -0.28    1.22    1.80   305.27015   129.93789   206.21778
   159  N   5.0   -0.19    3.18    1.95   307.32799   133.50051   207.28672
   160  H   1.0    0.12    1.11    1.44   300.73902   131.44836   205.04870
   161  H   1.0    0.07    1.05    1.44   301.61179   129.23173   209.66002
   162  H   1.0    0.06    1.03    1.43   302.40221   134.70865   207.99678
   163  H   1.0    0.05    1.03    1.43   303.74916   133.40668   210.78636
   164  H   1.0    0.10    1.03    1.43   308.91889   132.89192   206.43110
   165  H   1.0    0.08    1.03    1.43   307.40675   135.04780   208.39046
   166  N   5.0   -0.14    3.52    2.09   297.56857   133.94624   210.16691
   167  C   4.0    0.04    4.46    4.47   295.68821   135.07279   211.80325
   168  C   4.0    0.16    3.52    3.12   293.65692   133.15466   212.50269
   169  O   6.0   -0.31    1.32    1.80   292.98105   132.85774   214.70683
   170  C   4.0   -0.03    4.26    4.12   294.54426   137.41667   210.56709
   171  C   4.0   -0.02    4.19    3.99   292.45900   138.57621   212.18301
   172  C   4.0    0.25    3.12    3.03   293.21236   139.28284   214.91989
   173  O   6.0   -0.32    1.27    1.80   295.44910   139.03021   215.61893
   174  O   6.0   -0.31    1.26    1.80   291.46058   140.09478   216.28043
   175  H   1.0    0.11    1.10    1.44   297.78023   134.65615   208.39767
   176  H   1.0    0.07    1.07    1.44   296.59461   135.63052   213.58382
   177  H   1.0    0.06    1.03    1.43   296.05651   138.79217   210.30636
   178  H   1.0    0.07    1.03    1.43   293.77177   136.89135   208.72605
   179  H   1.0    0.06    1.03    1.43   291.74686   140.29948   211.29943
   180  H   1.0    0.05    1.03    1.43   290.86261   137.27501   212.35194
   181  N   5.0   -0.14    3.52    2.09   292.65431   131.85444   210.59284
   182  C   4.0    0.04    4.53    4.57   290.83342   129.87121   211.09129
   183  C   4.0    0.16    3.56    3.14   291.77085   128.25166   213.29035
   184  O   6.0   -0.32    1.28    1.80   290.38323   127.67734   215.06269
   185  C   4.0   -0.02    4.33    4.26   290.35258   128.25434   208.72469
   186  C   4.0   -0.05    4.18    3.97   288.85808   129.81439   206.79049
   187  C   4.0   -0.07    4.14    3.88   288.99856   125.80916   209.44938
   188  C   4.0   -0.08    4.01    3.64   288.46183   128.45513   204.28225
   189  H   1.0    0.11    1.09    1.44   293.28163   132.10431   208.79872
   190  H   1.0    0.05    1.05    1.44   289.04968   130.73314   211.73172
   191  H   1.0    0.06    1.06    1.44   292.19744   127.75975   207.92732
   192  H   1.0    0.04    1.03    1.43   287.02817   130.31449   207.60423
   193  H   1.0    0.06    1.03    1.43   289.88714   131.56665   206.44066
   194  H   1.0    0.04    1.00    1.43   288.56988   124.70030   207.77816
   195  H   1.0    0.06    1.01    1.43   290.20249   124.66163   210.66230
   196  H   1.0    0.04    1.00    1.43   287.25652   126.20680   210.46402
   197  H   1.0    0.04    1.00    1.43   287.63992   129.74518   202.91302
   198  H   1.0    0.04    1.00    1.43   290.25840   127.76994   203.55769
   199  H   1.0    0.03    1.00    1.43   287.20067   126.85028   204.49258
   200  N   5.0   -0.13    3.56    2.12   294.16632   127.49754   213.12223
   201  C   4.0    0.04    4.48    4.51   295.23918   125.77068   214.95252
   202  C   4.0    0.16    3.47    3.10   295.43705   126.97457   217.55429
   203  O   6.0   -0.30    1.29    1.80   294.88741   125.80213   219.48703
   204  C   4.0   -0.02    4.28    4.16   297.78686   124.84953   213.99035
   205  C   4.0    0.26    3.16    3.03   297.27799   123.26462   211.57381
   206  O   6.0   -0.33    1.32    1.80   295.38082   121.86504   211.65667
   207  O   6.0   -0.29    1.24    1.80   298.74540   123.49505   209.75323
   208  H   1.0    0.12    1.10    1.44   295.17906   127.87592   211.54371
   209  H   1.0    0.06    1.06    1.44   293.97805   124.12583   215.14686
   210  H   1.0    0.07    1.03    1.43   299.01716   126.43654   213.53548
   211  H   1.0    0.05    1.02    1.43   298.68898   123.64220   215.39654
   212  N   5.0   -0.13    3.52    2.09   296.27264   129.34051   217.60904
   213  C   4.0    0.04    4.44    4.45   296.39924   130.69784   219.98425
   214  C   4.0    0.17    3.50    3.11   293.82078   130.53271   221.30307
   215  O   6.0   -0.30    1.25    1.80   293.60505   129.86898   223.50995
   216  C   4.0   -0.04    4.28    4.15   297.20561   133.43010   219.52964
   217  C   4.0   -0.04    4.18    3.97   297.87680   134.73985   222.01093
   218  C   4.0   -0.00    4.21    4.01   298.41495   137.56270   221.64299
   219  N   5.0   -0.13    3.42    2.03   296.21647   138.95000   220.80855
   220  C   4.0    0.10    3.35    3.06   294.39537   139.80061   222.30202
   221  N   5.0   -0.18    3.26    1.97   294.55242   139.64768   224.82286
   222  N   5.0   -0.17    3.26    1.97   292.49347   141.07174   221.25035
   223  H   1.0    0.12    1.10    1.44   296.78840   130.22415   215.98833
   224  H   1.0    0.06    1.05    1.44   297.76258   129.73788   221.22454
   225  H   1.0    0.05    1.03    1.43   298.83728   133.41242   218.26707
   226  H   1.0    0.07    1.03    1.43   295.68301   134.42685   218.55941
   227  H   1.0    0.07    1.03    1.43   296.31763   134.49561   223.33479
   228  H   1.0    0.04    1.03    1.43   299.55016   133.84134   222.80905
   229  H   1.0    0.05    1.03    1.43   299.10024   138.38066   223.40912
   230  H   1.0    0.05    1.03    1.43   299.85500   137.79810   220.18854
   231  H   1.0    0.12    1.12    1.45   295.91716   139.06144   218.88473
   232  H   1.0    0.11    1.06    1.44   295.59729   138.29044   225.68435
   233  H   1.0    0.09    1.04    1.43   293.06877   140.27818   225.83236
   234  H   1.0    0.13    1.09    1.44   292.16868   140.89620   219.33407
   235  H   1.0    0.09    1.03    1.43   291.02352   141.61370   222.32389
   236  N   5.0   -0.14    3.52    2.09   291.86772   131.24139   219.87612
   237  C   4.0    0.04    4.51    4.54   289.29531   131.16290   220.81359
   238  C   4.0    0.16    3.52    3.12   288.68282   128.51544   221.79353
   239  O   6.0   -0.32    1.33    1.80   287.77317   128.18616   223.91174
   240  C   4.0   -0.02    4.27    4.14   287.42963   131.98194   218.74323
   241  C   4.0   -0.07    4.13    3.86   284.70585   131.50602   219.56801
   242  C   4.0   -0.06    4.11    3.83   287.79797   134.77524   218.12398
   243  H   1.0    0.11    1.10    1.44   292.13895   131.66515   218.03073
   244  H   1.0    0.06    1.05    1.44   289.13809   132.44904   222.43855
   245  H   1.0    0.06    1.06    1.44   287.84111   130.85115   217.05927
   246  H   1.0    0.04    1.00    1.43   283.41839   132.17089   218.11218
   247  H   1.0    0.04    1.00    1.43   284.37059   129.49965   219.85820
   248  H   1.0    0.05    1.00    1.43   284.29524   132.50574   221.31513
   249  H   1.0    0.05    1.00    1.43   286.47534   135.35837   216.66344
   250  H   1.0    0.05    1.00    1.43   287.46343   135.93837   219.78270
   251  H   1.0    0.07    1.00    1.43   289.69256   135.15479   217.42794
   252  N   5.0   -0.14    3.50    2.08   289.17457   126.63331   220.21088
   253  C   4.0    0.04    4.39    4.36   288.62756   124.02863   220.82927
   254  C   4.0    0.18    3.49    3.11   289.41112   123.37218   223.53672
   255  O   6.0   -0.29    1.22    1.80   288.00399   122.28550   225.00434
   256  C   4.0    0.04    4.19    3.98   290.06683   122.27452   219.01018
   257  O   6.0   -0.24    2.06    1.83   289.74197   119.71413   219.60809
   258  H   1.0    0.11    1.11    1.45   289.83239   126.99842   218.44480
   259  H   1.0    0.05    1.05    1.44   286.59050   123.66164   220.65534
   260  H   1.0    0.06    1.01    1.43   289.43571   122.67338   217.07667
   261  H   1.0    0.07    1.03    1.43   292.09025   122.66686   219.14450
   262  H   1.0    0.15    1.05    1.44   288.06369   119.22792   219.05174
   263  N   5.0   -0.13    3.42    2.03   291.80730   123.97790   224.08939
   264  C   4.0    0.02    4.26    4.11   292.96980   123.09701   226.39155
   265  C   4.0    0.16    3.31    3.06   292.41779   124.70608   228.72701
   266  O   6.0   -0.31    1.23    1.80   292.48986   123.78942   230.84259
   267  H   1.0    0.11    1.08    1.44   292.88589   124.83371   222.76608
   268  H   1.0    0.06    1.03    1.43   292.29223   121.18306   226.79000
   269  H   1.0    0.05    1.03    1.43   295.01391   123.03793   226.12348
   270  N   5.0   -0.14    3.50    2.08   291.97114   127.15601   228.29795
   271  C   4.0    0.04    4.42    4.42   291.75406   128.92598   230.36548
   272  C   4.0    0.16    3.43    3.09   289.03574   129.44525   231.20969
   273  O   6.0   -0.30    1.26    1.80   288.58108   130.07826   233.38603
   274  C   4.0   -0.03    4.29    4.18   293.03007   131.43298   229.68559
   275  C   4.0   -0.03    4.24    4.08   295.86224   131.07894   229.26439
   276  C   4.0    0.15    3.22    3.04   297.15972   133.51533   228.50387
   277  O   6.0   -0.31    1.26    1.80   296.02376   135.40015   227.80025
   278  N   5.0   -0.19    3.19    1.95   299.68992   133.44317   228.63962
   279  H   1.0    0.11    1.09    1.44   292.00101   127.84539   226.51367
   280  H   1.0    0.06    1.07    1.44   292.71049   128.06785   231.99422
   281  H   1.0    0.07    1.03    1.43   292.18549   132.17493   227.95764
   282  H   1.0    0.06    1.03    1.43   292.70612   132.78730   231.20371
   283  H   1.0    0.04    1.03    1.43   296.75298   130.31491   230.95730
   284  H   1.0    0.06    1.03    1.43   296.13971   129.74977   227.70797
   285  H   1.0    0.08    1.03    1.43   300.60924   131.85761   229.13874
   286  H   1.0    0.09    1.03    1.43   300.70556   134.95323   228.08359
   287  N   5.0   -0.13    3.48    2.06   287.24031   129.28852   229.43910
   288  C   4.0    0.04    4.49    4.52   284.64648   129.86154   230.12527
   289  C   4.0    0.15    3.48    3.11   283.83732   128.09898   232.26880
   290  O   6.0   -0.30    1.25    1.80   284.17350   125.81742   232.14404
   291  C   4.0    0.06    4.23    4.07   282.86377   129.52187   227.83968
   292  O   6.0   -0.26    2.13    1.84   283.69480   130.97151   225.77647
   293  C   4.0   -0.07    4.09    3.79   280.20439   130.39257   228.53444
   294  H   1.0    0.11    1.09    1.44   287.60216   128.57583   227.70206
   295  H   1.0    0.05    1.05    1.44   284.56967   131.83351   230.76009
   296  H   1.0    0.05    1.03    1.43   282.84266   127.50117   227.34654
   297  H   1.0    0.14    1.07    1.44   285.15668   130.14609   225.02195
   298  H   1.0    0.04    1.00    1.43   278.92275   129.97047   226.99088
   299  H   1.0    0.05    1.00    1.43   279.53888   129.45009   230.22908
   300  H   1.0    0.05    1.00    1.43   280.21240   132.42426   228.83343
   301  N   5.0   -0.14    3.46    2.05   282.71783   129.21257   234.24902
   302  C   4.0    0.04    4.32    4.24   281.96344   127.77370   236.44274
   303  C   4.0    0.09    3.25    3.04   279.50460   128.77804   237.56630
   304  O   6.0   -0.27    1.16    1.80   278.89055   130.99798   237.40456
   305  C   4.0   -0.03    4.26    4.12   284.05860   127.78161   238.47109
   306  C   4.0   -0.02    4.23    4.06   284.79117   130.41591   239.39938
   307  C   4.0    0.17    3.27    3.05   282.75458   131.69435   240.95475
   308  O   6.0   -0.28    1.22    1.80   281.40880   130.53681   242.45333
   309  N   5.0   -0.17    3.19    1.95   282.63496   134.20364   240.72700
   310  H   1.0    0.09    1.06    1.44   282.35113   131.08330   234.27955
   311  H   1.0    0.05    1.06    1.44   281.69070   125.81928   235.82933
   312  H   1.0    0.05    1.03    1.43   283.42423   126.61175   240.04382
   313  H   1.0    0.05    1.03    1.43   285.72177   126.92977   237.60588
   314  H   1.0    0.05    1.03    1.43   286.43822   130.23571   240.63212
   315  H   1.0    0.05    1.03    1.43   285.33913   131.58506   237.79691
   316  H   1.0    0.09    1.03    1.43   283.65100   135.12800   239.41520
   317  H   1.0    0.11    1.03    1.43   281.29780   135.16371   241.68152
   318  N   5.0   -0.20    3.22    1.96   283.80066   119.21796   236.88084
   319  C   4.0    0.03    4.22    4.04   284.66617   119.89372   234.35811
   320  C   4.0    0.09    3.20    3.04   282.85192   118.73924   232.39929
   321  O   6.0   -0.31    1.17    1.80   283.25016   116.73252   231.31363
   322  C   4.0   -0.04    4.27    4.15   287.37718   118.98291   233.97085
   323  C   4.0   -0.05    4.20    3.99   289.21333   119.91037   236.00088
   324  C   4.0   -0.04    4.19    3.99   289.28006   122.79340   236.13882
   325  C   4.0   -0.03    4.12    3.83   291.38674   123.79249   237.82059
   326  N   5.0   -0.12    4.02    2.91   291.14845   122.77250   240.43937
   327  H   1.0    0.09    1.03    1.43   284.56815   117.63484   237.62024
   328  H   1.0    0.06    1.06    1.44   284.55656   121.94970   234.15746
   329  H   1.0    0.05    1.03    1.43   287.37317   116.92125   233.92038
   330  H   1.0    0.06    1.03    1.43   287.99378   119.66661   232.12801
   331  H   1.0    0.04    1.03    1.43   288.65073   119.12942   237.82180
   332  H   1.0    0.05    1.03    1.43   291.08114   119.20147   235.50176
   333  H   1.0    0.07    1.03    1.43   289.56626   123.54837   234.24400
   334  H   1.0    0.04    1.03    1.43   287.46836   123.47743   236.83470
   335  H   1.0    0.05    1.02    1.43   293.21490   123.25231   237.04181
   336  H   1.0    0.05    1.02    1.43   291.26872   125.84842   237.88191
   337  H   1.0    0.06    1.02    1.43   292.21844   123.80611   241.68466
   338  H   1.0    0.05    1.01    1.43   289.24596   122.78093   241.02274
   339  H   1.0    0.05    1.02    1.43   291.74126   120.92504   240.48081
   340  N   5.0   -0.20    3.26    1.97   281.06227   119.31994   226.81084
   341  C   4.0    0.03    4.32    4.24   281.66063   118.63918   224.23334
   342  C   4.0    0.15    3.41    3.08   283.95787   116.91257   223.99817
   343  O   6.0   -0.32    1.29    1.80   284.87163   116.43367   221.91792
   344  C   4.0   -0.04    4.37    4.34   282.11134   120.98715   222.60520
   345  C   4.0   -0.03    4.18    3.95   279.77886   122.64378   222.19061
   346  C   4.0   -0.08    4.11    3.82   280.56039   124.98422   220.69558
   347  C   4.0   -0.08    4.11    3.81   277.68384   121.22734   220.80790
   348  H   1.0    0.10    1.03    1.43   282.23866   120.54095   227.68754
   349  H   1.0    0.04    1.06    1.44   280.06330   117.53953   223.50201
   350  H   1.0    0.06    1.03    1.43   283.60371   122.08978   223.51620
   351  H   1.0    0.06    1.04    1.43   282.81138   120.33613   220.77747
   352  H   1.0    0.04    1.05    1.44   279.05226   123.24835   224.03126
   353  H   1.0    0.04    1.00    1.43   278.92893   126.16369   220.29948
   354  H   1.0    0.04    1.00    1.43   281.92251   126.09608   221.76180
   355  H   1.0    0.04    1.00    1.43   281.40542   124.42223   218.90974
   356  H   1.0    0.04    1.00    1.43   276.12829   122.49996   220.39064
   357  H   1.0    0.04    1.00    1.43   278.38745   120.44936   219.04337
   358  H   1.0    0.04    1.00    1.43   276.95334   119.67933   221.94400
   359  N   5.0   -0.14    3.46    2.05   284.89753   115.96314   226.13913
   360  C   4.0    0.04    4.26    4.11   287.17838   114.46022   226.16486
   361  C   4.0    0.08    3.21    3.04   286.70259   111.62074   226.00632
   362  O   6.0   -0.31    1.16    1.80   288.25162   110.21671   225.01555
   363  C   4.0   -0.06    4.11    3.83   288.69491   114.98955   228.55981
   364  H   1.0    0.11    1.11    1.44   284.07636   116.35008   227.83183
   365  H   1.0    0.07    1.06    1.44   288.27451   114.98205   224.48481
   366  H   1.0    0.05    1.00    1.43   290.38363   113.82527   228.58637
   367  H   1.0    0.05    1.00    1.43   289.22344   116.97174   228.60757
   368  H   1.0    0.06    1.00    1.43   287.53758   114.55713   230.19884
   369  N   5.0   -0.20    3.20    1.96   281.07797   110.00074   220.08078
   370  C   4.0    0.03    4.33    4.26   283.52481   111.07313   219.44478
   371  C   4.0    0.15    3.43    3.09   283.36036   112.26412   216.79886
   372  O   6.0   -0.29    1.23    1.80   283.16915   110.94445   214.89429
   373  C   4.0   -0.03    4.28    4.15   285.61871   109.08928   219.45767
   374  C   4.0   -0.02    4.26    4.11   288.16122   110.39163   218.98479
   375  C   4.0    0.16    3.22    3.04   290.38378   108.57054   218.96212
   376  O   6.0   -0.28    1.23    1.80   291.73512   108.30375   217.09300
   377  N   5.0   -0.18    3.20    1.96   290.78646   107.35343   221.12483
   378  H   1.0    0.09    1.02    1.43   280.78314   108.13074   219.79313
   379  H   1.0    0.06    1.07    1.44   283.92833   112.56645   220.81774
   380  H   1.0    0.05    1.03    1.43   285.62365   108.12068   221.27302
   381  H   1.0    0.06    1.03    1.43   285.22552   107.70129   217.98145
   382  H   1.0    0.06    1.03    1.43   288.08829   111.36020   217.16749
   383  H   1.0    0.06    1.03    1.43   288.47071   111.77557   220.48179
   384  H   1.0    0.11    1.06    1.44   289.85132   107.88059   222.70539
   385  H   1.0    0.10    1.03    1.43   292.26510   106.16151   221.25817
   386  N   5.0   -0.14    3.47    2.06   283.48021   114.77264   216.75583
   387  C   4.0    0.03    4.51    4.55   283.37392   116.24555   214.44358
   388  C   4.0    0.14    3.45    3.09   285.83485   117.74483   214.26660
   389  O   6.0   -0.32    1.28    1.80   286.28977   119.49332   215.70746
   390  C   4.0   -0.02    4.33    4.26   281.11211   118.07125   214.41075
   391  C   4.0   -0.05    4.18    3.96   278.61061   116.65721   214.78031
   392  C   4.0   -0.08    4.13    3.86   281.14728   119.59505   211.95788
   393  C   4.0   -0.07    4.02    3.66   278.10975   114.59231   212.83097
   394  H   1.0    0.10    1.09    1.44   283.62652   115.72778   218.41787
   395  H   1.0    0.05    1.07    1.44   283.22548   114.93728   212.85860
   396  H   1.0    0.04    1.06    1.44   281.35238   119.37638   215.99966
   397  H   1.0    0.04    1.03    1.43   278.58791   115.81945   216.66812
   398  H   1.0    0.03    1.03    1.43   277.07984   118.03541   214.69083
   399  H   1.0    0.03    1.00    1.43   279.48827   120.80136   211.86667
   400  H   1.0    0.04    1.00    1.43   282.82681   120.77485   211.87646
   401  H   1.0    0.04    1.00    1.43   281.15891   118.34875   210.32661
   402  H   1.0    0.04    1.00    1.43   276.22076   113.83576   213.09049
   403  H   1.0    0.04    1.00    1.43   278.24228   115.31718   210.91590
   404  H   1.0    0.06    1.00    1.43   279.42955   113.03118   213.02808
   405  N   5.0   -0.13    3.49    2.07   287.44842   116.99581   212.47275
   406  C   4.0    0.04    4.44    4.45   289.77128   118.34828   211.97218
   407  C   4.0    0.16    3.50    3.11   290.53202   117.83099   209.24009
   408  O   6.0   -0.31    1.34    1.80   289.30923   116.39019   207.89131
   409  C   4.0   -0.02    4.31    4.22   291.85823   117.63163   213.86375
   410  C   4.0    0.16    3.26    3.05   292.44687   114.84432   213.67816
   411  O   6.0   -0.26    1.23    1.80   292.90066   113.81700   211.63784
   412  N   5.0   -0.17    3.20    1.95   292.43598   113.58004   215.85067
   413  H   1.0    0.10    1.07    1.44   287.05302   115.54346   211.27699
   414  H   1.0    0.05    1.06    1.44   289.41216   120.38169   212.16972
   415  H   1.0    0.07    1.04    1.43   293.54673   118.72957   213.41737
   416  H   1.0    0.06    1.03    1.43   291.24188   118.13280   215.76427
   417  H   1.0    0.13    1.05    1.44   292.64317   111.66560   215.89430
   418  H   1.0    0.09    1.03    1.43   292.09376   114.49824   217.48177
   419  N   5.0   -0.14    3.45    2.05   292.53875   119.10402   208.40990
   420  C   4.0    0.04    4.31    4.22   293.25878   118.89891   205.79216
   421  C   4.0    0.10    3.29    3.05   293.31048   116.15689   204.89260
   422  O   6.0   -0.28    1.12    1.80   292.61981   115.59757   202.75083
   423  C   4.0    0.04    4.15    3.91   295.90327   120.02651   205.32560
   424  O   6.0   -0.25    2.04    1.83   295.94809   122.65366   205.56139
   425  H   1.0    0.12    1.13    1.45   293.59557   120.28136   209.55546
   426  H   1.0    0.05    1.05    1.44   291.90168   119.92686   204.59958
   427  H   1.0    0.06    1.01    1.43   297.25315   119.12162   206.60955
   428  H   1.0    0.05    1.02    1.43   296.42401   119.54801   203.37603
   429  H   1.0    0.17    1.09    1.44   296.87224   123.10546   207.11787
   430  N   5.0   -0.19    3.22    1.96   286.78033   112.50234   204.70306
   431  C   4.0    0.04    4.22    4.04   285.41375   113.47795   202.54022
   432  C   4.0    0.09    3.21    3.04   286.49166   112.35174   200.10444
   433  O   6.0   -0.28    1.11    1.80   285.13346   111.55065   198.41136
   434  C   4.0   -0.04    4.35    4.29   285.59635   116.35636   202.43247
   435  C   4.0   -0.02    4.18    3.96   284.18959   117.69745   204.58392
   436  C   4.0   -0.08    4.10    3.81   284.92481   120.49050   204.60765
   437  C   4.0   -0.08    4.10    3.80   281.33170   117.42267   204.33406
   438  H   1.0    0.12    1.05    1.44   287.71679   113.72551   205.83354
   439  H   1.0    0.05    1.05    1.44   283.44180   112.84693   202.67031
   440  H   1.0    0.06    1.03    1.43   287.59926   116.86116   202.51042
   441  H   1.0    0.05    1.03    1.43   284.84124   116.98068   200.61739
   442  H   1.0    0.05    1.06    1.44   284.79392   116.84622   206.36960
   443  H   1.0    0.03    1.00    1.43   283.92150   121.48148   206.10093
   444  H   1.0    0.04    1.00    1.43   286.94569   120.69384   204.93862
   445  H   1.0    0.03    1.00    1.43   284.46130   121.35904   202.80376
   446  H   1.0    0.03    1.00    1.43   280.39667   118.38870   205.88498
   447  H   1.0    0.04    1.00    1.43   280.67877   118.24471   202.56864
   448  H   1.0    0.04    1.00    1.43   280.76930   115.44954   204.37355
   449  H   1.0    0.09    1.07    1.44   274.18241   135.81622   220.93203
   450  H   1.0    0.05    1.04    1.44   275.06081   130.83959   216.88689
   451  H   1.0    0.10    1.07    1.44   274.55750   137.97096   211.88597
   452  H   1.0    0.06    1.05    1.44   277.96028   132.28836   206.05958
   453  H   1.0    0.10    1.07    1.44   281.65272   139.32168   202.50192
   454  H   1.0    0.06    1.04    1.43   279.92656   134.78053   195.16525
   455  H   1.0    0.09    1.07    1.44   301.36333   132.75716   195.00512
   456  H   1.0    0.06    1.05    1.44   278.33195   127.60593   238.47301
   457  H   1.0    0.09    1.07    1.44   284.16831   120.47709   237.96343
   458  H   1.0    0.06    1.05    1.44   281.24883   119.63483   231.95312
   459  H   1.0    0.09    1.08    1.44   279.52825   120.05249   226.86303
   460  H   1.0    0.06    1.05    1.44   285.11179   110.88818   226.71609
   461  H   1.0    0.09    1.07    1.44   280.77024   110.23157   221.73746
   462  H   1.0    0.08    1.05    1.44   293.91222   114.79276   206.05368
   463  H   1.0    0.10    1.07    1.44   285.69932   111.70151   205.74358
   464  H   1.0    0.07    1.05    1.44   288.36241   112.25235   199.85645

  Z AO/shell   Hii/eV     exponent
  1     Wed Apr 25 08:07:45 CEST 2018   EN: 2.200 GM2: 0.406  GM3: 0.0800  RAES: 1.40
     1s    -10.707211    1.230000
  6     Wed Apr 25 08:07:45 CEST 2018   EN: 2.550 GM2: 0.538  GM3: 0.1500  RAES: 3.00
     2s    -13.970922    2.096432
     2p    -10.063292    1.800000
  7     Wed Apr 25 08:07:45 CEST 2018   EN: 3.040 GM2: 0.461  GM3:-0.0640  RAES: 1.90
     2s    -16.686243    2.339881
     2p    -12.523956    2.014332
  8     Wed Apr 25 08:07:45 CEST 2018   EN: 3.440 GM2: 0.452  GM3:-0.0517  RAES: 1.80
     2s    -20.229985    2.439742
     2p    -15.503117    2.137023
 no old-style atom pair restraining (fixing) potential

molecular fragmentation (1/2 indicates fragments):
111111111122222222222222222222222222222222222222222222222222222222222222
222222222222222222222222222222222222222222222222222222222222222222222222
222222222222222222222222222222222222222222222222222222222222222222222222
222222222222222222222222222222222222222222222222222222222222222222222222
222222222222222222222222222222222222222222222222222222222222222222222222
222222222222222222222222222222222222222222222222222222222222222222222222
22222222222222221122222222222222
# atoms in fragment 1/2:    12   452
 fragment masses (1/2) :       73.09     3078.55
CMA distance (Bohr)    :  14.913
constraining FC (au)   :  0.0500
           ------------------------------------------------- 
          |        Self-Consistent Charge Iterations        |
           ------------------------------------------------- 

 Ncao       : 1124
 Nao        : 1124
 Nshell     : 684
 Nel        : 1256
 T(el)      :   500.0
 intcut     :    35.0
 scfconv/Eh :  0.100E-06
   qconv/e  :  0.100E-04
 intneglect :  0.100E-08
 broydamp   :      0.400
 iter      E             dE          RMSdq      gap      omega  full diag
   1   -722.0548366 -0.722055E+03  0.468E+00    3.38       0.0  T
   2   -723.8759571 -0.182112E+01  0.215E+00    1.96       1.0  T
   3   -723.9943655 -0.118408E+00  0.124E+00    1.92       1.0  T
   4   -724.1096593 -0.115294E+00  0.250E-01    1.39       1.0  T
   5   -724.1156461 -0.598679E-02  0.122E-01    1.53       1.0  T
   6   -724.1166978 -0.105173E-02  0.493E-02    1.56       1.0  T
   7   -724.1169393 -0.241465E-03  0.217E-02    1.59       1.0  T
   8   -724.1169681 -0.288439E-04  0.940E-03    1.58       1.0  T
   9   -724.1169787 -0.105770E-04  0.422E-03    1.57       1.1  T
  10   -724.1169802 -0.147318E-05  0.182E-03    1.57       2.5  T
  11   -724.1169806 -0.395755E-06  0.884E-04    1.57       5.2  T
  12   -724.1169807 -0.811715E-07  0.352E-04    1.57      13.2  T
  13   -724.1169807 -0.104031E-07  0.185E-04    1.57      25.1  T
  14   -724.1169807 -0.320927E-08  0.632E-05    1.57      73.5  T
  15   -724.1169807 -0.379600E-09  0.268E-05    1.57     173.3  T
speedup 14.25
cpu  time for SCC   44.23 s
wall time for SCC    3.10 s

   *** convergence criteria satisfied after 15 iterations ***

          eigenvalues
 #    :         616        617        618        619        620        621        622        623
 occ. :        2.000      2.000      2.000      2.000      2.000      2.000      2.000      2.000
 eps  :       -10.711    -10.623    -10.565    -10.275    -10.267    -10.213    -10.188    -10.100
 #    :         624        625        626        627        628        629        630        631
 occ. :        2.000      2.000      2.000      2.000      2.000      0.000      0.000      0.000
 eps  :        -9.964     -9.900     -9.846     -9.682     -9.652     -8.082     -8.061     -8.038
 #    :         632        633        634        635        636        637        638        639
 occ. :        0.000      0.000      0.000      0.000      0.000      0.000      0.000      0.000
 eps  :        -7.833     -7.814     -7.732     -7.610     -7.481     -6.810     -6.712     -6.667


   #   Z            q   n(s)   n(p)   n(d)      C6AA      α(0)
   1   7 N     -0.393  1.313  4.080  0.000    30.181     8.159
   2   6 C      0.046  1.050  2.903  0.000    19.818     6.342
   3   6 C      0.194  1.098  2.707  0.000    23.848     7.998
   4   8 O     -0.372  1.750  4.623  0.000    21.138     6.164
   5   6 C     -0.124  1.043  3.081  0.000    22.932     6.827
   6   1 H      0.181  0.819  0.000  0.000     1.210     1.723
   7   1 H      0.036  0.964  0.000  0.000     2.503     2.474
   8   1 H      0.057  0.943  0.000  0.000     2.240     2.340
   9   1 H      0.073  0.927  0.000  0.000     2.057     2.243
  10   1 H      0.065  0.935  0.000  0.000     2.138     2.287
  11   7 N     -0.386  1.305  4.081  0.000    29.982     8.132
  12   6 C      0.045  1.052  2.904  0.000    19.835     6.343
  13   6 C      0.265  1.054  2.681  0.000    22.522     7.772
  14   8 O     -0.519  1.739  4.779  0.000    24.204     6.596
  15   6 C     -0.047  1.052  2.995  0.000    21.416     6.588
  16   6 C     -0.089  1.066  3.023  0.000    22.195     6.708
  17   6 C      0.373  1.025  2.602  0.000    20.678     7.442
  18   8 O     -0.652  1.776  4.876  0.000    27.438     7.023
  19   8 O     -0.653  1.775  4.879  0.000    27.470     7.027
  20   1 H      0.158  0.842  0.000  0.000     1.351     1.821
  21   1 H      0.021  0.979  0.000  0.000     2.714     2.577
  22   1 H      0.054  0.946  0.000  0.000     2.275     2.359
  23   1 H      0.013  0.987  0.000  0.000     2.841     2.636
  24   1 H      0.017  0.983  0.000  0.000     2.781     2.608
  25   1 H      0.020  0.980  0.000  0.000     2.736     2.587
  26   7 N     -0.172  1.251  3.921  0.000    24.725     7.385
  27   6 C      0.027  1.063  2.910  0.000    20.120     6.387
  28   6 C      0.203  1.087  2.710  0.000    23.681     7.969
  29   8 O     -0.339  1.736  4.604  0.000    20.506     6.071
  30   6 C     -0.028  1.070  2.958  0.000    21.034     6.523
  31   6 C     -0.059  1.049  3.010  0.000    21.638     6.622
  32   6 C     -0.121  1.038  3.083  0.000    22.867     6.818
  33   6 C     -0.107  1.035  3.072  0.000    22.609     6.781
  34   1 H      0.244  0.756  0.000  0.000     0.906     1.491
  35   1 H      0.065  0.935  0.000  0.000     2.142     2.289
  36   1 H      0.070  0.930  0.000  0.000     2.087     2.259
  37   1 H      0.027  0.973  0.000  0.000     2.625     2.534
  38   1 H      0.041  0.959  0.000  0.000     2.440     2.443
  39   1 H      0.060  0.940  0.000  0.000     2.195     2.317
  40   1 H      0.055  0.945  0.000  0.000     2.257     2.349
  41   1 H      0.051  0.949  0.000  0.000     2.303     2.373
  42   1 H      0.033  0.967  0.000  0.000     2.548     2.496
  43   1 H      0.052  0.948  0.000  0.000     2.300     2.372
  44   1 H      0.043  0.957  0.000  0.000     2.411     2.428
  45   7 N     -0.396  1.307  4.089  0.000    30.265     8.170
  46   6 C      0.039  1.060  2.901  0.000    19.941     6.360
  47   6 C      0.265  1.047  2.688  0.000    22.528     7.773
  48   8 O     -0.501  1.745  4.757  0.000    23.811     6.542
  49   6 C     -0.102  1.062  3.039  0.000    22.434     6.742
  50   6 C      0.288  1.040  2.672  0.000    22.115     7.700
  51   8 O     -0.491  1.723  4.768  0.000    23.584     6.511
  52   7 N     -0.280  1.264  4.016  0.000    27.237     7.751
  53   1 H      0.170  0.830  0.000  0.000     1.274     1.768
  54   1 H      0.041  0.959  0.000  0.000     2.430     2.438
  55   1 H      0.074  0.926  0.000  0.000     2.043     2.235
  56   1 H      0.064  0.936  0.000  0.000     2.151     2.294
  57   1 H      0.202  0.798  0.000  0.000     1.094     1.638
  58   1 H      0.220  0.780  0.000  0.000     1.011     1.575
  59   7 N     -0.170  1.245  3.925  0.000    24.678     7.378
  60   6 C      0.025  1.060  2.915  0.000    20.159     6.394
  61   6 C      0.206  1.086  2.708  0.000    23.623     7.960
  62   8 O     -0.371  1.757  4.614  0.000    21.103     6.159
  63   6 C     -0.076  1.061  3.015  0.000    21.942     6.668
  64   6 C     -0.017  1.058  2.958  0.000    20.838     6.493
  65   6 C     -0.119  1.042  3.076  0.000    22.823     6.811
  66   6 C     -0.120  1.041  3.079  0.000    22.851     6.816
  67   1 H      0.238  0.762  0.000  0.000     0.932     1.512
  68   1 H      0.092  0.908  0.000  0.000     1.858     2.132
  69   1 H      0.061  0.939  0.000  0.000     2.187     2.313
  70   1 H      0.066  0.934  0.000  0.000     2.126     2.280
  71   1 H      0.049  0.951  0.000  0.000     2.338     2.391
  72   1 H      0.047  0.953  0.000  0.000     2.356     2.400
  73   1 H      0.040  0.960  0.000  0.000     2.448     2.447
  74   1 H      0.047  0.953  0.000  0.000     2.364     2.404
  75   1 H      0.044  0.956  0.000  0.000     2.393     2.419
  76   1 H      0.047  0.953  0.000  0.000     2.352     2.398
  77   1 H      0.039  0.961  0.000  0.000     2.469     2.457
  78   7 N     -0.389  1.303  4.086  0.000    30.070     8.144
  79   6 C      0.012  1.064  2.924  0.000    20.381     6.430
  80   6 C      0.263  1.048  2.689  0.000    22.570     7.780
  81   8 O     -0.497  1.752  4.746  0.000    23.724     6.530
  82   6 C      0.115  1.049  2.836  0.000    18.800     6.191
  83   8 O     -0.482  1.737  4.745  0.000    22.506     6.404
  84   6 C     -0.123  1.039  3.084  0.000    22.919     6.826
  85   1 H      0.173  0.827  0.000  0.000     1.257     1.756
  86   1 H      0.043  0.957  0.000  0.000     2.409     2.427
  87   1 H      0.029  0.971  0.000  0.000     2.600     2.522
  88   1 H      0.333  0.667  0.000  0.000     0.628     1.245
  89   1 H      0.063  0.937  0.000  0.000     2.160     2.298
  90   1 H      0.044  0.956  0.000  0.000     2.390     2.418
  91   1 H      0.054  0.946  0.000  0.000     2.274     2.358
  92   7 N     -0.173  1.243  3.931  0.000    24.751     7.389
  93   6 C      0.009  1.065  2.926  0.000    20.417     6.433
  94   6 C      0.277  1.040  2.683  0.000    22.309     7.735
  95   8 O     -0.493  1.751  4.742  0.000    23.637     6.518
  96   6 C     -0.087  1.060  3.027  0.000    22.152     6.700
  97   6 C     -0.108  1.056  3.051  0.000    22.548     6.760
  98   6 C      0.285  1.037  2.677  0.000    22.166     7.709
  99   8 O     -0.495  1.742  4.753  0.000    23.665     6.522
 100   7 N     -0.280  1.270  4.010  0.000    27.230     7.750
 101   1 H      0.236  0.764  0.000  0.000     0.941     1.519
 102   1 H      0.082  0.918  0.000  0.000     1.957     2.188
 103   1 H      0.091  0.909  0.000  0.000     1.869     2.138
 104   1 H      0.077  0.923  0.000  0.000     2.013     2.219
 105   1 H      0.066  0.934  0.000  0.000     2.132     2.284
 106   1 H      0.082  0.918  0.000  0.000     1.959     2.189
 107   1 H      0.234  0.766  0.000  0.000     0.947     1.524
 108   1 H      0.239  0.761  0.000  0.000     0.928     1.509
 109   7 N     -0.175  1.241  3.935  0.000    24.794     7.395
 110   6 C      0.008  1.065  2.927  0.000    20.452     6.439
 111   6 C      0.278  1.040  2.682  0.000    22.305     7.734
 112   8 O     -0.498  1.749  4.750  0.000    23.746     6.533
 113   6 C     -0.081  1.056  3.025  0.000    22.048     6.684
 114   6 C     -0.090  1.058  3.032  0.000    22.220     6.711
 115   6 C     -0.033  1.052  2.981  0.000    21.252     6.579
 116   7 N     -0.154  1.232  3.922  0.000    24.329     7.326
 117   6 C      0.229  1.021  2.750  0.000    23.182     7.883
 118   7 N     -0.242  1.228  4.015  0.000    26.326     7.620
 119   7 N     -0.268  1.277  3.991  0.000    26.933     7.708
 120   1 H      0.229  0.771  0.000  0.000     0.970     1.543
 121   1 H      0.092  0.908  0.000  0.000     1.857     2.131
 122   1 H      0.072  0.928  0.000  0.000     2.069     2.249
 123   1 H      0.062  0.938  0.000  0.000     2.180     2.309
 124   1 H      0.077  0.923  0.000  0.000     2.007     2.215
 125   1 H      0.087  0.913  0.000  0.000     1.912     2.162
 126   1 H      0.082  0.918  0.000  0.000     1.957     2.188
 127   1 H      0.091  0.909  0.000  0.000     1.872     2.139
 128   1 H      0.237  0.763  0.000  0.000     0.936     1.516
 129   1 H      0.235  0.765  0.000  0.000     0.946     1.523
 130   1 H      0.243  0.757  0.000  0.000     0.912     1.496
 131   1 H      0.251  0.749  0.000  0.000     0.879     1.469
 132   1 H      0.260  0.740  0.000  0.000     0.845     1.440
 133   7 N     -0.171  1.242  3.930  0.000    24.710     7.383
 134   6 C      0.028  1.058  2.914  0.000    20.112     6.385
 135   6 C      0.286  1.040  2.674  0.000    22.149     7.707
 136   8 O     -0.512  1.753  4.759  0.000    24.049     6.575
 137   6 C     -0.077  1.057  3.020  0.000    21.954     6.669
 138   6 C     -0.010  1.058  2.952  0.000    20.725     6.475
 139   6 C     -0.115  1.042  3.074  0.000    22.757     6.801
 140   6 C     -0.120  1.040  3.080  0.000    22.863     6.818
 141   1 H      0.214  0.786  0.000  0.000     1.040     1.597
 142   1 H      0.067  0.933  0.000  0.000     2.114     2.274
 143   1 H      0.059  0.941  0.000  0.000     2.212     2.326
 144   1 H      0.052  0.948  0.000  0.000     2.297     2.370
 145   1 H      0.042  0.958  0.000  0.000     2.420     2.433
 146   1 H      0.056  0.944  0.000  0.000     2.241     2.341
 147   1 H      0.039  0.961  0.000  0.000     2.462     2.454
 148   1 H      0.035  0.965  0.000  0.000     2.511     2.478
 149   1 H      0.057  0.943  0.000  0.000     2.233     2.337
 150   1 H      0.037  0.963  0.000  0.000     2.489     2.467
 151   1 H      0.038  0.962  0.000  0.000     2.471     2.458
 152   7 N     -0.190  1.252  3.938  0.000    25.121     7.444
 153   6 C      0.044  1.050  2.906  0.000    19.833     6.341
 154   6 C      0.280  1.042  2.678  0.000    22.270     7.728
 155   8 O     -0.515  1.742  4.772  0.000    24.109     6.583
 156   6 C     -0.116  1.065  3.051  0.000    22.706     6.782
 157   6 C      0.294  1.032  2.674  0.000    22.019     7.683
 158   8 O     -0.484  1.755  4.729  0.000    23.432     6.490
 159   7 N     -0.292  1.267  4.025  0.000    27.532     7.793
 160   1 H      0.244  0.756  0.000  0.000     0.905     1.490
 161   1 H      0.052  0.948  0.000  0.000     2.296     2.370
 162   1 H      0.101  0.899  0.000  0.000     1.773     2.082
 163   1 H      0.083  0.917  0.000  0.000     1.953     2.185
 164   1 H      0.237  0.763  0.000  0.000     0.937     1.517
 165   1 H      0.239  0.761  0.000  0.000     0.929     1.509
 166   7 N     -0.187  1.252  3.934  0.000    25.051     7.434
 167   6 C      0.031  1.055  2.914  0.000    20.054     6.376
 168   6 C      0.283  1.043  2.674  0.000    22.201     7.716
 169   8 O     -0.512  1.739  4.773  0.000    24.046     6.575
 170   6 C     -0.065  1.053  3.012  0.000    21.738     6.637
 171   6 C     -0.089  1.059  3.030  0.000    22.191     6.707
 172   6 C      0.366  1.025  2.609  0.000    20.792     7.462
 173   8 O     -0.584  1.753  4.831  0.000    25.725     6.800
 174   8 O     -0.604  1.766  4.839  0.000    26.226     6.866
 175   1 H      0.233  0.767  0.000  0.000     0.953     1.529
 176   1 H      0.086  0.914  0.000  0.000     1.920     2.167
 177   1 H      0.071  0.929  0.000  0.000     2.076     2.253
 178   1 H      0.056  0.944  0.000  0.000     2.250     2.345
 179   1 H      0.045  0.955  0.000  0.000     2.388     2.417
 180   1 H      0.015  0.985  0.000  0.000     2.817     2.625
 181   7 N     -0.193  1.255  3.938  0.000    25.184     7.453
 182   6 C      0.037  1.061  2.902  0.000    19.948     6.358
 183   6 C      0.292  1.040  2.668  0.000    22.043     7.689
 184   8 O     -0.505  1.731  4.774  0.000    23.891     6.553
 185   6 C     -0.019  1.063  2.955  0.000    20.872     6.498
 186   6 C     -0.064  1.051  3.013  0.000    21.722     6.635
 187   6 C     -0.106  1.035  3.071  0.000    22.574     6.775
 188   6 C     -0.110  1.036  3.074  0.000    22.661     6.789
 189   1 H      0.229  0.771  0.000  0.000     0.968     1.541
 190   1 H      0.052  0.948  0.000  0.000     2.295     2.369
 191   1 H      0.046  0.954  0.000  0.000     2.372     2.408
 192   1 H      0.037  0.963  0.000  0.000     2.494     2.469
 193   1 H      0.046  0.954  0.000  0.000     2.369     2.407
 194   1 H      0.060  0.940  0.000  0.000     2.204     2.321
 195   1 H      0.009  0.991  0.000  0.000     2.906     2.666
 196   1 H      0.053  0.947  0.000  0.000     2.279     2.361
 197   1 H      0.058  0.942  0.000  0.000     2.220     2.330
 198   1 H      0.035  0.965  0.000  0.000     2.519     2.482
 199   1 H      0.051  0.949  0.000  0.000     2.312     2.378
 200   7 N     -0.190  1.251  3.939  0.000    25.116     7.443
 201   6 C      0.052  1.050  2.899  0.000    19.704     6.319
 202   6 C      0.270  1.044  2.686  0.000    22.432     7.756
 203   8 O     -0.510  1.736  4.774  0.000    23.998     6.568
 204   6 C     -0.099  1.066  3.033  0.000    22.378     6.734
 205   6 C      0.376  1.020  2.604  0.000    20.625     7.432
 206   8 O     -0.597  1.753  4.844  0.000    26.040     6.842
 207   8 O     -0.593  1.767  4.826  0.000    25.950     6.830
 208   1 H      0.211  0.789  0.000  0.000     1.050     1.605
 209   1 H      0.055  0.945  0.000  0.000     2.263     2.352
 210   1 H      0.048  0.952  0.000  0.000     2.343     2.394
 211   1 H      0.046  0.954  0.000  0.000     2.371     2.408
 212   7 N     -0.180  1.251  3.929  0.000    24.899     7.411
 213   6 C      0.024  1.063  2.913  0.000    20.169     6.394
 214   6 C      0.278  1.043  2.679  0.000    22.296     7.732
 215   8 O     -0.478  1.724  4.754  0.000    23.309     6.473
 216   6 C     -0.075  1.053  3.022  0.000    21.924     6.666
 217   6 C     -0.080  1.053  3.027  0.000    22.023     6.681
 218   6 C     -0.022  1.051  2.971  0.000    21.040     6.545
 219   7 N     -0.165  1.229  3.936  0.000    24.561     7.360
 220   6 C      0.237  1.022  2.741  0.000    23.031     7.857
 221   7 N     -0.270  1.250  4.020  0.000    26.997     7.717
 222   7 N     -0.293  1.270  4.023  0.000    27.565     7.798
 223   1 H      0.220  0.780  0.000  0.000     1.009     1.574
 224   1 H      0.077  0.923  0.000  0.000     2.015     2.220
 225   1 H      0.061  0.939  0.000  0.000     2.186     2.312
 226   1 H      0.052  0.948  0.000  0.000     2.295     2.369
 227   1 H      0.061  0.939  0.000  0.000     2.185     2.312
 228   1 H      0.073  0.927  0.000  0.000     2.048     2.238
 229   1 H      0.094  0.906  0.000  0.000     1.841     2.122
 230   1 H      0.084  0.916  0.000  0.000     1.939     2.177
 231   1 H      0.232  0.768  0.000  0.000     0.956     1.532
 232   1 H      0.256  0.744  0.000  0.000     0.862     1.454
 233   1 H      0.233  0.767  0.000  0.000     0.953     1.529
 234   1 H      0.242  0.758  0.000  0.000     0.917     1.500
 235   1 H      0.226  0.774  0.000  0.000     0.983     1.553
 236   7 N     -0.188  1.249  3.939  0.000    25.078     7.438
 237   6 C      0.024  1.064  2.912  0.000    20.175     6.395
 238   6 C      0.282  1.042  2.676  0.000    22.221     7.719
 239   8 O     -0.495  1.727  4.768  0.000    23.673     6.523
 240   6 C     -0.017  1.061  2.956  0.000    20.833     6.492
 241   6 C     -0.120  1.040  3.080  0.000    22.849     6.816
 242   6 C     -0.110  1.038  3.072  0.000    22.649     6.785
 243   1 H      0.216  0.784  0.000  0.000     1.028     1.588
 244   1 H      0.077  0.923  0.000  0.000     2.015     2.220
 245   1 H      0.041  0.959  0.000  0.000     2.435     2.440
 246   1 H      0.054  0.946  0.000  0.000     2.266     2.354
 247   1 H      0.036  0.964  0.000  0.000     2.509     2.477
 248   1 H      0.070  0.930  0.000  0.000     2.083     2.257
 249   1 H      0.039  0.961  0.000  0.000     2.457     2.451
 250   1 H      0.055  0.945  0.000  0.000     2.261     2.351
 251   1 H      0.038  0.962  0.000  0.000     2.477     2.461
 252   7 N     -0.183  1.252  3.931  0.000    24.969     7.421
 253   6 C      0.022  1.061  2.916  0.000    20.202     6.400
 254   6 C      0.290  1.035  2.675  0.000    22.084     7.696
 255   8 O     -0.469  1.732  4.736  0.000    23.099     6.444
 256   6 C      0.075  1.036  2.889  0.000    19.530     6.329
 257   8 O     -0.460  1.706  4.753  0.000    22.043     6.338
 258   1 H      0.219  0.781  0.000  0.000     1.014     1.577
 259   1 H      0.064  0.936  0.000  0.000     2.155     2.296
 260   1 H      0.034  0.966  0.000  0.000     2.532     2.488
 261   1 H      0.056  0.944  0.000  0.000     2.250     2.346
 262   1 H      0.326  0.674  0.000  0.000     0.648     1.264
 263   7 N     -0.176  1.235  3.941  0.000    24.817     7.399
 264   6 C     -0.032  1.051  2.981  0.000    21.205     6.568
 265   6 C      0.272  1.039  2.690  0.000    22.411     7.752
 266   8 O     -0.458  1.722  4.736  0.000    22.872     6.412
 267   1 H      0.202  0.798  0.000  0.000     1.096     1.640
 268   1 H      0.092  0.908  0.000  0.000     1.861     2.133
 269   1 H      0.091  0.909  0.000  0.000     1.872     2.140
 270   7 N     -0.174  1.239  3.936  0.000    24.776     7.393
 271   6 C      0.010  1.064  2.926  0.000    20.416     6.433
 272   6 C      0.269  1.043  2.687  0.000    22.456     7.760
 273   8 O     -0.468  1.728  4.740  0.000    23.094     6.443
 274   6 C     -0.065  1.050  3.016  0.000    21.746     6.638
 275   6 C     -0.108  1.059  3.049  0.000    22.555     6.760
 276   6 C      0.287  1.039  2.674  0.000    22.132     7.703
 277   8 O     -0.491  1.737  4.754  0.000    23.581     6.511
 278   7 N     -0.287  1.263  4.024  0.000    27.404     7.775
 279   1 H      0.203  0.797  0.000  0.000     1.090     1.636
 280   1 H      0.104  0.896  0.000  0.000     1.749     2.068
 281   1 H      0.056  0.944  0.000  0.000     2.242     2.341
 282   1 H      0.077  0.923  0.000  0.000     2.009     2.216
 283   1 H      0.085  0.915  0.000  0.000     1.933     2.174
 284   1 H      0.077  0.923  0.000  0.000     2.006     2.215
 285   1 H      0.229  0.771  0.000  0.000     0.967     1.541
 286   1 H      0.230  0.770  0.000  0.000     0.967     1.540
 287   7 N     -0.174  1.241  3.933  0.000    24.763     7.391
 288   6 C      0.008  1.069  2.923  0.000    20.450     6.438
 289   6 C      0.275  1.042  2.683  0.000    22.358     7.743
 290   8 O     -0.473  1.738  4.736  0.000    23.201     6.458
 291   6 C      0.122  1.042  2.836  0.000    18.679     6.171
 292   8 O     -0.473  1.713  4.761  0.000    22.327     6.379
 293   6 C     -0.134  1.042  3.091  0.000    23.126     6.857
 294   1 H      0.206  0.794  0.000  0.000     1.074     1.624
 295   1 H      0.066  0.934  0.000  0.000     2.133     2.284
 296   1 H      0.019  0.981  0.000  0.000     2.749     2.593
 297   1 H      0.314  0.686  0.000  0.000     0.681     1.297
 298   1 H      0.069  0.931  0.000  0.000     2.101     2.267
 299   1 H      0.053  0.947  0.000  0.000     2.285     2.364
 300   1 H      0.067  0.933  0.000  0.000     2.116     2.275
 301   7 N     -0.156  1.230  3.926  0.000    24.370     7.332
 302   6 C      0.019  1.057  2.924  0.000    20.263     6.410
 303   6 C      0.204  1.083  2.713  0.000    23.667     7.967
 304   8 O     -0.370  1.755  4.615  0.000    21.093     6.158
 305   6 C     -0.071  1.055  3.016  0.000    21.857     6.656
 306   6 C     -0.109  1.058  3.052  0.000    22.583     6.765
 307   6 C      0.292  1.038  2.670  0.000    22.050     7.689
 308   8 O     -0.518  1.758  4.760  0.000    24.182     6.593
 309   7 N     -0.287  1.266  4.021  0.000    27.415     7.776
 310   1 H      0.207  0.793  0.000  0.000     1.071     1.621
 311   1 H      0.100  0.900  0.000  0.000     1.785     2.089
 312   1 H      0.087  0.913  0.000  0.000     1.910     2.161
 313   1 H      0.090  0.910  0.000  0.000     1.877     2.143
 314   1 H      0.105  0.895  0.000  0.000     1.744     2.065
 315   1 H      0.073  0.927  0.000  0.000     2.051     2.239
 316   1 H      0.225  0.775  0.000  0.000     0.985     1.555
 317   1 H      0.222  0.778  0.000  0.000     1.002     1.568
 318   7 N     -0.387  1.319  4.067  0.000    30.003     8.135
 319   6 C      0.026  1.057  2.916  0.000    20.154     6.395
 320   6 C      0.198  1.098  2.704  0.000    23.786     7.987
 321   8 O     -0.370  1.748  4.622  0.000    21.093     6.158
 322   6 C     -0.074  1.051  3.024  0.000    21.916     6.664
 323   6 C     -0.083  1.053  3.030  0.000    22.086     6.691
 324   6 C     -0.090  1.050  3.041  0.000    22.220     6.711
 325   6 C     -0.050  1.060  2.990  0.000    21.566     6.629
 326   7 N     -0.145  1.232  3.913  0.000    24.134     7.296
 327   1 H      0.173  0.827  0.000  0.000     1.255     1.755
 328   1 H      0.073  0.927  0.000  0.000     2.054     2.241
 329   1 H      0.052  0.948  0.000  0.000     2.294     2.369
 330   1 H      0.033  0.967  0.000  0.000     2.550     2.497
 331   1 H      0.063  0.937  0.000  0.000     2.167     2.302
 332   1 H      0.066  0.934  0.000  0.000     2.132     2.284
 333   1 H      0.078  0.922  0.000  0.000     1.997     2.210
 334   1 H      0.062  0.938  0.000  0.000     2.178     2.308
 335   1 H      0.120  0.880  0.000  0.000     1.615     1.987
 336   1 H      0.113  0.887  0.000  0.000     1.668     2.020
 337   1 H      0.305  0.695  0.000  0.000     0.697     1.308
 338   1 H      0.294  0.706  0.000  0.000     0.732     1.340
 339   1 H      0.295  0.705  0.000  0.000     0.728     1.337
 340   7 N     -0.380  1.305  4.075  0.000    29.817     8.110
 341   6 C      0.028  1.056  2.916  0.000    20.116     6.388
 342   6 C      0.267  1.049  2.683  0.000    22.487     7.766
 343   8 O     -0.522  1.749  4.772  0.000    24.267     6.605
 344   6 C     -0.064  1.054  3.010  0.000    21.712     6.632
 345   6 C     -0.010  1.056  2.954  0.000    20.729     6.476
 346   6 C     -0.110  1.040  3.070  0.000    22.647     6.785
 347   6 C     -0.119  1.040  3.079  0.000    22.838     6.814
 348   1 H      0.148  0.852  0.000  0.000     1.414     1.863
 349   1 H      0.058  0.942  0.000  0.000     2.219     2.330
 350   1 H      0.034  0.966  0.000  0.000     2.525     2.485
 351   1 H      0.029  0.971  0.000  0.000     2.606     2.525
 352   1 H      0.034  0.966  0.000  0.000     2.535     2.490
 353   1 H      0.048  0.952  0.000  0.000     2.348     2.396
 354   1 H      0.023  0.977  0.000  0.000     2.686     2.563
 355   1 H      0.032  0.968  0.000  0.000     2.563     2.504
 356   1 H      0.050  0.950  0.000  0.000     2.318     2.381
 357   1 H      0.038  0.962  0.000  0.000     2.476     2.461
 358   1 H      0.041  0.959  0.000  0.000     2.432     2.439
 359   7 N     -0.175  1.245  3.930  0.000    24.789     7.395
 360   6 C      0.031  1.052  2.917  0.000    20.056     6.377
 361   6 C      0.199  1.090  2.711  0.000    23.763     7.983
 362   8 O     -0.363  1.743  4.620  0.000    20.956     6.138
 363   6 C     -0.130  1.044  3.086  0.000    23.050     6.845
 364   1 H      0.240  0.760  0.000  0.000     0.923     1.505
 365   1 H      0.081  0.919  0.000  0.000     1.965     2.192
 366   1 H      0.079  0.921  0.000  0.000     1.990     2.206
 367   1 H      0.074  0.926  0.000  0.000     2.047     2.237
 368   1 H      0.088  0.912  0.000  0.000     1.898     2.154
 369   7 N     -0.392  1.317  4.076  0.000    30.161     8.157
 370   6 C      0.030  1.061  2.910  0.000    20.085     6.383
 371   6 C      0.275  1.046  2.678  0.000    22.343     7.740
 372   8 O     -0.505  1.752  4.753  0.000    23.905     6.555
 373   6 C     -0.064  1.054  3.010  0.000    21.727     6.636
 374   6 C     -0.096  1.058  3.038  0.000    22.323     6.725
 375   6 C      0.288  1.038  2.674  0.000    22.116     7.700
 376   8 O     -0.522  1.758  4.764  0.000    24.281     6.607
 377   7 N     -0.283  1.268  4.015  0.000    27.315     7.762
 378   1 H      0.168  0.832  0.000  0.000     1.286     1.777
 379   1 H      0.043  0.957  0.000  0.000     2.414     2.430
 380   1 H      0.058  0.942  0.000  0.000     2.227     2.334
 381   1 H      0.049  0.951  0.000  0.000     2.334     2.389
 382   1 H      0.038  0.962  0.000  0.000     2.475     2.460
 383   1 H      0.064  0.936  0.000  0.000     2.156     2.296
 384   1 H      0.251  0.749  0.000  0.000     0.881     1.470
 385   1 H      0.236  0.764  0.000  0.000     0.941     1.519
 386   7 N     -0.178  1.249  3.929  0.000    24.849     7.404
 387   6 C      0.021  1.061  2.917  0.000    20.218     6.402
 388   6 C      0.274  1.044  2.681  0.000    22.363     7.744
 389   8 O     -0.480  1.736  4.743  0.000    23.340     6.477
 390   6 C     -0.016  1.063  2.953  0.000    20.829     6.491
 391   6 C     -0.063  1.051  3.012  0.000    21.710     6.634
 392   6 C     -0.113  1.038  3.075  0.000    22.718     6.796
 393   6 C     -0.113  1.035  3.079  0.000    22.730     6.799
 394   1 H      0.215  0.785  0.000  0.000     1.033     1.592
 395   1 H      0.065  0.935  0.000  0.000     2.138     2.287
 396   1 H      0.043  0.957  0.000  0.000     2.404     2.425
 397   1 H      0.038  0.962  0.000  0.000     2.474     2.460
 398   1 H      0.055  0.945  0.000  0.000     2.256     2.349
 399   1 H      0.066  0.934  0.000  0.000     2.126     2.280
 400   1 H      0.025  0.975  0.000  0.000     2.665     2.553
 401   1 H      0.046  0.954  0.000  0.000     2.377     2.411
 402   1 H      0.046  0.954  0.000  0.000     2.376     2.410
 403   1 H      0.042  0.958  0.000  0.000     2.423     2.434
 404   1 H      0.036  0.964  0.000  0.000     2.501     2.473
 405   7 N     -0.175  1.244  3.931  0.000    24.790     7.395
 406   6 C      0.046  1.051  2.903  0.000    19.812     6.337
 407   6 C      0.281  1.039  2.679  0.000    22.239     7.723
 408   8 O     -0.482  1.737  4.745  0.000    23.391     6.484
 409   6 C     -0.110  1.061  3.048  0.000    22.586     6.765
 410   6 C      0.291  1.034  2.675  0.000    22.068     7.692
 411   8 O     -0.519  1.758  4.761  0.000    24.201     6.596
 412   7 N     -0.282  1.269  4.013  0.000    27.273     7.756
 413   1 H      0.203  0.797  0.000  0.000     1.090     1.636
 414   1 H      0.061  0.939  0.000  0.000     2.187     2.313
 415   1 H      0.088  0.912  0.000  0.000     1.901     2.156
 416   1 H      0.078  0.922  0.000  0.000     2.001     2.212
 417   1 H      0.242  0.758  0.000  0.000     0.916     1.500
 418   1 H      0.216  0.784  0.000  0.000     1.027     1.587
 419   7 N     -0.197  1.261  3.937  0.000    25.288     7.469
 420   6 C      0.032  1.058  2.910  0.000    20.043     6.374
 421   6 C      0.206  1.084  2.710  0.000    23.621     7.960
 422   8 O     -0.358  1.743  4.615  0.000    20.869     6.125
 423   6 C      0.093  1.030  2.877  0.000    19.247     6.284
 424   8 O     -0.465  1.703  4.762  0.000    22.152     6.354
 425   1 H      0.237  0.763  0.000  0.000     0.936     1.516
 426   1 H      0.080  0.920  0.000  0.000     1.983     2.202
 427   1 H      0.026  0.974  0.000  0.000     2.643     2.542
 428   1 H      0.050  0.950  0.000  0.000     2.323     2.384
 429   1 H      0.321  0.679  0.000  0.000     0.663     1.279
 430   7 N     -0.401  1.311  4.089  0.000    30.397     8.188
 431   6 C      0.045  1.056  2.899  0.000    19.838     6.345
 432   6 C      0.203  1.094  2.703  0.000    23.689     7.971
 433   8 O     -0.383  1.751  4.632  0.000    21.345     6.194
 434   6 C     -0.065  1.058  3.007  0.000    21.740     6.637
 435   6 C     -0.005  1.054  2.951  0.000    20.635     6.461
 436   6 C     -0.107  1.041  3.067  0.000    22.606     6.779
 437   6 C     -0.117  1.040  3.076  0.000    22.785     6.806
 438   1 H      0.171  0.829  0.000  0.000     1.265     1.762
 439   1 H      0.048  0.952  0.000  0.000     2.339     2.392
 440   1 H      0.044  0.956  0.000  0.000     2.399     2.422
 441   1 H      0.044  0.956  0.000  0.000     2.397     2.421
 442   1 H      0.027  0.973  0.000  0.000     2.636     2.539
 443   1 H      0.043  0.957  0.000  0.000     2.411     2.428
 444   1 H      0.017  0.983  0.000  0.000     2.779     2.607
 445   1 H      0.051  0.949  0.000  0.000     2.307     2.375
 446   1 H      0.046  0.954  0.000  0.000     2.369     2.407
 447   1 H      0.051  0.949  0.000  0.000     2.305     2.374
 448   1 H      0.036  0.964  0.000  0.000     2.509     2.477
 449   1 H      0.175  0.825  0.000  0.000     1.244     1.747
 450   1 H      0.088  0.912  0.000  0.000     1.899     2.155
 451   1 H      0.179  0.821  0.000  0.000     1.217     1.728
 452   1 H      0.082  0.918  0.000  0.000     1.961     2.190
 453   1 H      0.175  0.825  0.000  0.000     1.242     1.745
 454   1 H      0.073  0.927  0.000  0.000     2.055     2.242
 455   1 H      0.188  0.812  0.000  0.000     1.171     1.695
 456   1 H      0.084  0.916  0.000  0.000     1.943     2.179
 457   1 H      0.193  0.807  0.000  0.000     1.143     1.675
 458   1 H      0.067  0.933  0.000  0.000     2.116     2.274
 459   1 H      0.187  0.813  0.000  0.000     1.174     1.697
 460   1 H      0.085  0.915  0.000  0.000     1.929     2.172
 461   1 H      0.188  0.812  0.000  0.000     1.166     1.692
 462   1 H      0.070  0.930  0.000  0.000     2.084     2.258
 463   1 H      0.175  0.825  0.000  0.000     1.242     1.745
 464   1 H      0.067  0.933  0.000  0.000     2.117     2.275

 Mol. C6AA /au·bohr⁶  :    1908719.623094
 Mol. C8AA /au·bohr⁸  :   41771220.402468
 Mol. α(0) /au        :       2054.576680

 
molecular dipole:
                 x           y           z       tot (Debye)
 q only:       15.508      11.021      21.375
   full:       16.959      12.300      20.598      74.677
molecular quadrupole (traceless):
                xx          xy          yy          xz          yz          zz
 q only:     2728.080    8308.995   -6861.709   14140.534    7013.194    4133.628
  q+dip:     3634.932    9117.438   -6781.186   14229.404    7261.918    3146.254
   full:     3635.893    9116.627   -6778.377   14233.136    7260.900    3142.484
speedup 14.39
cpu  time for grad   49.20 s
wall time for grad    3.42 s

SCC energy    :    -724.1377134
rep           :       8.4618639
ES            :       2.3389730
AES           :      -0.1390481
AXC           :       0.2151585
disp          :      -0.6124045
XB            :       0.0000000
fix           :       0.0000000
Gborn         :       0.0000000
Gsasa         :       0.0000000
Ghb           :       0.0000000
Gshift        :       0.0000000
Gsolv         :      -0.5369354     -336.93
Etot ala COSMO:    -724.1377134
grad norm     :       0.6273592
total E       :    -715.6139289
atomizationE  :     128.0120799    80328.79
(atE without considering molecular charge,
 total energy contains solvation terms)
H-L gap (eV)  :          1.5701

------------------------------------------------------------------------
 * finished run on 2019/02/13 at 00:17:57.761     
------------------------------------------------------------------------
 total:
 * wall-time:     0 d,  0 h,  0 min,  3.837 sec
 *  cpu-time:     0 d,  0 h,  0 min, 55.630 sec
 * ratio c/w:    14.497 speedup
 SCF:
 * wall-time:     0 d,  0 h,  0 min,  3.630 sec
 *  cpu-time:     0 d,  0 h,  0 min, 52.558 sec
 * ratio c/w:    14.480 speedup

