      -----------------------------------------------------------      
     |                   =====================                   |     
     |                           x T B                           |     
     |                   =====================                   |     
     |                         S. Grimme                         |     
     |          Mulliken Center for Theoretical Chemistry        |     
     |                    University of Bonn                     |     
     |                 Version 6.0.1 (SAW181210)                 |     
      -----------------------------------------------------------      

   This program is distributed in the hope that it will be useful,
   but WITHOUT ANY WARRANTY; without even the implied warranty of
   MERCHANTABILITY or FITNESS FOR A PARTICULAR PURPOSE.
   
   FOR NON-COMMERCIAL, ACADEMIA USE ONLY.
   
   Cite this work as:
   S. Grimme, C. Bannwarth, P. Shushkov, J. Comput. Theory Chem., 2017,
   13, 1989-2009.
   C. Bannwarth, S. Ehlert and S. Grimme., ChemRxiv, 2018, preprint.
   http://doi.org/10.26434/chemrxiv.7246238.v1
   
   for sTDA-xTB:
   S. Grimme and C. Bannwarth, J. Chem. Phys., 2016, 145, 054103.
   
   in the mass-spec context:
   V. Asgeirsson, C. Bauer and S. Grimme, Chem. Sci., 2017, 8, 4879.
   
   if GBSA is used:
   P. Shushkov, F. März and S. Grimme, unpublished.
   
   for ANC optimizer:
   S. Grimme, unpublished.
   Rational Function algorithm used in ANCopt:
   F. Eckert, P. Pulay, H.-J. Werner, J. Comput. Chem., 1997, 18, 1473.
   
   with help from (in alphabetical order)
   C. Bannwarth, F. Bohle, G. Brandenburg, E. Caldeweyher, M. Checinski,
   S. Dohm, S. Ehlert, S. Ehrlich, F. März, H. Neugebauer, J. Pisarek,
   P. Pracht, P. Shushkov, and S. Spicher.
   
 * started run on 2019/02/13 at 00:18:55.510     
========================================================================
 # omp threads = 16
========================================================================
number of atoms            : 71
number of electrons        : 190
charge                     : 0
spin                       : .0
first test random number   : .9223

########################################################################
# WARNING! Please study the warnings concerning your input carefully
#  - Process number higher than OMP_NUM_THREADS, I hope you know what you are doing.
########################################################################

           ------------------------------------------------- 
          |                 G F N 2 - x T B                 |
          | Geometry, Frequencies, Noncovalent interactions |
          |            JCTC 2018 parametrisation            |
           ------------------------------------------------- 
 
      method parameters     
 k(s)        :  1.8500
 k(p)        :  2.2300
 k(d)        :  2.2300
 k(f)        :  2.0000
 kEN (H0ij)  : -2.0000
 D4 a1       :  0.5200
 D4 a2       :  5.0000
 D4 s6       :  1.0000
 D4 s8       :  2.7000
 D4 s9       :  5.0000
 alphaj      :  2.0000

 Solvent             : h2o
 Using internal parameter file: .param_gbsa2_h2o
 Gsolv ref. state (COSMO-RS): gsolv [1 M gas/solution]
 temperature (mdtemp)       :    298.150000000000     
 dielectric constant        :    80.2000000000000     
 rho                        :    1.00000000000000     
 mass                       :    18.0000000000000     
 surface tension            :    15.5689454083859     
 probe radius               :   0.975313790000000     
 vdW radii scaling          :    1.00000000000000     
 Gshift (Eh)                :   1.857443126794793E-003
 c1                         :    1.55243817000000     
 soset                      :   0.130326360000000     
 HB correction              :  T

            Z     q(EN)     CN     RAES       Cart. coordinates
     1  N   5.0   -0.19    3.19    1.95   327.17124   104.93997   227.11637
     2  C   4.0    0.04    4.28    4.16   325.61222   103.26516   225.59668
     3  C   4.0    0.11    3.32    3.06   324.73048   101.11439   227.31310
     4  O   6.0   -0.26    1.12    1.80   323.06054   101.49281   228.88836
     5  C   4.0   -0.04    4.22    4.05   326.75068   102.34272   223.13379
     6  C   4.0    0.25    3.14    3.03   324.74589   100.57953   221.84716
     7  O   6.0   -0.27    1.28    1.80   323.03272    99.75521   223.25964
     8  O   6.0   -0.28    1.16    1.80   325.00469   100.17504   219.54933
     9  H   1.0    0.09    1.03    1.43   328.37825   104.10626   228.34294
    10  H   1.0    0.07    1.07    1.44   323.89350   104.31174   225.12035
    11  H   1.0    0.05    1.02    1.43   327.13454   103.90085   221.84211
    12  H   1.0    0.05    1.02    1.43   328.47796   101.24671   223.37473
    13  N   5.0   -0.19    3.26    1.97   330.25593   105.13084   208.55785
    14  C   4.0    0.03    4.40    4.38   330.09640   104.21756   211.13559
    15  C   4.0    0.15    3.46    3.10   328.87909   101.59994   210.96799
    16  O   6.0   -0.30    1.28    1.80   326.81872   101.28542   209.96634
    17  C   4.0   -0.02    4.32    4.24   328.51186   105.98672   212.83759
    18  C   4.0   -0.05    4.20    3.99   329.58314   108.67659   212.72352
    19  C   4.0   -0.07    4.12    3.84   328.45850   104.96709   215.53563
    20  C   4.0   -0.07    4.01    3.64   328.09762   110.57713   214.30067
    21  H   1.0    0.13    1.06    1.44   328.73160   104.81107   207.43798
    22  H   1.0    0.04    1.05    1.44   332.02855   104.11195   211.86469
    23  H   1.0    0.05    1.05    1.44   326.59190   106.00746   212.07249
    24  H   1.0    0.04    1.03    1.43   331.54773   108.65101   213.34946
    25  H   1.0    0.04    1.03    1.43   329.57470   109.29860   210.75408
    26  H   1.0    0.04    1.00    1.43   327.24408   106.13454   216.70986
    27  H   1.0    0.06    1.00    1.43   327.71382   103.05279   215.60210
    28  H   1.0    0.04    1.00    1.43   330.34347   104.97645   216.35055
    29  H   1.0    0.04    1.00    1.43   328.77161   112.48340   213.92674
    30  H   1.0    0.04    1.00    1.43   326.09569   110.50112   213.84810
    31  H   1.0    0.04    1.00    1.43   328.31289   110.22568   216.31125
    32  N   5.0   -0.14    3.36    2.00   330.21955    99.68790   211.94538
    33  C   4.0    0.02    4.25    4.10   329.33672    97.09832   211.75287
    34  C   4.0    0.16    3.34    3.06   329.28762    96.33542   208.95422
    35  O   6.0   -0.28    1.22    1.80   331.23066    95.94545   207.77433
    36  H   1.0    0.08    1.06    1.44   331.97163   100.00430   212.61065
    37  H   1.0    0.05    1.03    1.43   330.65532    95.88065   212.75864
    38  H   1.0    0.05    1.02    1.43   327.46128    96.95802   212.61013
    39  N   5.0   -0.14    3.38    2.01   326.97132    96.16928   207.93877
    40  C   4.0    0.02    4.24    4.08   326.55618    95.58083   205.31067
    41  C   4.0    0.15    3.30    3.05   324.96976    97.48569   203.83240
    42  O   6.0   -0.29    1.22    1.80   324.07974    96.90680   201.77835
    43  H   1.0    0.09    1.07    1.44   325.46562    96.63376   209.01462
    44  H   1.0    0.07    1.04    1.43   328.41511    95.45170   204.41014
    45  H   1.0    0.05    1.02    1.43   325.63940    93.73479   205.11404
    46  N   5.0   -0.13    3.48    2.06   324.53735    99.70643   204.96554
    47  C   4.0    0.04    4.32    4.23   323.01127   101.65486   203.80659
    48  C   4.0    0.08    3.21    3.04   324.51591   104.07562   203.34807
    49  O   6.0   -0.29    1.16    1.80   326.35320   104.64162   204.64685
    50  C   4.0   -0.04    4.27    4.14   320.73494   102.29216   205.49173
    51  C   4.0   -0.05    4.18    3.95   318.76630   100.18139   205.47585
    52  C   4.0   -0.05    4.17    3.94   316.34219   101.02911   206.80408
    53  C   4.0   -0.04    4.11    3.83   314.33388    98.97401   206.94895
    54  N   5.0   -0.12    4.02    2.90   315.05347    97.00875   208.84289
    55  H   1.0    0.12    1.09    1.44   325.49377   100.16637   206.56077
    56  H   1.0    0.06    1.06    1.44   322.35919   100.93398   201.97868
    57  H   1.0    0.06    1.03    1.43   321.41969   102.63763   207.40585
    58  H   1.0    0.04    1.03    1.43   319.88084   104.03617   204.80124
    59  H   1.0    0.05    1.03    1.43   318.34676    99.70067   203.51136
    60  H   1.0    0.05    1.02    1.43   319.60452    98.52542   206.37303
    61  H   1.0    0.04    1.03    1.43   316.77787   101.74365   208.68666
    62  H   1.0    0.04    1.03    1.43   315.55471   102.61378   205.74907
    63  H   1.0    0.04    1.02    1.43   312.54365    99.82335   207.51248
    64  H   1.0    0.04    1.02    1.43   314.10891    98.08750   205.10188
    65  H   1.0    0.06    1.02    1.43   313.67148    95.64570   208.97424
    66  H   1.0    0.06    1.02    1.43   316.72530    96.18043   208.29055
    67  H   1.0    0.06    1.02    1.43   315.31471    97.85214   210.58264
    68  H   1.0    0.09    1.08    1.44   328.13689   105.89830   226.09574
    69  H   1.0    0.07    1.05    1.44   325.51019    99.40018   227.15628
    70  H   1.0    0.09    1.09    1.44   330.47892   106.81689   208.56569
    71  H   1.0    0.05    1.05    1.44   324.01274   105.25172   201.95714

  Z AO/shell   Hii/eV     exponent
  1     Wed Apr 25 08:07:45 CEST 2018   EN: 2.200 GM2: 0.406  GM3: 0.0800  RAES: 1.40
     1s    -10.707211    1.230000
  6     Wed Apr 25 08:07:45 CEST 2018   EN: 2.550 GM2: 0.538  GM3: 0.1500  RAES: 3.00
     2s    -13.970922    2.096432
     2p    -10.063292    1.800000
  7     Wed Apr 25 08:07:45 CEST 2018   EN: 3.040 GM2: 0.461  GM3:-0.0640  RAES: 1.90
     2s    -16.686243    2.339881
     2p    -12.523956    2.014332
  8     Wed Apr 25 08:07:45 CEST 2018   EN: 3.440 GM2: 0.452  GM3:-0.0517  RAES: 1.80
     2s    -20.229985    2.439742
     2p    -15.503117    2.137023
 no old-style atom pair restraining (fixing) potential

molecular fragmentation (1/2 indicates fragments):
11111111111122222222222222222222222222222222222222222222222222222221122
# atoms in fragment 1/2:    14    57
 fragment masses (1/2) :      116.10      358.46
CMA distance (Bohr)    :  16.376
constraining FC (au)   :  0.0500
           ------------------------------------------------- 
          |        Self-Consistent Charge Iterations        |
           ------------------------------------------------- 

 Ncao       : 170
 Nao        : 170
 Nshell     : 104
 Nel        : 190
 T(el)      :   500.0
 intcut     :    35.0
 scfconv/Eh :  0.100E-06
   qconv/e  :  0.100E-04
 intneglect :  0.100E-08
 broydamp   :      0.400
 iter      E             dE          RMSdq      gap      omega  full diag
   1   -109.1471418 -0.109147E+03  0.471E+00    3.71       0.0  T
   2   -109.4390531 -0.291911E+00  0.217E+00    2.11       1.0  T
   3   -109.4582286 -0.191755E-01  0.126E+00    2.17       1.0  T
   4   -109.4750385 -0.168099E-01  0.275E-01    1.65       1.0  T
   5   -109.4761582 -0.111963E-02  0.133E-01    1.85       1.0  T
   6   -109.4763117 -0.153550E-03  0.533E-02    1.86       1.0  T
   7   -109.4763538 -0.420978E-04  0.197E-02    1.87       1.0  T
   8   -109.4763568 -0.299688E-05  0.797E-03    1.87       1.5  T
   9   -109.4763577 -0.887757E-06  0.286E-03    1.87       4.1  T
  10   -109.4763578 -0.641403E-07  0.104E-03    1.87      11.4  T
  11   -109.4763578 -0.927673E-08  0.432E-04    1.87      27.5  T
  12   -109.4763578 -0.252290E-08  0.154E-04    1.87      77.1  T
  13   -109.4763578 -0.232362E-09  0.711E-05    1.87     166.9  T
  14   -109.4763578 -0.428457E-10  0.245E-05    1.87     485.0  T
speedup 15.64
cpu  time for SCC    1.42 s
wall time for SCC    0.09 s

   *** convergence criteria satisfied after 14 iterations ***

          eigenvalues
 #    :          83         84         85         86         87         88         89         90
 occ. :        2.000      2.000      2.000      2.000      2.000      2.000      2.000      2.000
 eps  :       -11.813    -11.777    -11.683    -11.110    -11.066    -11.039    -10.943    -10.923
 #    :          91         92         93         94         95         96         97         98
 occ. :        2.000      2.000      2.000      2.000      2.000      0.000      0.000      0.000
 eps  :       -10.864    -10.631    -10.397     -9.882     -9.851     -7.977     -7.211     -6.316
 #    :          99        100        101        102        103        104        105        106
 occ. :        0.000      0.000      0.000      0.000      0.000      0.000      0.000      0.000
 eps  :        -6.085     -5.982     -4.868     -1.925     -0.568     -0.246      0.001      0.683


   #   Z            q   n(s)   n(p)   n(d)      C6AA      α(0)
   1   7 N     -0.391  1.330  4.061  0.000    30.128     8.152
   2   6 C      0.052  1.051  2.898  0.000    19.723     6.325
   3   6 C      0.219  1.080  2.700  0.000    23.371     7.917
   4   8 O     -0.414  1.754  4.660  0.000    21.972     6.285
   5   6 C     -0.109  1.069  3.040  0.000    22.580     6.766
   6   6 C      0.370  1.025  2.606  0.000    20.735     7.452
   7   8 O     -0.617  1.782  4.835  0.000    26.547     6.908
   8   8 O     -0.612  1.761  4.851  0.000    26.415     6.891
   9   1 H      0.157  0.843  0.000  0.000     1.353     1.822
  10   1 H      0.047  0.953  0.000  0.000     2.364     2.404
  11   1 H      0.035  0.965  0.000  0.000     2.520     2.483
  12   1 H      0.027  0.973  0.000  0.000     2.633     2.537
  13   7 N     -0.406  1.326  4.081  0.000    30.552     8.209
  14   6 C      0.031  1.063  2.906  0.000    20.069     6.380
  15   6 C      0.272  1.051  2.677  0.000    22.403     7.751
  16   8 O     -0.480  1.725  4.754  0.000    23.341     6.477
  17   6 C     -0.020  1.066  2.954  0.000    20.894     6.501
  18   6 C     -0.057  1.050  3.007  0.000    21.597     6.616
  19   6 C     -0.106  1.036  3.070  0.000    22.577     6.775
  20   6 C     -0.107  1.036  3.071  0.000    22.615     6.782
  21   1 H      0.179  0.821  0.000  0.000     1.221     1.731
  22   1 H      0.026  0.974  0.000  0.000     2.649     2.545
  23   1 H      0.037  0.963  0.000  0.000     2.493     2.469
  24   1 H      0.033  0.967  0.000  0.000     2.544     2.494
  25   1 H      0.036  0.964  0.000  0.000     2.506     2.475
  26   1 H      0.038  0.962  0.000  0.000     2.470     2.458
  27   1 H      0.028  0.972  0.000  0.000     2.612     2.527
  28   1 H      0.033  0.967  0.000  0.000     2.538     2.491
  29   1 H      0.043  0.957  0.000  0.000     2.412     2.429
  30   1 H      0.039  0.961  0.000  0.000     2.462     2.454
  31   1 H      0.035  0.965  0.000  0.000     2.517     2.481
  32   7 N     -0.173  1.246  3.927  0.000    24.755     7.390
  33   6 C     -0.030  1.054  2.976  0.000    21.184     6.565
  34   6 C      0.280  1.038  2.682  0.000    22.264     7.727
  35   8 O     -0.485  1.751  4.734  0.000    23.459     6.494
  36   1 H      0.207  0.793  0.000  0.000     1.071     1.621
  37   1 H      0.088  0.912  0.000  0.000     1.900     2.156
  38   1 H      0.079  0.921  0.000  0.000     1.994     2.209
  39   7 N     -0.166  1.239  3.927  0.000    24.602     7.367
  40   6 C     -0.040  1.052  2.988  0.000    21.362     6.593
  41   6 C      0.272  1.038  2.689  0.000    22.396     7.749
  42   8 O     -0.489  1.747  4.743  0.000    23.548     6.506
  43   1 H      0.223  0.777  0.000  0.000     0.998     1.565
  44   1 H      0.098  0.902  0.000  0.000     1.805     2.101
  45   1 H      0.101  0.899  0.000  0.000     1.773     2.082
  46   7 N     -0.161  1.232  3.929  0.000    24.484     7.349
  47   6 C      0.021  1.059  2.920  0.000    20.229     6.405
  48   6 C      0.196  1.089  2.715  0.000    23.818     7.993
  49   8 O     -0.373  1.760  4.612  0.000    21.142     6.165
  50   6 C     -0.075  1.056  3.019  0.000    21.919     6.664
  51   6 C     -0.080  1.054  3.026  0.000    22.019     6.681
  52   6 C     -0.094  1.052  3.042  0.000    22.288     6.721
  53   6 C     -0.052  1.059  2.993  0.000    21.602     6.635
  54   7 N     -0.145  1.229  3.916  0.000    24.134     7.296
  55   1 H      0.217  0.783  0.000  0.000     1.023     1.584
  56   1 H      0.104  0.896  0.000  0.000     1.751     2.069
  57   1 H      0.068  0.932  0.000  0.000     2.109     2.271
  58   1 H      0.067  0.933  0.000  0.000     2.113     2.273
  59   1 H      0.070  0.930  0.000  0.000     2.091     2.261
  60   1 H      0.058  0.942  0.000  0.000     2.227     2.334
  61   1 H      0.076  0.924  0.000  0.000     2.020     2.223
  62   1 H      0.087  0.913  0.000  0.000     1.912     2.162
  63   1 H      0.123  0.877  0.000  0.000     1.589     1.972
  64   1 H      0.125  0.875  0.000  0.000     1.577     1.964
  65   1 H      0.303  0.697  0.000  0.000     0.703     1.314
  66   1 H      0.290  0.710  0.000  0.000     0.745     1.352
  67   1 H      0.294  0.706  0.000  0.000     0.732     1.340
  68   1 H      0.193  0.807  0.000  0.000     1.141     1.673
  69   1 H      0.045  0.955  0.000  0.000     2.388     2.417
  70   1 H      0.180  0.820  0.000  0.000     1.212     1.724
  71   1 H      0.085  0.915  0.000  0.000     1.927     2.171

 Mol. C6AA /au·bohr⁶  :      43792.884613
 Mol. C8AA /au·bohr⁸  :     954143.676925
 Mol. α(0) /au        :        311.126543

 
molecular dipole:
                 x           y           z       tot (Debye)
 q only:       -9.501      -1.974     -12.190
   full:       -8.767      -1.899     -11.701      37.476
molecular quadrupole (traceless):
                xx          xy          yy          xz          yz          zz
 q only:    -3234.902   -2342.929    5308.253   -8840.843   -2464.508   -2073.351
  q+dip:    -2864.506   -2194.500    4987.549   -8358.538   -2377.920   -2123.043
   full:    -2865.337   -2194.141    4988.025   -8359.487   -2377.951   -2122.688
speedup 15.67
cpu  time for grad    1.55 s
wall time for grad    0.10 s

SCC energy    :    -109.4789439
rep           :       1.2940144
ES            :       0.4850574
AES           :      -0.0181129
AXC           :       0.0382122
disp          :      -0.0626014
XB            :       0.0000000
fix           :       0.0000000
Gborn         :       0.0000000
Gsasa         :       0.0000000
Ghb           :       0.0000000
Gshift        :       0.0000000
Gsolv         :      -0.1787862     -112.19
Etot ala COSMO:    -109.4789439
grad norm     :       0.3183955
total E       :    -108.1836010
atomizationE  :      19.2290586    12066.42
(atE without considering molecular charge,
 total energy contains solvation terms)
H-L gap (eV)  :          1.8743

------------------------------------------------------------------------
 * finished run on 2019/02/13 at 00:18:55.686     
------------------------------------------------------------------------
 total:
 * wall-time:     0 d,  0 h,  0 min,  0.175 sec
 *  cpu-time:     0 d,  0 h,  0 min,  2.566 sec
 * ratio c/w:    14.628 speedup
 SCF:
 * wall-time:     0 d,  0 h,  0 min,  0.110 sec
 *  cpu-time:     0 d,  0 h,  0 min,  1.727 sec
 * ratio c/w:    15.683 speedup

