      -----------------------------------------------------------      
     |                   =====================                   |     
     |                           x T B                           |     
     |                   =====================                   |     
     |                         S. Grimme                         |     
     |          Mulliken Center for Theoretical Chemistry        |     
     |                    University of Bonn                     |     
     |                 Version 6.0.1 (SAW181210)                 |     
      -----------------------------------------------------------      

   This program is distributed in the hope that it will be useful,
   but WITHOUT ANY WARRANTY; without even the implied warranty of
   MERCHANTABILITY or FITNESS FOR A PARTICULAR PURPOSE.
   
   FOR NON-COMMERCIAL, ACADEMIA USE ONLY.
   
   Cite this work as:
   S. Grimme, C. Bannwarth, P. Shushkov, J. Comput. Theory Chem., 2017,
   13, 1989-2009.
   C. Bannwarth, S. Ehlert and S. Grimme., ChemRxiv, 2018, preprint.
   http://doi.org/10.26434/chemrxiv.7246238.v1
   
   for sTDA-xTB:
   S. Grimme and C. Bannwarth, J. Chem. Phys., 2016, 145, 054103.
   
   in the mass-spec context:
   V. Asgeirsson, C. Bauer and S. Grimme, Chem. Sci., 2017, 8, 4879.
   
   if GBSA is used:
   P. Shushkov, F. März and S. Grimme, unpublished.
   
   for ANC optimizer:
   S. Grimme, unpublished.
   Rational Function algorithm used in ANCopt:
   F. Eckert, P. Pulay, H.-J. Werner, J. Comput. Chem., 1997, 18, 1473.
   
   with help from (in alphabetical order)
   C. Bannwarth, F. Bohle, G. Brandenburg, E. Caldeweyher, M. Checinski,
   S. Dohm, S. Ehlert, S. Ehrlich, F. März, H. Neugebauer, J. Pisarek,
   P. Pracht, P. Shushkov, and S. Spicher.
   
 * started run on 2019/02/13 at 00:18:51.639     
========================================================================
 # omp threads = 16
========================================================================
number of atoms            : 231
number of electrons        : 606
charge                     : 0
spin                       : .0
first test random number   : .7927

########################################################################
# WARNING! Please study the warnings concerning your input carefully
#  - Process number higher than OMP_NUM_THREADS, I hope you know what you are doing.
########################################################################

           ------------------------------------------------- 
          |                 G F N 2 - x T B                 |
          | Geometry, Frequencies, Noncovalent interactions |
          |            JCTC 2018 parametrisation            |
           ------------------------------------------------- 
 
      method parameters     
 k(s)        :  1.8500
 k(p)        :  2.2300
 k(d)        :  2.2300
 k(f)        :  2.0000
 kEN (H0ij)  : -2.0000
 D4 a1       :  0.5200
 D4 a2       :  5.0000
 D4 s6       :  1.0000
 D4 s8       :  2.7000
 D4 s9       :  5.0000
 alphaj      :  2.0000

 Solvent             : h2o
 Using internal parameter file: .param_gbsa2_h2o
 Gsolv ref. state (COSMO-RS): gsolv [1 M gas/solution]
 temperature (mdtemp)       :    298.150000000000     
 dielectric constant        :    80.2000000000000     
 rho                        :    1.00000000000000     
 mass                       :    18.0000000000000     
 surface tension            :    15.5689454083859     
 probe radius               :   0.975313790000000     
 vdW radii scaling          :    1.00000000000000     
 Gshift (Eh)                :   1.857443126794793E-003
 c1                         :    1.55243817000000     
 soset                      :   0.130326360000000     
 HB correction              :  T

            Z     q(EN)     CN     RAES       Cart. coordinates
     1  N   5.0   -0.21    3.20    1.96   407.35277   125.19395   234.51392
     2  C   4.0    0.03    4.25    4.10   409.78597   126.22046   233.84597
     3  C   4.0    0.08    3.19    3.03   412.03229   124.89999   235.09913
     4  O   6.0   -0.31    1.17    1.80   414.18748   125.44609   234.43592
     5  C   4.0   -0.03    4.30    4.20   409.86834   129.07476   234.35088
     6  C   4.0    0.15    3.24    3.04   408.25384   130.38133   232.35765
     7  O   6.0   -0.33    1.21    1.80   409.09349   130.90481   230.28141
     8  N   5.0   -0.19    3.18    1.95   405.87781   130.92664   233.05453
     9  H   1.0    0.08    1.02    1.43   406.60214   125.64483   236.20923
    10  H   1.0    0.05    1.06    1.44   410.01656   125.88971   231.80798
    11  H   1.0    0.04    1.03    1.43   409.20678   129.47499   236.25699
    12  H   1.0    0.06    1.03    1.43   411.82214   129.69303   234.13095
    13  H   1.0    0.09    1.03    1.43   404.68442   131.60503   231.73077
    14  H   1.0    0.08    1.03    1.43   405.10125   130.23156   234.64389
    15  N   5.0   -0.20    3.22    1.96   417.10943   122.67530   230.87506
    16  C   4.0    0.04    4.24    4.09   418.52585   124.45838   229.36373
    17  C   4.0    0.09    3.26    3.04   421.34209   124.13310   229.84906
    18  O   6.0   -0.27    1.11    1.80   422.85946   123.89183   228.10213
    19  C   4.0   -0.03    4.33    4.26   417.73992   127.17736   229.98788
    20  C   4.0   -0.01    3.59    3.16   419.44767   129.01558   228.65075
    21  C   4.0   -0.04    3.48    3.10   419.14011   129.44716   226.07976
    22  C   4.0   -0.04    3.46    3.10   421.36212   130.27103   229.93497
    23  C   4.0   -0.04    3.37    3.07   420.69887   131.12707   224.82191
    24  C   4.0   -0.03    3.37    3.07   422.94559   131.92425   228.66881
    25  C   4.0   -0.04    3.37    3.07   422.61893   132.35052   226.10996
    26  H   1.0    0.12    1.06    1.44   415.60706   123.33571   231.85934
    27  H   1.0    0.06    1.05    1.44   418.18632   124.05483   227.35519
    28  H   1.0    0.05    1.03    1.43   415.78464   127.43390   229.38238
    29  H   1.0    0.06    1.03    1.43   417.81421   127.44174   232.02936
    30  H   1.0    0.05    1.03    1.43   417.66490   128.46430   225.06383
    31  H   1.0    0.05    1.03    1.43   421.61443   129.94811   231.93437
    32  H   1.0    0.05    1.03    1.43   420.38224   131.48813   222.84241
    33  H   1.0    0.06    1.03    1.43   424.42969   132.88825   229.68078
    34  H   1.0    0.05    1.03    1.43   423.85768   133.63298   225.12858
    35  N   5.0   -0.20    3.24    1.96   425.12552   135.48323   234.81238
    36  C   4.0    0.03    4.31    4.21   422.45968   135.69531   235.42261
    37  C   4.0    0.15    3.37    3.07   421.17451   137.63295   233.70265
    38  O   6.0   -0.30    1.26    1.80   422.37319   139.14730   232.43344
    39  C   4.0   -0.05    4.26    4.11   422.07909   136.22484   238.26108
    40  C   4.0   -0.04    4.18    3.96   423.65584   138.42735   239.26677
    41  C   4.0   -0.05    4.18    3.96   423.63641   138.38372   242.16042
    42  C   4.0   -0.04    4.11    3.82   425.56773   140.14144   243.37205
    43  N   5.0   -0.12    3.99    2.84   428.17126   139.18365   242.93066
    44  H   1.0    0.12    1.04    1.43   426.04324   137.06863   234.25437
    45  H   1.0    0.04    1.06    1.44   421.62131   133.84416   235.00460
    46  H   1.0    0.05    1.03    1.43   420.08222   136.57506   238.62905
    47  H   1.0    0.04    1.03    1.43   422.64514   134.51008   239.26018
    48  H   1.0    0.05    1.03    1.43   425.58315   138.22827   238.55762
    49  H   1.0    0.06    1.02    1.43   422.90611   140.21281   238.54776
    50  H   1.0    0.05    1.03    1.43   421.75800   138.90605   242.81911
    51  H   1.0    0.04    1.03    1.43   424.03325   136.46277   242.79817
    52  H   1.0    0.04    1.02    1.43   425.38536   142.04793   242.61011
    53  H   1.0    0.04    1.02    1.43   425.24963   140.18466   245.40581
    54  H   1.0    0.06    1.02    1.43   429.46191   140.03963   244.08976
    55  H   1.0    0.05    0.97    1.43   428.21948   137.13068   243.23356
    56  H   1.0    0.06    1.02    1.43   428.71153   139.50133   241.09986
    57  N   5.0   -0.14    3.49    2.07   418.65380   137.34519   233.58518
    58  C   4.0    0.04    4.50    4.54   416.96054   138.94653   232.16029
    59  C   4.0    0.16    3.45    3.09   415.79376   140.89336   233.95041
    60  O   6.0   -0.29    1.23    1.80   415.10691   140.32508   236.08885
    61  C   4.0   -0.02    4.33    4.25   414.89121   137.35940   230.86603
    62  C   4.0   -0.05    4.19    3.98   416.12670   135.56095   228.95864
    63  C   4.0   -0.07    4.14    3.88   412.95068   139.10126   229.63338
    64  C   4.0   -0.08    4.01    3.64   414.27127   133.77708   227.66997
    65  H   1.0    0.08    1.07    1.44   417.80091   136.22535   234.87262
    66  H   1.0    0.07    1.07    1.44   418.08447   139.93581   230.73760
    67  H   1.0    0.05    1.05    1.44   413.93647   136.24105   232.32532
    68  H   1.0    0.04    1.03    1.43   417.10717   136.68110   227.52896
    69  H   1.0    0.05    1.03    1.43   417.55857   134.44151   229.93752
    70  H   1.0    0.04    1.00    1.43   411.63912   138.01656   228.49126
    71  H   1.0    0.07    1.00    1.43   411.84606   140.11456   231.04017
    72  H   1.0    0.05    1.00    1.43   413.89503   140.48723   228.44603
    73  H   1.0    0.04    1.01    1.43   415.31917   132.36216   226.61483
    74  H   1.0    0.06    1.00    1.43   413.08451   132.82715   229.05077
    75  H   1.0    0.03    1.00    1.43   413.05215   134.78947   226.36674
    76  N   5.0   -0.14    3.49    2.07   415.54645   143.20842   232.96211
    77  C   4.0    0.04    4.40    4.39   415.14834   145.42388   234.52422
    78  C   4.0    0.15    3.38    3.07   412.61532   146.70879   233.87957
    79  O   6.0   -0.30    1.24    1.80   412.51640   148.73548   232.78168
    80  C   4.0   -0.02    4.28    4.16   417.33598   147.25467   234.13166
    81  C   4.0    0.25    3.11    3.03   419.99887   145.98373   234.29838
    82  O   6.0   -0.28    1.17    1.80   420.36365   144.34143   235.92782
    83  O   6.0   -0.31    1.25    1.80   421.59469   146.82274   232.76134
    84  H   1.0    0.11    1.10    1.44   416.32548   143.52326   231.24036
    85  H   1.0    0.07    1.06    1.44   415.08809   144.75341   236.48519
    86  H   1.0    0.06    1.03    1.43   417.16820   148.10718   232.26481
    87  H   1.0    0.05    1.02    1.43   417.25575   148.73691   235.56245
    88  N   5.0   -0.13    3.36    2.01   410.56753   145.48267   234.74702
    89  C   4.0    0.02    4.24    4.07   408.01078   146.32447   234.26033
    90  C   4.0    0.16    3.36    3.07   406.49995   144.36457   232.76308
    91  O   6.0   -0.28    1.26    1.80   407.39887   142.30618   232.21728
    92  H   1.0    0.10    1.07    1.44   410.76735   143.69212   235.37902
    93  H   1.0    0.05    1.02    1.43   407.03819   146.70049   236.04691
    94  H   1.0    0.07    1.04    1.43   408.12892   148.07182   233.16697
    95  N   5.0   -0.12    3.48    2.07   404.16584   145.10172   232.09018
    96  C   4.0    0.04    4.43    4.43   402.63404   143.47905   230.50483
    97  C   4.0    0.16    3.54    3.13   404.13140   142.88574   228.11951
    98  O   6.0   -0.27    1.28    1.80   405.83575   144.27769   227.37588
    99  C   4.0   -0.02    4.29    4.18   400.21426   144.81733   229.66550
   100  C   4.0    0.25    3.11    3.03   398.47576   145.55985   231.87811
   101  O   6.0   -0.28    1.21    1.80   399.39911   146.52137   233.80049
   102  O   6.0   -0.26    1.17    1.80   396.15407   145.13272   231.55300
   103  H   1.0    0.10    1.08    1.44   403.21934   146.52627   232.95437
   104  H   1.0    0.05    1.05    1.44   402.16540   141.70939   231.48572
   105  H   1.0    0.07    1.02    1.43   400.68869   146.53931   228.62152
   106  H   1.0    0.06    1.03    1.43   399.13824   143.58940   228.40991
   107  N   5.0   -0.14    3.49    2.07   403.48446   140.79173   226.88455
   108  C   4.0    0.04    4.36    4.31   404.53988   140.37247   224.38963
   109  C   4.0    0.09    3.23    3.04   403.25174   142.23292   222.57431
   110  O   6.0   -0.27    1.14    1.80   401.08070   142.96024   222.93853
   111  C   4.0   -0.05    4.33    4.26   404.21140   137.64866   223.50094
   112  C   4.0   -0.03    4.18    3.95   406.19302   135.84038   224.59883
   113  C   4.0   -0.07    4.12    3.83   406.05813   135.71252   227.47660
   114  C   4.0   -0.08    4.10    3.81   405.82435   133.21355   223.46300
   115  H   1.0    0.08    1.06    1.44   401.86510   139.88204   227.33950
   116  H   1.0    0.05    1.06    1.44   406.55147   140.84436   224.49736
   117  H   1.0    0.05    1.03    1.43   402.31923   137.00337   224.00536
   118  H   1.0    0.04    1.03    1.43   404.36332   137.63285   221.44368
   119  H   1.0    0.03    1.05    1.44   408.06358   136.53598   224.05502
   120  H   1.0    0.06    1.01    1.43   407.34255   134.26842   228.17451
   121  H   1.0    0.05    1.00    1.43   406.57349   137.50230   228.34178
   122  H   1.0    0.05    1.00    1.43   404.14944   135.23600   228.07539
   123  H   1.0    0.04    1.00    1.43   407.23314   131.92027   224.20501
   124  H   1.0    0.04    1.00    1.43   403.96707   132.47962   223.94441
   125  H   1.0    0.04    1.00    1.43   405.98429   133.26710   221.41693
   126  N   5.0   -0.20    3.22    1.96   413.62291   141.44911   218.78723
   127  C   4.0    0.03    4.25    4.09   414.11000   141.75334   221.45633
   128  C   4.0    0.15    3.44    3.09   416.29409   143.59972   221.81975
   129  O   6.0   -0.30    1.23    1.80   418.16736   143.51862   220.47378
   130  C   4.0   -0.08    4.11    3.82   414.87071   139.22846   222.65726
   131  H   1.0    0.10    1.03    1.43   415.13216   141.16020   217.64564
   132  H   1.0    0.04    1.05    1.44   412.35790   142.44730   222.30525
   133  H   1.0    0.04    1.00    1.43   415.36453   139.48622   224.63189
   134  H   1.0    0.03    1.00    1.43   413.31438   137.89982   222.49897
   135  H   1.0    0.04    1.00    1.43   416.50059   138.45613   221.67216
   136  N   5.0   -0.14    3.45    2.05   415.95657   145.28924   223.69925
   137  C   4.0    0.03    4.46    4.48   418.13336   146.59650   224.76001
   138  C   4.0    0.15    3.45    3.10   419.38428   144.71046   226.56703
   139  O   6.0   -0.32    1.28    1.80   418.08085   143.50484   228.07081
   140  C   4.0   -0.04    4.25    4.09   417.42663   149.03053   226.13744
   141  C   4.0   -0.05    4.20    4.01   419.85222   150.47413   226.77171
   142  C   4.0   -0.05    4.16    3.92   419.39088   153.18391   227.66184
   143  C   4.0   -0.03    4.12    3.85   418.21700   153.26740   230.29455
   144  N   5.0   -0.12    4.01    2.89   418.21343   155.91656   231.26762
   145  H   1.0    0.09    1.07    1.44   414.58909   144.88627   224.97565
   146  H   1.0    0.05    1.07    1.44   419.41808   147.01610   223.20489
   147  H   1.0    0.05    1.03    1.43   416.26267   150.16964   224.88028
   148  H   1.0    0.06    1.03    1.43   416.39295   148.56034   227.85813
   149  H   1.0    0.06    1.03    1.43   420.92179   149.44079   228.20580
   150  H   1.0    0.05    1.03    1.43   421.02463   150.53086   225.07577
   151  H   1.0    0.04    1.03    1.43   421.22862   154.11674   227.71525
   152  H   1.0    0.04    1.02    1.43   418.20572   154.16207   226.28828
   153  H   1.0    0.05    1.02    1.43   416.27803   152.56915   230.26032
   154  H   1.0    0.05    1.02    1.43   419.32744   152.07200   231.55860
   155  H   1.0    0.06    1.02    1.43   417.38398   155.98311   233.02372
   156  H   1.0    0.06    1.02    1.43   420.04510   156.56308   231.40624
   157  H   1.0    0.06    1.02    1.43   417.22593   157.05393   230.03007
   158  N   5.0   -0.14    3.49    2.07   421.83970   144.39608   226.20532
   159  C   4.0    0.04    4.52    4.57   423.37674   142.63380   227.58985
   160  C   4.0    0.15    3.45    3.10   425.60066   144.04080   228.75521
   161  O   6.0   -0.29    1.22    1.80   426.77692   145.65465   227.57127
   162  C   4.0   -0.02    4.28    4.15   424.40490   140.56377   225.81293
   163  C   4.0   -0.07    4.13    3.85   426.14661   138.76304   227.23754
   164  C   4.0   -0.07    4.12    3.84   422.20281   139.13102   224.62070
   165  H   1.0    0.09    1.07    1.44   422.76947   145.52906   224.97031
   166  H   1.0    0.07    1.07    1.44   422.22766   141.78826   229.08093
   167  H   1.0    0.05    1.05    1.44   425.50451   141.52380   224.34171
   168  H   1.0    0.04    1.00    1.43   426.75939   137.24375   225.99878
   169  H   1.0    0.05    1.00    1.43   427.82798   139.74332   227.89980
   170  H   1.0    0.06    1.00    1.43   425.16868   137.96808   228.86052
   171  H   1.0    0.04    1.00    1.43   422.90343   137.66289   223.36786
   172  H   1.0    0.04    1.00    1.43   421.07993   138.24442   226.09615
   173  H   1.0    0.06    1.00    1.43   421.01049   140.40505   223.53461
   174  N   5.0   -0.13    3.49    2.07   426.14097   143.27980   231.09180
   175  C   4.0    0.04    4.36    4.32   428.34595   144.05349   232.48589
   176  C   4.0    0.07    3.25    3.04   429.92229   141.70349   233.02030
   177  O   6.0   -0.30    1.15    1.80   428.98892   139.85182   234.07716
   178  C   4.0    0.07    4.23    4.06   427.59527   145.33141   235.00634
   179  O   6.0   -0.24    2.11    1.84   426.29593   147.60375   234.58786
   180  C   4.0   -0.07    4.10    3.80   429.96902   145.89922   236.54791
   181  H   1.0    0.11    1.09    1.44   425.02012   141.96764   231.91842
   182  H   1.0    0.06    1.06    1.44   429.41240   145.39558   231.33163
   183  H   1.0    0.06    1.03    1.43   426.36225   143.99850   236.03630
   184  H   1.0    0.16    1.08    1.44   424.63458   147.22491   233.81417
   185  H   1.0    0.05    1.00    1.43   429.46385   147.04659   238.17116
   186  H   1.0    0.05    1.00    1.43   430.85134   144.14618   237.14877
   187  H   1.0    0.05    1.00    1.43   431.29696   146.94172   235.37429
   188  N   5.0   -0.19    3.24    1.97   414.52005   132.80668   213.88115
   189  C   4.0    0.03    4.29    4.17   413.99974   130.55587   215.34097
   190  C   4.0    0.08    3.22    3.04   411.77793   129.14514   214.14639
   191  O   6.0   -0.28    1.13    1.80   410.17287   130.19237   212.85183
   192  C   4.0   -0.03    4.24    4.08   413.55964   131.12729   218.17786
   193  C   4.0   -0.08    4.13    3.86   415.73836   132.70780   219.22000
   194  C   4.0   -0.07    4.11    3.83   411.05815   132.46536   218.66767
   195  H   1.0    0.10    1.03    1.43   413.00176   133.79575   213.24456
   196  H   1.0    0.04    1.06    1.44   415.66276   129.33216   215.22211
   197  H   1.0    0.03    1.05    1.44   413.54127   129.29055   219.12725
   198  H   1.0    0.03    1.00    1.43   415.56537   132.87653   221.25834
   199  H   1.0    0.04    1.00    1.43   417.54648   131.84252   218.77489
   200  H   1.0    0.04    1.00    1.43   415.71513   134.58967   218.39145
   201  H   1.0    0.03    1.00    1.43   410.88858   132.89987   220.66624
   202  H   1.0    0.04    1.00    1.43   410.95859   134.22264   217.60523
   203  H   1.0    0.05    1.00    1.43   409.47476   131.27282   218.12926
   204  N   5.0   -0.19    3.23    1.96   408.43038   121.11471   225.93887
   205  C   4.0    0.03    4.29    4.18   409.72256   123.03887   224.47446
   206  C   4.0    0.08    3.24    3.04   412.49950   122.33043   224.11735
   207  O   6.0   -0.29    1.12    1.80   413.83664   121.66031   225.90652
   208  C   4.0   -0.02    4.28    4.15   409.59850   125.59134   225.88467
   209  C   4.0   -0.08    4.12    3.84   411.16011   127.61790   224.55521
   210  C   4.0   -0.08    4.12    3.83   406.86544   126.45637   226.16874
   211  H   1.0    0.09    1.02    1.43   408.91691   120.96150   227.78052
   212  H   1.0    0.04    1.05    1.44   408.78690   123.16606   222.63707
   213  H   1.0    0.05    1.06    1.44   410.38696   125.24731   227.77033
   214  H   1.0    0.04    1.00    1.43   410.99619   129.37804   225.60110
   215  H   1.0    0.04    1.00    1.43   413.13991   127.07942   224.47526
   216  H   1.0    0.03    1.00    1.43   410.47431   127.88839   222.63804
   217  H   1.0    0.05    1.00    1.43   406.81429   128.18142   227.28169
   218  H   1.0    0.04    1.00    1.43   406.04267   126.82326   224.32198
   219  H   1.0    0.04    1.00    1.43   405.72544   125.02229   227.10588
   220  H   1.0    0.09    1.08    1.44   406.19150   125.70221   233.38003
   221  H   1.0    0.06    1.04    1.43   411.73736   123.60605   236.44442
   222  H   1.0    0.11    1.07    1.44   416.48155   121.45371   229.87204
   223  H   1.0    0.06    1.05    1.44   421.99928   124.11170   231.62070
   224  H   1.0    0.09    1.08    1.44   425.97838   134.93352   236.17730
   225  H   1.0    0.06    1.04    1.43   404.18384   142.87509   221.06107
   226  H   1.0    0.09    1.08    1.44   412.60953   140.10494   218.54466
   227  H   1.0    0.05    1.04    1.43   431.74138   141.65009   232.51127
   228  H   1.0    0.09    1.09    1.44   415.41834   133.90016   214.82451
   229  H   1.0    0.05    1.05    1.44   411.58973   127.28325   214.40912
   230  H   1.0    0.09    1.08    1.44   406.75766   121.42211   225.92967
   231  H   1.0    0.05    1.04    1.44   413.27956   122.40310   222.39767

  Z AO/shell   Hii/eV     exponent
  1     Wed Apr 25 08:07:45 CEST 2018   EN: 2.200 GM2: 0.406  GM3: 0.0800  RAES: 1.40
     1s    -10.707211    1.230000
  6     Wed Apr 25 08:07:45 CEST 2018   EN: 2.550 GM2: 0.538  GM3: 0.1500  RAES: 3.00
     2s    -13.970922    2.096432
     2p    -10.063292    1.800000
  7     Wed Apr 25 08:07:45 CEST 2018   EN: 3.040 GM2: 0.461  GM3:-0.0640  RAES: 1.90
     2s    -16.686243    2.339881
     2p    -12.523956    2.014332
  8     Wed Apr 25 08:07:45 CEST 2018   EN: 3.440 GM2: 0.452  GM3:-0.0517  RAES: 1.80
     2s    -20.229985    2.439742
     2p    -15.503117    2.137023
 no old-style atom pair restraining (fixing) potential

molecular fragmentation (1/2 indicates fragments):
111111111111112222222222222222222222222222222222222222222222222222222222
222222222222222222222222222222222222222222222222222222222222222222222222
222222222222222222222222222222222222222222222222222222222222222222222222
222112222222222
# atoms in fragment 1/2:    16   215
 fragment masses (1/2) :      116.12     1396.73
CMA distance (Bohr)    :  13.497
constraining FC (au)   :  0.0500
           ------------------------------------------------- 
          |        Self-Consistent Charge Iterations        |
           ------------------------------------------------- 

 Ncao       : 549
 Nao        : 549
 Nshell     : 337
 Nel        : 606
 T(el)      :   500.0
 intcut     :    35.0
 scfconv/Eh :  0.100E-06
   qconv/e  :  0.100E-04
 intneglect :  0.100E-08
 broydamp   :      0.400
 iter      E             dE          RMSdq      gap      omega  full diag
   1   -345.8271722 -0.345827E+03  0.457E+00    3.56       0.0  T
   2   -346.6832385 -0.856066E+00  0.213E+00    1.78       1.0  T
   3   -346.7387228 -0.554842E-01  0.125E+00    1.90       1.0  T
   4   -346.7934342 -0.547114E-01  0.247E-01    1.37       1.0  T
   5   -346.7967471 -0.331292E-02  0.119E-01    1.59       1.0  T
   6   -346.7973041 -0.556939E-03  0.503E-02    1.57       1.0  T
   7   -346.7974239 -0.119810E-03  0.200E-02    1.56       1.0  T
   8   -346.7974445 -0.206481E-04  0.932E-03    1.56       1.0  T
   9   -346.7974506 -0.602213E-05  0.425E-03    1.56       1.5  T
  10   -346.7974515 -0.913207E-06  0.164E-03    1.56       4.0  T
  11   -346.7974516 -0.107933E-06  0.709E-04    1.56       9.3  T
  12   -346.7974516 -0.194693E-07  0.324E-04    1.56      20.3  T
  13   -346.7974516 -0.906567E-08  0.142E-04    1.56      46.2  T
  14   -346.7974516 -0.754653E-09  0.711E-05    1.56      92.5  T
  15   -346.7974516 -0.293312E-09  0.261E-05    1.56     252.0  T
speedup 15.94
cpu  time for SCC   14.88 s
wall time for SCC    0.93 s

   *** convergence criteria satisfied after 15 iterations ***

          eigenvalues
 #    :         291        292        293        294        295        296        297        298
 occ. :        2.000      2.000      2.000      2.000      2.000      2.000      2.000      2.000
 eps  :       -10.768    -10.705    -10.661    -10.537    -10.511    -10.464    -10.088    -10.050
 #    :         299        300        301        302        303        304        305        306
 occ. :        2.000      2.000      2.000      2.000      2.000      0.000      0.000      0.000
 eps  :       -10.028    -10.021     -9.956     -9.825     -9.798     -8.238     -8.051     -8.034
 #    :         307        308        309        310        311        312        313        314
 occ. :        0.000      0.000      0.000      0.000      0.000      0.000      0.000      0.000
 eps  :        -7.851     -7.661     -7.571     -6.400     -6.359     -6.232     -6.181     -6.136


   #   Z            q   n(s)   n(p)   n(d)      C6AA      α(0)
   1   7 N     -0.389  1.309  4.079  0.000    30.059     8.143
   2   6 C      0.047  1.053  2.900  0.000    19.799     6.338
   3   6 C      0.190  1.090  2.719  0.000    23.925     8.010
   4   8 O     -0.363  1.756  4.607  0.000    20.951     6.137
   5   6 C     -0.101  1.063  3.038  0.000    22.419     6.740
   6   6 C      0.288  1.035  2.676  0.000    22.111     7.699
   7   8 O     -0.476  1.744  4.731  0.000    23.252     6.465
   8   7 N     -0.284  1.269  4.015  0.000    27.343     7.766
   9   1 H      0.171  0.829  0.000  0.000     1.266     1.763
  10   1 H      0.074  0.926  0.000  0.000     2.043     2.236
  11   1 H      0.063  0.937  0.000  0.000     2.161     2.299
  12   1 H      0.074  0.926  0.000  0.000     2.043     2.235
  13   1 H      0.218  0.782  0.000  0.000     1.020     1.582
  14   1 H      0.224  0.776  0.000  0.000     0.992     1.560
  15   7 N     -0.386  1.308  4.078  0.000    29.982     8.132
  16   6 C      0.053  1.052  2.895  0.000    19.708     6.323
  17   6 C      0.204  1.093  2.703  0.000    23.665     7.967
  18   8 O     -0.389  1.763  4.627  0.000    21.471     6.213
  19   6 C     -0.071  1.056  3.015  0.000    21.843     6.652
  20   6 C      0.008  1.085  2.907  0.000    27.831     8.653
  21   6 C     -0.038  1.078  2.960  0.000    28.944     8.823
  22   6 C     -0.044  1.081  2.963  0.000    29.090     8.845
  23   6 C     -0.034  1.080  2.955  0.000    28.855     8.809
  24   6 C     -0.033  1.082  2.952  0.000    28.832     8.805
  25   6 C     -0.036  1.079  2.957  0.000    28.900     8.816
  26   1 H      0.173  0.827  0.000  0.000     1.254     1.754
  27   1 H      0.037  0.963  0.000  0.000     2.485     2.465
  28   1 H      0.056  0.944  0.000  0.000     2.241     2.341
  29   1 H      0.067  0.933  0.000  0.000     2.123     2.278
  30   1 H      0.028  0.972  0.000  0.000     2.611     2.527
  31   1 H      0.033  0.967  0.000  0.000     2.550     2.497
  32   1 H      0.037  0.963  0.000  0.000     2.490     2.467
  33   1 H      0.044  0.956  0.000  0.000     2.396     2.421
  34   1 H      0.036  0.964  0.000  0.000     2.503     2.474
  35   7 N     -0.391  1.318  4.072  0.000    30.120     8.151
  36   6 C      0.028  1.060  2.912  0.000    20.118     6.389
  37   6 C      0.279  1.046  2.675  0.000    22.282     7.729
  38   8 O     -0.489  1.741  4.748  0.000    23.548     6.506
  39   6 C     -0.077  1.060  3.017  0.000    21.976     6.674
  40   6 C     -0.067  1.046  3.021  0.000    21.793     6.647
  41   6 C     -0.091  1.056  3.035  0.000    22.234     6.713
  42   6 C     -0.048  1.057  2.990  0.000    21.528     6.623
  43   7 N     -0.141  1.236  3.904  0.000    24.032     7.281
  44   1 H      0.163  0.837  0.000  0.000     1.317     1.798
  45   1 H      0.043  0.957  0.000  0.000     2.408     2.427
  46   1 H      0.027  0.973  0.000  0.000     2.625     2.534
  47   1 H      0.064  0.936  0.000  0.000     2.156     2.296
  48   1 H      0.057  0.943  0.000  0.000     2.236     2.338
  49   1 H      0.033  0.967  0.000  0.000     2.546     2.495
  50   1 H      0.073  0.927  0.000  0.000     2.048     2.238
  51   1 H      0.081  0.919  0.000  0.000     1.966     2.193
  52   1 H      0.111  0.889  0.000  0.000     1.688     2.032
  53   1 H      0.125  0.875  0.000  0.000     1.572     1.961
  54   1 H      0.308  0.692  0.000  0.000     0.691     1.302
  55   1 H      0.307  0.693  0.000  0.000     0.693     1.305
  56   1 H      0.276  0.724  0.000  0.000     0.790     1.392
  57   7 N     -0.186  1.251  3.935  0.000    25.036     7.431
  58   6 C      0.029  1.061  2.910  0.000    20.088     6.382
  59   6 C      0.284  1.044  2.672  0.000    22.194     7.715
  60   8 O     -0.504  1.743  4.761  0.000    23.867     6.550
  61   6 C     -0.015  1.065  2.950  0.000    20.804     6.487
  62   6 C     -0.055  1.049  3.006  0.000    21.565     6.611
  63   6 C     -0.109  1.036  3.074  0.000    22.648     6.786
  64   6 C     -0.111  1.036  3.075  0.000    22.678     6.791
  65   1 H      0.198  0.802  0.000  0.000     1.114     1.653
  66   1 H      0.062  0.938  0.000  0.000     2.175     2.306
  67   1 H      0.037  0.963  0.000  0.000     2.492     2.469
  68   1 H      0.028  0.972  0.000  0.000     2.609     2.526
  69   1 H      0.034  0.966  0.000  0.000     2.534     2.489
  70   1 H      0.063  0.937  0.000  0.000     2.159     2.298
  71   1 H      0.028  0.972  0.000  0.000     2.615     2.529
  72   1 H      0.033  0.967  0.000  0.000     2.547     2.496
  73   1 H      0.047  0.953  0.000  0.000     2.354     2.399
  74   1 H      0.052  0.948  0.000  0.000     2.296     2.369
  75   1 H      0.040  0.960  0.000  0.000     2.444     2.445
  76   7 N     -0.197  1.264  3.933  0.000    25.282     7.468
  77   6 C      0.035  1.058  2.907  0.000    19.990     6.367
  78   6 C      0.265  1.050  2.685  0.000    22.521     7.771
  79   8 O     -0.462  1.731  4.731  0.000    22.957     6.424
  80   6 C     -0.102  1.068  3.034  0.000    22.451     6.746
  81   6 C      0.372  1.022  2.605  0.000    20.690     7.444
  82   8 O     -0.618  1.768  4.850  0.000    26.564     6.910
  83   8 O     -0.620  1.764  4.857  0.000    26.628     6.918
  84   1 H      0.212  0.788  0.000  0.000     1.049     1.604
  85   1 H      0.061  0.939  0.000  0.000     2.186     2.312
  86   1 H      0.049  0.951  0.000  0.000     2.338     2.391
  87   1 H      0.050  0.950  0.000  0.000     2.324     2.384
  88   7 N     -0.160  1.237  3.924  0.000    24.465     7.346
  89   6 C     -0.035  1.052  2.983  0.000    21.272     6.580
  90   6 C      0.282  1.039  2.679  0.000    22.227     7.720
  91   8 O     -0.486  1.743  4.743  0.000    23.481     6.497
  92   1 H      0.199  0.801  0.000  0.000     1.111     1.651
  93   1 H      0.085  0.915  0.000  0.000     1.926     2.170
  94   1 H      0.105  0.895  0.000  0.000     1.738     2.062
  95   7 N     -0.184  1.247  3.936  0.000    24.982     7.423
  96   6 C      0.044  1.053  2.903  0.000    19.829     6.340
  97   6 C      0.283  1.041  2.677  0.000    22.218     7.720
  98   8 O     -0.499  1.747  4.753  0.000    23.770     6.537
  99   6 C     -0.093  1.068  3.025  0.000    22.265     6.717
 100   6 C      0.372  1.021  2.608  0.000    20.703     7.446
 101   8 O     -0.618  1.761  4.857  0.000    26.561     6.910
 102   8 O     -0.650  1.780  4.870  0.000    27.387     7.016
 103   1 H      0.216  0.784  0.000  0.000     1.027     1.587
 104   1 H      0.037  0.963  0.000  0.000     2.487     2.466
 105   1 H      0.035  0.965  0.000  0.000     2.520     2.483
 106   1 H      0.040  0.960  0.000  0.000     2.444     2.445
 107   7 N     -0.162  1.245  3.918  0.000    24.507     7.352
 108   6 C      0.031  1.059  2.910  0.000    20.047     6.375
 109   6 C      0.200  1.089  2.711  0.000    23.746     7.981
 110   8 O     -0.377  1.763  4.614  0.000    21.226     6.177
 111   6 C     -0.075  1.060  3.015  0.000    21.922     6.665
 112   6 C     -0.008  1.058  2.951  0.000    20.693     6.470
 113   6 C     -0.120  1.039  3.081  0.000    22.852     6.816
 114   6 C     -0.122  1.042  3.080  0.000    22.892     6.822
 115   1 H      0.201  0.799  0.000  0.000     1.102     1.645
 116   1 H      0.092  0.908  0.000  0.000     1.856     2.131
 117   1 H      0.064  0.936  0.000  0.000     2.151     2.294
 118   1 H      0.068  0.932  0.000  0.000     2.107     2.270
 119   1 H      0.034  0.966  0.000  0.000     2.529     2.487
 120   1 H      0.066  0.934  0.000  0.000     2.126     2.280
 121   1 H      0.028  0.972  0.000  0.000     2.617     2.530
 122   1 H      0.032  0.968  0.000  0.000     2.557     2.501
 123   1 H      0.061  0.939  0.000  0.000     2.187     2.312
 124   1 H      0.046  0.954  0.000  0.000     2.375     2.410
 125   1 H      0.045  0.955  0.000  0.000     2.388     2.416
 126   7 N     -0.391  1.318  4.073  0.000    30.131     8.152
 127   6 C      0.035  1.055  2.910  0.000    20.003     6.370
 128   6 C      0.277  1.047  2.676  0.000    22.314     7.736
 129   8 O     -0.477  1.744  4.733  0.000    23.288     6.470
 130   6 C     -0.113  1.042  3.071  0.000    22.711     6.794
 131   1 H      0.162  0.838  0.000  0.000     1.321     1.800
 132   1 H      0.037  0.963  0.000  0.000     2.496     2.471
 133   1 H      0.035  0.965  0.000  0.000     2.513     2.479
 134   1 H      0.055  0.945  0.000  0.000     2.256     2.349
 135   1 H      0.050  0.950  0.000  0.000     2.319     2.381
 136   7 N     -0.191  1.274  3.917  0.000    25.146     7.448
 137   6 C      0.020  1.063  2.916  0.000    20.232     6.404
 138   6 C      0.278  1.041  2.681  0.000    22.298     7.733
 139   8 O     -0.514  1.744  4.770  0.000    24.092     6.581
 140   6 C     -0.078  1.055  3.023  0.000    21.981     6.675
 141   6 C     -0.071  1.049  3.021  0.000    21.846     6.654
 142   6 C     -0.093  1.055  3.038  0.000    22.275     6.719
 143   6 C     -0.044  1.058  2.986  0.000    21.453     6.612
 144   7 N     -0.150  1.233  3.917  0.000    24.240     7.312
 145   1 H      0.196  0.804  0.000  0.000     1.129     1.664
 146   1 H      0.071  0.929  0.000  0.000     2.079     2.255
 147   1 H      0.080  0.920  0.000  0.000     1.981     2.201
 148   1 H      0.048  0.952  0.000  0.000     2.350     2.397
 149   1 H      0.044  0.956  0.000  0.000     2.393     2.419
 150   1 H      0.055  0.945  0.000  0.000     2.257     2.349
 151   1 H      0.089  0.911  0.000  0.000     1.888     2.149
 152   1 H      0.087  0.913  0.000  0.000     1.908     2.160
 153   1 H      0.108  0.892  0.000  0.000     1.715     2.048
 154   1 H      0.103  0.897  0.000  0.000     1.756     2.072
 155   1 H      0.302  0.698  0.000  0.000     0.707     1.318
 156   1 H      0.303  0.697  0.000  0.000     0.703     1.314
 157   1 H      0.306  0.694  0.000  0.000     0.696     1.307
 158   7 N     -0.159  1.244  3.916  0.000    24.447     7.343
 159   6 C      0.023  1.060  2.917  0.000    20.179     6.395
 160   6 C      0.278  1.040  2.683  0.000    22.301     7.733
 161   8 O     -0.496  1.743  4.753  0.000    23.691     6.526
 162   6 C     -0.013  1.063  2.951  0.000    20.774     6.482
 163   6 C     -0.115  1.039  3.076  0.000    22.753     6.801
 164   6 C     -0.106  1.037  3.068  0.000    22.573     6.774
 165   1 H      0.211  0.789  0.000  0.000     1.052     1.607
 166   1 H      0.074  0.926  0.000  0.000     2.044     2.236
 167   1 H      0.042  0.958  0.000  0.000     2.425     2.435
 168   1 H      0.060  0.940  0.000  0.000     2.200     2.320
 169   1 H      0.029  0.971  0.000  0.000     2.602     2.523
 170   1 H      0.056  0.944  0.000  0.000     2.250     2.346
 171   1 H      0.056  0.944  0.000  0.000     2.250     2.346
 172   1 H      0.038  0.962  0.000  0.000     2.479     2.462
 173   1 H      0.033  0.967  0.000  0.000     2.542     2.494
 174   7 N     -0.162  1.241  3.922  0.000    24.514     7.353
 175   6 C      0.015  1.062  2.923  0.000    20.331     6.421
 176   6 C      0.188  1.092  2.720  0.000    23.980     8.020
 177   8 O     -0.353  1.744  4.609  0.000    20.765     6.110
 178   6 C      0.133  1.042  2.825  0.000    18.515     6.144
 179   8 O     -0.481  1.717  4.764  0.000    22.487     6.401
 180   6 C     -0.138  1.047  3.091  0.000    23.209     6.870
 181   1 H      0.216  0.784  0.000  0.000     1.026     1.586
 182   1 H      0.083  0.917  0.000  0.000     1.947     2.182
 183   1 H      0.024  0.976  0.000  0.000     2.672     2.556
 184   1 H      0.318  0.682  0.000  0.000     0.670     1.286
 185   1 H      0.084  0.916  0.000  0.000     1.935     2.176
 186   1 H      0.062  0.938  0.000  0.000     2.180     2.309
 187   1 H      0.063  0.937  0.000  0.000     2.159     2.298
 188   7 N     -0.385  1.318  4.067  0.000    29.962     8.129
 189   6 C      0.032  1.061  2.907  0.000    20.048     6.378
 190   6 C      0.200  1.084  2.715  0.000    23.732     7.978
 191   8 O     -0.381  1.759  4.622  0.000    21.304     6.188
 192   6 C     -0.017  1.064  2.953  0.000    20.842     6.494
 193   6 C     -0.111  1.038  3.072  0.000    22.667     6.788
 194   6 C     -0.108  1.035  3.072  0.000    22.613     6.780
 195   1 H      0.159  0.841  0.000  0.000     1.344     1.816
 196   1 H      0.063  0.937  0.000  0.000     2.168     2.302
 197   1 H      0.038  0.962  0.000  0.000     2.474     2.460
 198   1 H      0.054  0.946  0.000  0.000     2.265     2.353
 199   1 H      0.043  0.957  0.000  0.000     2.404     2.425
 200   1 H      0.040  0.960  0.000  0.000     2.443     2.444
 201   1 H      0.054  0.946  0.000  0.000     2.273     2.358
 202   1 H      0.040  0.960  0.000  0.000     2.451     2.448
 203   1 H      0.030  0.970  0.000  0.000     2.583     2.513
 204   7 N     -0.385  1.319  4.067  0.000    29.966     8.130
 205   6 C      0.034  1.060  2.906  0.000    20.013     6.372
 206   6 C      0.202  1.090  2.709  0.000    23.710     7.975
 207   8 O     -0.378  1.759  4.620  0.000    21.255     6.181
 208   6 C     -0.008  1.064  2.944  0.000    20.691     6.469
 209   6 C     -0.114  1.039  3.076  0.000    22.741     6.800
 210   6 C     -0.116  1.040  3.076  0.000    22.771     6.804
 211   1 H      0.160  0.840  0.000  0.000     1.334     1.809
 212   1 H      0.054  0.946  0.000  0.000     2.267     2.354
 213   1 H      0.028  0.972  0.000  0.000     2.611     2.527
 214   1 H      0.060  0.940  0.000  0.000     2.196     2.317
 215   1 H      0.025  0.975  0.000  0.000     2.651     2.546
 216   1 H      0.047  0.953  0.000  0.000     2.361     2.403
 217   1 H      0.055  0.945  0.000  0.000     2.260     2.351
 218   1 H      0.046  0.954  0.000  0.000     2.369     2.407
 219   1 H      0.039  0.961  0.000  0.000     2.467     2.456
 220   1 H      0.182  0.818  0.000  0.000     1.203     1.718
 221   1 H      0.087  0.913  0.000  0.000     1.903     2.157
 222   1 H      0.182  0.818  0.000  0.000     1.205     1.719
 223   1 H      0.077  0.923  0.000  0.000     2.014     2.219
 224   1 H      0.198  0.802  0.000  0.000     1.118     1.656
 225   1 H      0.086  0.914  0.000  0.000     1.922     2.168
 226   1 H      0.185  0.815  0.000  0.000     1.186     1.706
 227   1 H      0.091  0.909  0.000  0.000     1.867     2.137
 228   1 H      0.185  0.815  0.000  0.000     1.183     1.704
 229   1 H      0.061  0.939  0.000  0.000     2.181     2.309
 230   1 H      0.187  0.813  0.000  0.000     1.172     1.696
 231   1 H      0.066  0.934  0.000  0.000     2.132     2.283

 Mol. C6AA /au·bohr⁶  :     465835.524318
 Mol. C8AA /au·bohr⁸  :   10215530.162473
 Mol. α(0) /au        :       1020.335875

 
molecular dipole:
                 x           y           z       tot (Debye)
 q only:       21.319       2.072      11.329
   full:       19.712       2.331      12.018      58.980
molecular quadrupole (traceless):
                xx          xy          yy          xz          yz          zz
 q only:    14549.187    6016.212  -10718.859   14675.919    3029.187   -3830.329
  q+dip:    13037.174    5851.201  -10160.777   14542.086    3256.584   -2876.397
   full:    13035.087    5850.424  -10156.310   14544.060    3261.930   -2878.777
speedup 15.94
cpu  time for grad   16.00 s
wall time for grad    1.00 s

SCC energy    :    -346.8071371
rep           :       4.2888040
ES            :       1.1806330
AES           :      -0.0415386
AXC           :       0.1289909
disp          :      -0.2680058
XB            :       0.0000000
fix           :       0.0000000
Gborn         :       0.0000000
Gsasa         :       0.0000000
Ghb           :       0.0000000
Gshift        :       0.0000000
Gsolv         :      -0.3391205     -212.80
Etot ala COSMO:    -346.8071371
grad norm     :       0.5561245
total E       :    -342.4969881
atomizationE  :      62.9956044    39530.34
(atE without considering molecular charge,
 total energy contains solvation terms)
H-L gap (eV)  :          1.5602

------------------------------------------------------------------------
 * finished run on 2019/02/13 at 00:18:52.858     
------------------------------------------------------------------------
 total:
 * wall-time:     0 d,  0 h,  0 min,  1.217 sec
 *  cpu-time:     0 d,  0 h,  0 min, 18.978 sec
 * ratio c/w:    15.593 speedup
 SCF:
 * wall-time:     0 d,  0 h,  0 min,  1.081 sec
 *  cpu-time:     0 d,  0 h,  0 min, 17.246 sec
 * ratio c/w:    15.948 speedup

