      -----------------------------------------------------------      
     |                   =====================                   |     
     |                           x T B                           |     
     |                   =====================                   |     
     |                         S. Grimme                         |     
     |          Mulliken Center for Theoretical Chemistry        |     
     |                    University of Bonn                     |     
     |                 Version 6.0.1 (SAW181210)                 |     
      -----------------------------------------------------------      

   This program is distributed in the hope that it will be useful,
   but WITHOUT ANY WARRANTY; without even the implied warranty of
   MERCHANTABILITY or FITNESS FOR A PARTICULAR PURPOSE.
   
   FOR NON-COMMERCIAL, ACADEMIA USE ONLY.
   
   Cite this work as:
   S. Grimme, C. Bannwarth, P. Shushkov, J. Comput. Theory Chem., 2017,
   13, 1989-2009.
   C. Bannwarth, S. Ehlert and S. Grimme., ChemRxiv, 2018, preprint.
   http://doi.org/10.26434/chemrxiv.7246238.v1
   
   for sTDA-xTB:
   S. Grimme and C. Bannwarth, J. Chem. Phys., 2016, 145, 054103.
   
   in the mass-spec context:
   V. Asgeirsson, C. Bauer and S. Grimme, Chem. Sci., 2017, 8, 4879.
   
   if GBSA is used:
   P. Shushkov, F. März and S. Grimme, unpublished.
   
   for ANC optimizer:
   S. Grimme, unpublished.
   Rational Function algorithm used in ANCopt:
   F. Eckert, P. Pulay, H.-J. Werner, J. Comput. Chem., 1997, 18, 1473.
   
   with help from (in alphabetical order)
   C. Bannwarth, F. Bohle, G. Brandenburg, E. Caldeweyher, M. Checinski,
   S. Dohm, S. Ehlert, S. Ehrlich, F. März, H. Neugebauer, J. Pisarek,
   P. Pracht, P. Shushkov, and S. Spicher.
   
 * started run on 2019/03/14 at 15:07:36.423     
========================================================================
 # omp threads = 1
========================================================================
number of atoms            : 247
number of electrons        : 638
charge                     : 1
spin                       : .0
first test random number   : .3798
           ------------------------------------------------- 
          |                 G F N 2 - x T B                 |
          | Geometry, Frequencies, Noncovalent interactions |
          |            JCTC 2018 parametrisation            |
           ------------------------------------------------- 
 
      method parameters     
 k(s)        :  1.8500
 k(p)        :  2.2300
 k(d)        :  2.2300
 k(f)        :  2.0000
 kEN (H0ij)  : -2.0000
 D4 a1       :  0.5200
 D4 a2       :  5.0000
 D4 s6       :  1.0000
 D4 s8       :  2.7000
 D4 s9       :  5.0000
 alphaj      :  2.0000

 Solvent             : h2o
 Using internal parameter file: .param_gbsa2_h2o
 Gsolv ref. state (COSMO-RS): gsolv [1 M gas/solution]
 temperature (mdtemp)       :    298.150000000000     
 dielectric constant        :    80.2000000000000     
 rho                        :    1.00000000000000     
 mass                       :    18.0000000000000     
 surface tension            :    15.5689454083859     
 probe radius               :   0.975313790000000     
 vdW radii scaling          :    1.00000000000000     
 Gshift (Eh)                :   1.857443126794793E-003
 c1                         :    1.55243817000000     
 soset                      :   0.130326360000000     
 HB correction              :  T

            Z     q(EN)     CN     RAES       Cart. coordinates
     1  N   5.0   -0.20    3.21    1.96   102.35233   105.12413   106.66738
     2  C   4.0    0.03    4.41    4.39   103.85137   107.17645   107.71847
     3  C   4.0    0.14    3.53    3.13   103.62875   109.51327   106.01401
     4  O   6.0   -0.29    1.25    1.80   104.70118   109.58911   103.95275
     5  C   4.0   -0.02    4.27    4.14   106.66406   106.43571   107.97221
     6  C   4.0   -0.06    4.13    3.86   108.20612   108.67805   108.93074
     7  C   4.0   -0.07    4.12    3.83   106.96762   104.20048   109.76572
     8  H   1.0    0.10    1.02    1.43   102.16032   105.02185   104.77233
     9  H   1.0    0.04    1.06    1.44   103.08812   107.51389   109.60660
    10  H   1.0    0.06    1.05    1.44   107.33578   105.92181   106.08496
    11  H   1.0    0.05    1.00    1.43   110.17554   108.12918   109.12173
    12  H   1.0    0.06    1.00    1.43   108.08530   110.25466   107.62051
    13  H   1.0    0.05    1.00    1.43   107.51840   109.30003   110.76414
    14  H   1.0    0.05    1.00    1.43   108.95619   103.74623   109.99729
    15  H   1.0    0.05    1.00    1.43   106.17031   104.65812   111.60398
    16  H   1.0    0.05    1.00    1.43   105.98554   102.54592   109.04959
    17  N   5.0   -0.09    3.65    2.21   102.30488   111.47519   106.88727
    18  C   4.0    0.04    4.57    4.63   102.16363   113.78699   105.41648
    19  C   4.0    0.15    3.42    3.08   104.67160   115.23129   105.60403
    20  O   6.0   -0.30    1.24    1.80   105.91641   115.24398   107.54569
    21  C   4.0   -0.04    4.30    4.19   100.06939   115.38665   106.62957
    22  C   4.0   -0.04    4.21    4.03    99.33327   114.04060   109.09220
    23  C   4.0   -0.01    4.33    4.26   100.85526   111.57805   109.20659
    24  H   1.0    0.05    1.05    1.44   101.76985   113.30101   103.44525
    25  H   1.0    0.05    1.03    1.43   100.76767   117.28273   107.03006
    26  H   1.0    0.04    1.02    1.43    98.46491   115.53418   105.35391
    27  H   1.0    0.05    1.02    1.43    99.78132   115.21493   110.71819
    28  H   1.0    0.05    1.02    1.43    97.32102   113.62508   109.10582
    29  H   1.0    0.05    1.02    1.43   102.12828   111.57707   110.83715
    30  H   1.0    0.04    1.02    1.43    99.61462   109.92900   109.31460
    31  N   5.0   -0.14    3.49    2.07   105.24737   116.59288   103.54966
    32  C   4.0    0.03    4.47    4.50   107.47018   118.17252   103.28773
    33  C   4.0    0.14    3.45    3.09   107.34515   119.30125   100.60386
    34  O   6.0   -0.29    1.29    1.80   105.73706   118.63725    99.08442
    35  C   4.0   -0.02    4.33    4.26   109.92233   116.64373   103.78495
    36  C   4.0   -0.05    4.19    3.98   112.21335   118.38401   104.07327
    37  C   4.0   -0.06    4.14    3.87   110.23073   114.65703   101.71950
    38  C   4.0   -0.07    4.01    3.64   114.61768   117.02257   104.88695
    39  H   1.0    0.10    1.10    1.44   104.27433   116.38820   101.90952
    40  H   1.0    0.05    1.05    1.44   107.35025   119.71068   104.68002
    41  H   1.0    0.06    1.07    1.44   109.64516   115.67788   105.59193
    42  H   1.0    0.04    1.05    1.44   112.63143   119.24625   102.26091
    43  H   1.0    0.04    1.03    1.43   111.72572   119.84432   105.45016
    44  H   1.0    0.04    1.00    1.43   112.04612   113.71234   101.84781
    45  H   1.0    0.06    1.00    1.43   108.76012   113.23177   101.90210
    46  H   1.0    0.05    1.01    1.43   110.06164   115.51559    99.86252
    47  H   1.0    0.05    1.00    1.43   116.12633   118.38936   105.16719
    48  H   1.0    0.05    1.00    1.43   114.36074   115.97419   106.63240
    49  H   1.0    0.04    1.00    1.43   115.19787   115.71313   103.41495
    50  N   5.0   -0.15    3.45    2.05   109.11551   121.04690   100.13554
    51  C   4.0    0.03    4.45    4.46   109.46744   122.45735    97.81982
    52  C   4.0    0.16    3.52    3.12   108.31201   121.21115    95.50204
    53  O   6.0   -0.29    1.26    1.80   108.78880   119.10188    94.73069
    54  C   4.0   -0.02    4.30    4.21   112.27161   123.06759    97.17909
    55  C   4.0   -0.04    4.17    3.93   113.88454   120.94368    96.00947
    56  C   4.0   -0.08    4.10    3.79   113.58314   124.38703    99.38917
    57  C   4.0   -0.07    4.00    3.63   113.92532   118.38619    97.32433
    58  H   1.0    0.07    1.09    1.44   110.11453   121.72937   101.60658
    59  H   1.0    0.04    1.06    1.44   108.52097   124.29093    98.06845
    60  H   1.0    0.03    1.07    1.44   112.10403   124.48350    95.67706
    61  H   1.0    0.05    1.03    1.43   113.21282   120.61053    94.08688
    62  H   1.0    0.04    1.04    1.43   115.80499   121.67546    95.88891
    63  H   1.0    0.04    1.00    1.43   115.38020   125.13761    98.74222
    64  H   1.0    0.04    1.00    1.43   112.42832   125.96254   100.02486
    65  H   1.0    0.04    1.00    1.43   113.96398   123.14735   100.98052
    66  H   1.0    0.04    1.00    1.43   115.13716   117.08708    96.28585
    67  H   1.0    0.04    1.00    1.43   114.61397   118.48300    99.25059
    68  H   1.0    0.06    1.01    1.43   112.04058   117.57925    97.33011
    69  N   5.0   -0.16    3.55    2.11   106.95975   122.88237    94.11706
    70  C   4.0    0.03    4.53    4.58   105.94952   122.03526    91.73492
    71  C   4.0    0.15    3.46    3.10   108.06150   122.22517    89.78034
    72  O   6.0   -0.32    1.53    1.80   108.17809   120.63768    88.09737
    73  C   4.0   -0.03    4.28    4.17   103.44528   123.34852    91.01570
    74  C   4.0   -0.05    4.20    4.00   101.66962   123.56125    93.31362
    75  C   4.0   -0.08    4.13    3.86   102.09848   121.88371    88.92571
    76  C   4.0   -0.07    4.03    3.67   101.14637   121.05659    94.64418
    77  H   1.0    0.07    1.06    1.44   106.29945   124.52143    94.82655
    78  H   1.0    0.06    1.07    1.44   105.60037   119.99200    91.90732
    79  H   1.0    0.04    1.05    1.44   103.85107   125.26248    90.33516
    80  H   1.0    0.04    1.03    1.43   102.42390   124.90050    94.68709
    81  H   1.0    0.04    1.03    1.43    99.87519   124.33057    92.64706
    82  H   1.0    0.04    1.00    1.43   100.36402   122.83912    88.38243
    83  H   1.0    0.05    1.02    1.43   103.24408   121.69174    87.24195
    84  H   1.0    0.04    1.00    1.43   101.61462   119.99848    89.57518
    85  H   1.0    0.05    1.00    1.43    99.96138   121.36897    96.29224
    86  H   1.0    0.04    1.00    1.43   100.15072   119.75493    93.40753
    87  H   1.0    0.06    1.00    1.43   102.87175   120.15601    95.29945
    88  N   5.0   -0.15    3.43    2.03   109.81981   124.02184    89.99406
    89  C   4.0    0.02    4.35    4.29   111.94283   124.31016    88.22896
    90  C   4.0    0.17    3.58    3.16   111.85411   122.21817    86.20031
    91  O   6.0   -0.31    1.37    1.80   110.83425   122.62094    84.16490
    92  C   4.0   -0.06    4.24    4.08   114.53058   124.46138    89.56368
    93  C   4.0   -0.05    4.13    3.87   115.46606   127.16165    90.17589
    94  C   4.0   -0.01    4.24    4.08   118.14103   127.49884    89.11220
    95  N   5.0   -0.14    3.37    2.01   119.35930   129.82611    89.91341
    96  C   4.0    0.09    3.35    3.07   121.32821   130.86344    88.74024
    97  N   5.0   -0.18    3.26    1.97   122.06891   130.12201    86.44297
    98  N   5.0   -0.18    3.25    1.97   122.47466   132.86702    89.73260
    99  H   1.0    0.07    1.06    1.44   109.64035   125.37036    91.33667
   100  H   1.0    0.04    1.06    1.44   111.63911   126.06898    87.16574
   101  H   1.0    0.04    1.03    1.43   114.48265   123.33700    91.28658
   102  H   1.0    0.04    1.05    1.44   115.91323   123.59897    88.30068
   103  H   1.0    0.04    1.02    1.43   114.19805   128.55999    89.35962
   104  H   1.0    0.04    1.02    1.43   115.52494   127.43653    92.21376
   105  H   1.0    0.05    1.08    1.44   119.28410   125.90603    89.74934
   106  H   1.0    0.04    1.04    1.43   118.06559   127.48955    87.05841
   107  H   1.0    0.08    1.07    1.44   119.04718   130.33020    91.73008
   108  H   1.0    0.08    1.03    1.43   121.77242   128.34423    85.83075
   109  H   1.0    0.09    1.04    1.43   123.64471   130.96236    85.74877
   110  H   1.0    0.09    1.03    1.43   121.93806   133.62015    91.39352
   111  H   1.0    0.09    1.04    1.43   124.09279   133.45853    88.91444
   112  N   5.0   -0.14    3.48    2.07   113.12849   120.06530    86.64579
   113  C   4.0    0.04    4.50    4.54   113.24786   118.18180    84.65622
   114  C   4.0    0.16    3.51    3.12   110.63118   117.62575    83.59228
   115  O   6.0   -0.30    1.29    1.80   110.31834   117.78627    81.29979
   116  C   4.0   -0.04    4.32    4.23   114.58160   115.74936    85.41931
   117  C   4.0   -0.02    3.55    3.14   117.34789   116.17758    85.94951
   118  C   4.0   -0.04    3.47    3.10   118.79875   114.23325    86.95604
   119  C   4.0   -0.04    3.53    3.13   118.53464   118.44803    85.43366
   120  C   4.0   -0.03    3.45    3.09   121.34572   114.54964    87.40346
   121  C   4.0   -0.05    3.45    3.09   121.07613   118.79344    85.88908
   122  C   4.0    0.07    3.43    3.09   122.54289   116.82496    86.81884
   123  O   6.0   -0.23    2.10    1.84   125.07963   116.93698    87.26718
   124  H   1.0    0.08    1.06    1.44   113.92781   119.69885    88.33396
   125  H   1.0    0.05    1.07    1.44   114.31614   118.94932    83.04476
   126  H   1.0    0.05    1.02    1.43   113.67318   114.85100    87.03959
   127  H   1.0    0.05    1.03    1.43   114.42034   114.46209    83.80616
   128  H   1.0    0.06    1.03    1.43   117.92426   112.42841    87.32949
   129  H   1.0    0.05    1.05    1.44   117.55364   120.01127    84.57998
   130  H   1.0    0.07    1.03    1.43   122.47504   113.05073    88.20069
   131  H   1.0    0.05    1.04    1.43   121.81136   120.63890    85.47108
   132  H   1.0    0.12    1.01    1.43   125.90815   118.41227    86.51601
   133  N   5.0   -0.13    3.50    2.08   108.82343   116.85886    85.14927
   134  C   4.0    0.04    4.40    4.37   106.20009   116.51573    84.37193
   135  C   4.0    0.16    3.50    3.12   105.30814   118.73883    82.74105
   136  O   6.0   -0.33    1.38    1.80   104.30879   118.36960    80.69201
   137  C   4.0   -0.05    4.33    4.26   104.57653   116.15672    86.75078
   138  C   4.0   -0.03    4.16    3.92   101.80339   115.33697    86.41313
   139  C   4.0   -0.07    4.15    3.90   100.49013   116.55638    84.16654
   140  C   4.0   -0.07    4.11    3.81   101.60329   112.46790    86.22790
   141  H   1.0    0.10    1.09    1.44   109.17328   116.96104    87.02137
   142  H   1.0    0.06    1.05    1.44   106.06575   114.87306    83.12316
   143  H   1.0    0.05    1.04    1.43   105.45369   114.70165    87.91944
   144  H   1.0    0.05    1.04    1.43   104.65361   117.93794    87.76291
   145  H   1.0    0.04    1.06    1.44   100.79062   115.91696    88.12415
   146  H   1.0    0.04    1.00    1.43    98.48844   116.10247    84.17541
   147  H   1.0    0.05    1.00    1.43   100.66487   118.60285    84.21305
   148  H   1.0    0.06    1.01    1.43   101.30531   115.84704    82.42097
   149  H   1.0    0.05    1.00    1.43    99.63149   111.91328    86.06938
   150  H   1.0    0.05    1.00    1.43   102.59131   111.76555    84.57002
   151  H   1.0    0.05    1.00    1.43   102.41077   111.57848    87.89489
   152  N   5.0   -0.15    3.57    2.13   105.60328   121.05520    83.70317
   153  C   4.0    0.03    4.42    4.42   104.74467   123.34012    82.46212
   154  C   4.0    0.15    3.45    3.09   106.01036   123.70191    79.89098
   155  O   6.0   -0.32    1.23    1.80   105.04023   124.98791    78.22500
   156  C   4.0   -0.04    4.35    4.29   105.11386   125.59213    84.25312
   157  C   4.0   -0.03    4.07    3.75   105.05798   128.16502    82.97962
   158  S   6.0   -0.04    2.48    3.10   105.12466   130.65976    85.34127
   159  C   4.0   -0.07    3.88    3.43   108.24706   130.15603    86.73272
   160  H   1.0    0.12    1.14    1.45   106.72940   121.26624    85.23875
   161  H   1.0    0.05    1.13    1.45   102.73032   123.11893    82.02431
   162  H   1.0    0.04    1.04    1.43   103.60955   125.55097    85.66278
   163  H   1.0    0.06    1.04    1.43   106.93824   125.37703    85.19044
   164  H   1.0    0.05    1.06    1.44   106.64971   128.43263    81.69934
   165  H   1.0    0.05    1.07    1.44   103.30490   128.44951    81.93855
   166  H   1.0    0.05    1.05    1.44   108.63017   131.83643    87.83919
   167  H   1.0    0.04    1.04    1.43   108.18662   128.50507    87.94618
   168  H   1.0    0.04    1.04    1.43   109.61658   129.94176    85.21931
   169  N   5.0   -0.12    3.60    2.16   108.16231   122.43980    79.61346
   170  C   4.0    0.04    4.38    4.34   109.56956   122.37646    77.29422
   171  C   4.0    0.09    3.20    3.04   108.69626   120.14423    75.67471
   172  O   6.0   -0.29    1.15    1.80   107.89668   120.59104    73.52969
   173  C   4.0   -0.03    4.31    4.23   112.36427   122.50617    77.98010
   174  C   4.0   -0.00    3.58    3.15   112.92447   124.89904    79.44105
   175  C   4.0   -0.03    3.49    3.11   114.76326   124.84314    81.30643
   176  C   4.0   -0.03    3.49    3.11   111.75434   127.20080    78.91951
   177  C   4.0   -0.04    3.39    3.07   115.46082   127.03229    82.55332
   178  C   4.0   -0.04    3.37    3.07   112.41201   129.38194    80.21273
   179  C   4.0   -0.04    3.37    3.07   114.30479   129.31370    82.01454
   180  H   1.0    0.13    1.13    1.45   109.00719   121.60859    81.11453
   181  H   1.0    0.06    1.07    1.44   109.04887   124.04131    76.17664
   182  H   1.0    0.06    1.03    1.43   112.87495   120.85528    79.11160
   183  H   1.0    0.05    1.02    1.43   113.51751   122.45846    76.26853
   184  H   1.0    0.05    1.03    1.43   115.74627   123.09470    81.70833
   185  H   1.0    0.06    1.03    1.43   110.35468   127.34898    77.44099
   186  H   1.0    0.04    1.04    1.43   116.97273   126.93654    83.90974
   187  H   1.0    0.05    1.03    1.43   111.47585   131.14710    79.78495
   188  H   1.0    0.05    1.03    1.43   114.91030   131.02879    82.93199
   189  N   5.0   -0.19    3.29    1.98   103.65947   117.44849    75.85421
   190  C   4.0    0.04    4.32    4.23   101.04985   117.78339    75.10473
   191  C   4.0    0.15    3.44    3.09   100.95022   119.35803    72.68632
   192  O   6.0   -0.27    1.22    1.80    99.40233   118.88458    71.03241
   193  C   4.0   -0.04    4.32    4.23    99.39802   118.95976    77.17433
   194  C   4.0   -0.03    4.11    3.81    99.92969   121.75910    77.52711
   195  S   6.0   -0.04    2.57    3.10    98.53096   123.03186    80.39902
   196  C   4.0   -0.06    3.89    3.44    95.34346   123.56300    79.28628
   197  H   1.0    0.13    1.12    1.45   104.19116   117.99599    77.61707
   198  H   1.0    0.06    1.05    1.44   100.25355   115.92641    74.62322
   199  H   1.0    0.05    1.03    1.43    97.42303   118.66783    76.65348
   200  H   1.0    0.05    1.04    1.43    99.75693   117.98749    78.95557
   201  H   1.0    0.07    1.09    1.44   101.95022   122.06929    77.70989
   202  H   1.0    0.05    1.07    1.44    99.21210   122.89402    75.96647
   203  H   1.0    0.05    1.05    1.44    94.34393   124.53070    80.79086
   204  H   1.0    0.05    1.04    1.43    95.43076   124.74236    77.60744
   205  H   1.0    0.05    1.04    1.43    94.46795   121.75353    78.88078
   206  N   5.0   -0.14    3.49    2.07   102.59868   121.26362    72.54379
   207  C   4.0    0.04    4.39    4.36   102.84615   122.85437    70.32647
   208  C   4.0    0.10    3.28    3.05   103.97710   121.34863    68.14524
   209  O   6.0   -0.26    1.12    1.80   103.20914   121.61325    65.97550
   210  C   4.0   -0.02    4.32    4.23   104.45655   125.22268    70.89794
   211  C   4.0   -0.04    4.17    3.93   102.83386   127.38581    71.94667
   212  C   4.0   -0.06    4.16    3.91   105.99698   126.06518    68.59976
   213  C   4.0   -0.07    4.02    3.66   101.08526   128.60244    70.00836
   214  H   1.0    0.10    1.09    1.44   103.92524   121.44834    73.90521
   215  H   1.0    0.06    1.06    1.44   100.94535   123.41096    69.71806
   216  H   1.0    0.06    1.06    1.44   105.79017   124.67810    72.38371
   217  H   1.0    0.05    1.03    1.43   101.73778   126.65985    73.53640
   218  H   1.0    0.05    1.03    1.43   104.10498   128.83637    72.67818
   219  H   1.0    0.05    1.00    1.43   106.87887   127.88236    68.97318
   220  H   1.0    0.06    1.00    1.43   107.48195   124.70017    68.20712
   221  H   1.0    0.06    1.00    1.43   104.82666   126.24202    66.91990
   222  H   1.0    0.05    1.00    1.43    99.96841   130.08215    70.89194
   223  H   1.0    0.05    1.00    1.43   102.17230   129.44678    68.48662
   224  H   1.0    0.05    1.00    1.43    99.79523   127.22678    69.19423
   225  N   5.0   -0.21    3.20    1.96   126.99737   125.85747    87.12959
   226  C   4.0    0.04    4.27    4.14   125.75984   125.03810    89.41018
   227  C   4.0    0.09    3.29    3.05   127.45841   123.37069    91.01094
   228  O   6.0   -0.27    1.16    1.80   126.86725   122.83886    93.17493
   229  C   4.0   -0.04    4.37    4.32   123.47459   123.36044    88.85831
   230  C   4.0    0.07    3.84    3.39   122.11524   122.65705    91.22025
   231  N   5.0   -0.18    2.59    1.90   121.16034   124.43221    92.82359
   232  C   4.0    0.00    3.61    3.17   121.61704   120.29493    92.16156
   233  C   4.0    0.07    3.65    3.20   120.10407   123.18917    94.66956
   234  N   5.0   -0.12    3.45    2.05   120.32073   120.66605    94.35861
   235  H   1.0    0.09    1.03    1.43   127.25033   124.53598    85.79440
   236  H   1.0    0.06    1.05    1.44   125.19251   126.68647    90.52515
   237  H   1.0    0.03    1.03    1.43   122.25804   124.29278    87.47820
   238  H   1.0    0.04    1.06    1.44   124.21518   121.64285    88.02645
   239  H   1.0    0.06    1.02    1.43   122.09361   118.45629    91.47532
   240  H   1.0    0.04    1.02    1.43   119.16354   124.07886    96.22090
   241  H   1.0    0.07    1.05    1.44   119.69937   119.29378    95.52633
   242  H   1.0    0.09    1.09    1.44   103.03606   103.63336   107.11759
   243  H   1.0    0.07    1.04    1.43   108.78338   118.38641    76.36286
   244  H   1.0    0.10    1.07    1.44   104.06556   115.79881    75.77535
   245  H   1.0    0.07    1.05    1.44   105.37271   120.11685    68.47089
   246  H   1.0    0.09    1.08    1.44   126.08344   127.09236    86.39997
   247  H   1.0    0.06    1.05    1.44   129.07309   122.70095    90.29308

  Z AO/shell   Hii/eV     exponent
  1     Wed Apr 25 08:07:45 CEST 2018   EN: 2.200 GM2: 0.406  GM3: 0.0800  RAES: 1.40
     1s    -10.707211    1.230000
  6     Wed Apr 25 08:07:45 CEST 2018   EN: 2.550 GM2: 0.538  GM3: 0.1500  RAES: 3.00
     2s    -13.970922    2.096432
     2p    -10.063292    1.800000
  7     Wed Apr 25 08:07:45 CEST 2018   EN: 3.040 GM2: 0.461  GM3:-0.0640  RAES: 1.90
     2s    -16.686243    2.339881
     2p    -12.523956    2.014332
  8     Wed Apr 25 08:07:45 CEST 2018   EN: 3.440 GM2: 0.452  GM3:-0.0517  RAES: 1.80
     2s    -20.229985    2.439742
     2p    -15.503117    2.137023
 16     Tue Apr 24 11:44:34 CEST 2018   EN: 2.580 GM2: 0.340  GM3:-0.0502  RAES: 3.10
     3s    -20.029654    1.981333
     3p    -11.377694    2.025643
     3d     -0.420282    1.702555
 no old-style atom pair restraining (fixing) potential

molecular fragmentation (1/2 indicates fragments):
111111111111111111111111111111111111111111111111111111111111111111111111
111111111111111111111111111111111111111111111111111111111111111111111111
111111111111111111111111111111111111111111112222222222222222222222222222
2222222222222222222222222112222
# atoms in fragment 1/2:   190    57
 fragment masses (1/2) :     1249.64      385.52
CMA distance (Bohr)    :  11.682
constraining FC (au)   :  0.0500
           ------------------------------------------------- 
          |        Self-Consistent Charge Iterations        |
           ------------------------------------------------- 

 Ncao       : 601
 Nao        : 599
 Nshell     : 363
 Nel        : 638
 T(el)      :   500.0
 intcut     :    35.0
 scfconv/Eh :  0.100E-06
   qconv/e  :  0.100E-04
 intneglect :  0.100E-08
 broydamp   :      0.400
 iter      E             dE          RMSdq      gap      omega  full diag
   1   -358.9300981 -0.358930E+03  0.419E+00    2.95       0.0  T
   2   -359.6040269 -0.673929E+00  0.203E+00    1.61       1.0  T
   3   -359.6389021 -0.348752E-01  0.110E+00    2.01       1.0  T
   4   -359.6904386 -0.515365E-01  0.248E-01    1.55       1.0  T
   5   -359.6933626 -0.292400E-02  0.124E-01    1.70       1.0  T
   6   -359.6938727 -0.510162E-03  0.570E-02    1.64       1.0  T
   7   -359.6940469 -0.174158E-03  0.285E-02    1.64       1.0  T
   8   -359.6940707 -0.238283E-04  0.145E-02    1.64       1.0  T
   9   -359.6940804 -0.964457E-05  0.715E-03    1.63       1.0  T
  10   -359.6940823 -0.189390E-05  0.354E-03    1.63       1.8  T
  11   -359.6940828 -0.523735E-06  0.153E-03    1.63       4.2  T
  12   -359.6940829 -0.773185E-07  0.691E-04    1.63       9.2  T
  13   -359.6940829 -0.263879E-07  0.333E-04    1.63      19.1  T
  14   -359.6940829 -0.393339E-08  0.144E-04    1.63      44.2  T
  15   -359.6940829 -0.130547E-08  0.634E-05    1.63     100.3  T
  16   -359.6940829 -0.151545E-09  0.301E-05    1.63     211.3  T
speedup  1.00
cpu  time for SCC    1.87 s
wall time for SCC    1.87 s

   *** convergence criteria satisfied after 16 iterations ***

          eigenvalues
 #    :         307        308        309        310        311        312        313        314
 occ. :        2.000      2.000      2.000      2.000      2.000      2.000      2.000      2.000
 eps  :       -10.842    -10.825    -10.801    -10.698    -10.666    -10.603    -10.572    -10.529
 #    :         315        316        317        318        319        320        321        322
 occ. :        2.000      2.000      2.000      2.000      2.000      0.000      0.000      0.000
 eps  :       -10.096    -10.094     -9.840     -9.826     -9.657     -8.031     -7.710     -7.509
 #    :         323        324        325        326        327        328        329        330
 occ. :        0.000      0.000      0.000      0.000      0.000      0.000      0.000      0.000
 eps  :        -6.773     -6.452     -6.339     -6.335     -6.321     -6.246     -6.231     -6.101


   #   Z            q   n(s)   n(p)   n(d)      C6AA      α(0)
   1   7 N     -0.394  1.318  4.075  0.000    30.193     8.161
   2   6 C      0.028  1.065  2.907  0.000    20.110     6.387
   3   6 C      0.264  1.049  2.686  0.000    22.543     7.776
   4   8 O     -0.529  1.754  4.774  0.000    24.426     6.626
   5   6 C     -0.014  1.061  2.952  0.000    20.787     6.485
   6   6 C     -0.106  1.038  3.068  0.000    22.583     6.776
   7   6 C     -0.114  1.041  3.073  0.000    22.730     6.798
   8   1 H      0.149  0.851  0.000  0.000     1.411     1.860
   9   1 H      0.039  0.961  0.000  0.000     2.463     2.454
  10   1 H      0.030  0.970  0.000  0.000     2.592     2.518
  11   1 H      0.045  0.955  0.000  0.000     2.378     2.412
  12   1 H      0.027  0.973  0.000  0.000     2.636     2.539
  13   1 H      0.038  0.962  0.000  0.000     2.472     2.459
  14   1 H      0.048  0.952  0.000  0.000     2.345     2.395
  15   1 H      0.045  0.955  0.000  0.000     2.383     2.414
  16   1 H      0.035  0.965  0.000  0.000     2.512     2.478
  17   7 N     -0.080  1.231  3.849  0.000    22.792     7.091
  18   6 C      0.022  1.065  2.913  0.000    20.186     6.394
  19   6 C      0.280  1.041  2.679  0.000    22.252     7.724
  20   8 O     -0.482  1.744  4.738  0.000    23.399     6.485
  21   6 C     -0.068  1.055  3.013  0.000    21.794     6.644
  22   6 C     -0.071  1.052  3.019  0.000    21.841     6.652
  23   6 C     -0.007  1.053  2.954  0.000    20.763     6.498
  24   1 H      0.051  0.949  0.000  0.000     2.313     2.378
  25   1 H      0.059  0.941  0.000  0.000     2.215     2.328
  26   1 H      0.067  0.933  0.000  0.000     2.117     2.275
  27   1 H      0.067  0.933  0.000  0.000     2.113     2.273
  28   1 H      0.069  0.931  0.000  0.000     2.092     2.262
  29   1 H      0.061  0.939  0.000  0.000     2.184     2.311
  30   1 H      0.068  0.932  0.000  0.000     2.113     2.273
  31   7 N     -0.184  1.244  3.940  0.000    24.977     7.423
  32   6 C      0.015  1.071  2.914  0.000    20.327     6.420
  33   6 C      0.275  1.041  2.684  0.000    22.348     7.741
  34   8 O     -0.481  1.752  4.729  0.000    23.371     6.482
  35   6 C     -0.021  1.063  2.958  0.000    20.906     6.503
  36   6 C     -0.075  1.054  3.021  0.000    21.925     6.666
  37   6 C     -0.106  1.033  3.072  0.000    22.576     6.775
  38   6 C     -0.110  1.036  3.074  0.000    22.673     6.790
  39   1 H      0.208  0.792  0.000  0.000     1.064     1.616
  40   1 H      0.061  0.939  0.000  0.000     2.188     2.313
  41   1 H      0.054  0.946  0.000  0.000     2.275     2.359
  42   1 H      0.061  0.939  0.000  0.000     2.182     2.310
  43   1 H      0.038  0.962  0.000  0.000     2.473     2.459
  44   1 H      0.051  0.949  0.000  0.000     2.305     2.374
  45   1 H      0.024  0.976  0.000  0.000     2.678     2.559
  46   1 H      0.041  0.959  0.000  0.000     2.436     2.441
  47   1 H      0.053  0.947  0.000  0.000     2.286     2.365
  48   1 H      0.033  0.967  0.000  0.000     2.541     2.493
  49   1 H      0.043  0.957  0.000  0.000     2.411     2.428
  50   7 N     -0.170  1.237  3.933  0.000    24.678     7.378
  51   6 C      0.011  1.067  2.922  0.000    20.404     6.432
  52   6 C      0.290  1.035  2.675  0.000    22.082     7.696
  53   8 O     -0.458  1.748  4.711  0.000    22.884     6.414
  54   6 C     -0.033  1.073  2.960  0.000    21.121     6.537
  55   6 C     -0.065  1.049  3.016  0.000    21.748     6.640
  56   6 C     -0.129  1.041  3.088  0.000    23.037     6.844
  57   6 C     -0.109  1.033  3.076  0.000    22.653     6.788
  58   1 H      0.220  0.780  0.000  0.000     1.011     1.575
  59   1 H      0.060  0.940  0.000  0.000     2.202     2.321
  60   1 H      0.063  0.937  0.000  0.000     2.168     2.303
  61   1 H      0.035  0.965  0.000  0.000     2.517     2.481
  62   1 H      0.061  0.939  0.000  0.000     2.190     2.314
  63   1 H      0.070  0.930  0.000  0.000     2.081     2.256
  64   1 H      0.056  0.944  0.000  0.000     2.242     2.341
  65   1 H      0.048  0.952  0.000  0.000     2.350     2.397
  66   1 H      0.030  0.970  0.000  0.000     2.588     2.516
  67   1 H      0.043  0.957  0.000  0.000     2.410     2.428
  68   1 H      0.039  0.961  0.000  0.000     2.463     2.454
  69   7 N     -0.200  1.250  3.950  0.000    25.342     7.477
  70   6 C      0.016  1.063  2.921  0.000    20.312     6.416
  71   6 C      0.268  1.048  2.683  0.000    22.469     7.762
  72   8 O     -0.483  1.744  4.739  0.000    23.406     6.487
  73   6 C     -0.024  1.067  2.957  0.000    20.968     6.513
  74   6 C     -0.066  1.053  3.012  0.000    21.754     6.640
  75   6 C     -0.122  1.037  3.085  0.000    22.891     6.821
  76   6 C     -0.110  1.033  3.077  0.000    22.672     6.790
  77   1 H      0.211  0.789  0.000  0.000     1.050     1.606
  78   1 H      0.091  0.909  0.000  0.000     1.866     2.136
  79   1 H      0.053  0.947  0.000  0.000     2.281     2.362
  80   1 H      0.044  0.956  0.000  0.000     2.396     2.421
  81   1 H      0.054  0.946  0.000  0.000     2.265     2.353
  82   1 H      0.051  0.949  0.000  0.000     2.305     2.374
  83   1 H      0.044  0.956  0.000  0.000     2.399     2.422
  84   1 H      0.049  0.951  0.000  0.000     2.337     2.391
  85   1 H      0.036  0.964  0.000  0.000     2.499     2.472
  86   1 H      0.036  0.964  0.000  0.000     2.500     2.472
  87   1 H      0.042  0.958  0.000  0.000     2.418     2.432
  88   7 N     -0.164  1.244  3.920  0.000    24.552     7.359
  89   6 C      0.001  1.075  2.924  0.000    20.573     6.461
  90   6 C      0.286  1.041  2.673  0.000    22.153     7.708
  91   8 O     -0.484  1.747  4.737  0.000    23.434     6.490
  92   6 C     -0.098  1.061  3.037  0.000    22.366     6.733
  93   6 C     -0.092  1.058  3.034  0.000    22.264     6.718
  94   6 C     -0.045  1.057  2.987  0.000    21.453     6.608
  95   7 N     -0.125  1.216  3.910  0.000    23.723     7.234
  96   6 C      0.227  1.020  2.753  0.000    23.226     7.891
  97   7 N     -0.247  1.244  4.002  0.000    26.431     7.636
  98   7 N     -0.255  1.238  4.017  0.000    26.620     7.663
  99   1 H      0.224  0.776  0.000  0.000     0.991     1.559
 100   1 H      0.096  0.904  0.000  0.000     1.825     2.113
 101   1 H      0.074  0.926  0.000  0.000     2.043     2.235
 102   1 H      0.075  0.925  0.000  0.000     2.029     2.227
 103   1 H      0.083  0.917  0.000  0.000     1.953     2.185
 104   1 H      0.085  0.915  0.000  0.000     1.929     2.172
 105   1 H      0.099  0.901  0.000  0.000     1.798     2.097
 106   1 H      0.083  0.917  0.000  0.000     1.946     2.182
 107   1 H      0.241  0.759  0.000  0.000     0.920     1.502
 108   1 H      0.227  0.773  0.000  0.000     0.977     1.548
 109   1 H      0.238  0.762  0.000  0.000     0.931     1.511
 110   1 H      0.254  0.746  0.000  0.000     0.869     1.460
 111   1 H      0.251  0.749  0.000  0.000     0.879     1.469
 112   7 N     -0.177  1.236  3.941  0.000    24.829     7.401
 113   6 C      0.023  1.059  2.917  0.000    20.178     6.395
 114   6 C      0.279  1.039  2.683  0.000    22.281     7.730
 115   8 O     -0.511  1.752  4.759  0.000    24.025     6.572
 116   6 C     -0.078  1.052  3.026  0.000    21.986     6.674
 117   6 C      0.000  1.076  2.924  0.000    28.022     8.683
 118   6 C     -0.041  1.081  2.960  0.000    29.011     8.833
 119   6 C     -0.050  1.079  2.971  0.000    29.239     8.868
 120   6 C     -0.056  1.075  2.981  0.000    29.398     8.891
 121   6 C     -0.083  1.078  3.005  0.000    30.082     8.994
 122   6 C      0.147  1.044  2.809  0.000    24.808     8.163
 123   8 O     -0.436  1.725  4.712  0.000    21.569     6.269
 124   1 H      0.214  0.786  0.000  0.000     1.038     1.596
 125   1 H      0.078  0.922  0.000  0.000     2.004     2.214
 126   1 H      0.063  0.937  0.000  0.000     2.162     2.300
 127   1 H      0.062  0.938  0.000  0.000     2.181     2.310
 128   1 H      0.037  0.963  0.000  0.000     2.492     2.469
 129   1 H      0.054  0.946  0.000  0.000     2.269     2.355
 130   1 H      0.041  0.959  0.000  0.000     2.430     2.438
 131   1 H      0.071  0.929  0.000  0.000     2.078     2.254
 132   1 H      0.335  0.665  0.000  0.000     0.624     1.241
 133   7 N     -0.175  1.250  3.925  0.000    24.784     7.394
 134   6 C      0.028  1.062  2.909  0.000    20.105     6.386
 135   6 C      0.290  1.042  2.669  0.000    22.090     7.696
 136   8 O     -0.496  1.742  4.754  0.000    23.701     6.527
 137   6 C     -0.088  1.061  3.027  0.000    22.182     6.705
 138   6 C     -0.010  1.057  2.953  0.000    20.729     6.476
 139   6 C     -0.107  1.037  3.071  0.000    22.603     6.779
 140   6 C     -0.115  1.042  3.074  0.000    22.764     6.803
 141   1 H      0.224  0.776  0.000  0.000     0.993     1.561
 142   1 H      0.062  0.938  0.000  0.000     2.178     2.308
 143   1 H      0.064  0.936  0.000  0.000     2.155     2.295
 144   1 H      0.072  0.928  0.000  0.000     2.061     2.245
 145   1 H      0.040  0.960  0.000  0.000     2.450     2.448
 146   1 H      0.037  0.963  0.000  0.000     2.486     2.465
 147   1 H      0.035  0.965  0.000  0.000     2.521     2.483
 148   1 H      0.035  0.965  0.000  0.000     2.510     2.478
 149   1 H      0.041  0.959  0.000  0.000     2.441     2.443
 150   1 H      0.035  0.965  0.000  0.000     2.516     2.481
 151   1 H      0.042  0.958  0.000  0.000     2.421     2.433
 152   7 N     -0.201  1.257  3.944  0.000    25.362     7.480
 153   6 C      0.025  1.061  2.915  0.000    20.167     6.395
 154   6 C      0.278  1.038  2.683  0.000    22.291     7.731
 155   8 O     -0.509  1.751  4.758  0.000    23.989     6.567
 156   6 C     -0.068  1.053  3.015  0.000    21.766     6.636
 157   6 C      0.003  1.058  2.939  0.000    20.532     6.452
 158  16 S     -0.234  1.923  4.258  0.053   151.072    20.687
 159   6 C     -0.075  1.058  3.018  0.000    22.015     6.693
 160   1 H      0.236  0.764  0.000  0.000     0.941     1.520
 161   1 H      0.076  0.924  0.000  0.000     2.026     2.226
 162   1 H      0.069  0.931  0.000  0.000     2.093     2.262
 163   1 H      0.064  0.936  0.000  0.000     2.150     2.293
 164   1 H      0.040  0.960  0.000  0.000     2.455     2.450
 165   1 H      0.044  0.956  0.000  0.000     2.399     2.422
 166   1 H      0.099  0.901  0.000  0.000     1.797     2.096
 167   1 H      0.064  0.936  0.000  0.000     2.150     2.293
 168   1 H      0.068  0.932  0.000  0.000     2.107     2.270
 169   7 N     -0.173  1.243  3.929  0.000    24.741     7.387
 170   6 C      0.038  1.053  2.909  0.000    19.935     6.358
 171   6 C      0.199  1.092  2.710  0.000    23.765     7.984
 172   8 O     -0.367  1.758  4.608  0.000    21.027     6.148
 173   6 C     -0.075  1.054  3.020  0.000    21.914     6.663
 174   6 C      0.019  1.082  2.899  0.000    27.575     8.614
 175   6 C     -0.034  1.081  2.954  0.000    28.859     8.810
 176   6 C     -0.036  1.078  2.958  0.000    28.898     8.816
 177   6 C     -0.042  1.080  2.963  0.000    29.048     8.838
 178   6 C     -0.032  1.080  2.953  0.000    28.802     8.801
 179   6 C     -0.042  1.081  2.961  0.000    29.049     8.838
 180   1 H      0.238  0.762  0.000  0.000     0.932     1.512
 181   1 H      0.075  0.925  0.000  0.000     2.031     2.229
 182   1 H      0.070  0.930  0.000  0.000     2.083     2.257
 183   1 H      0.062  0.938  0.000  0.000     2.178     2.308
 184   1 H      0.033  0.967  0.000  0.000     2.543     2.494
 185   1 H      0.013  0.987  0.000  0.000     2.842     2.636
 186   1 H      0.065  0.935  0.000  0.000     2.137     2.286
 187   1 H      0.032  0.968  0.000  0.000     2.559     2.502
 188   1 H      0.068  0.932  0.000  0.000     2.106     2.269
 189   7 N     -0.428  1.320  4.107  0.000    31.151     8.289
 190   6 C      0.041  1.057  2.903  0.000    19.907     6.355
 191   6 C      0.271  1.048  2.681  0.000    22.422     7.754
 192   8 O     -0.522  1.754  4.768  0.000    24.279     6.606
 193   6 C     -0.057  1.051  3.006  0.000    21.568     6.608
 194   6 C      0.001  1.061  2.937  0.000    20.561     6.457
 195  16 S     -0.226  1.906  4.265  0.055   150.692    20.661
 196   6 C     -0.056  1.054  3.003  0.000    21.657     6.638
 197   1 H      0.200  0.800  0.000  0.000     1.108     1.649
 198   1 H      0.025  0.975  0.000  0.000     2.660     2.551
 199   1 H      0.029  0.971  0.000  0.000     2.603     2.523
 200   1 H      0.063  0.937  0.000  0.000     2.169     2.303
 201   1 H      0.056  0.944  0.000  0.000     2.246     2.344
 202   1 H      0.024  0.976  0.000  0.000     2.672     2.556
 203   1 H      0.077  0.923  0.000  0.000     2.006     2.215
 204   1 H      0.050  0.950  0.000  0.000     2.319     2.381
 205   1 H      0.049  0.951  0.000  0.000     2.326     2.385
 206   7 N     -0.170  1.245  3.925  0.000    24.674     7.377
 207   6 C      0.030  1.061  2.909  0.000    20.071     6.380
 208   6 C      0.213  1.084  2.703  0.000    23.499     7.939
 209   8 O     -0.376  1.755  4.621  0.000    21.201     6.173
 210   6 C     -0.016  1.068  2.949  0.000    20.831     6.492
 211   6 C     -0.059  1.051  3.009  0.000    21.642     6.623
 212   6 C     -0.116  1.039  3.077  0.000    22.783     6.806
 213   6 C     -0.112  1.036  3.076  0.000    22.696     6.794
 214   1 H      0.209  0.791  0.000  0.000     1.060     1.613
 215   1 H      0.081  0.919  0.000  0.000     1.969     2.194
 216   1 H      0.060  0.940  0.000  0.000     2.204     2.322
 217   1 H      0.034  0.966  0.000  0.000     2.525     2.485
 218   1 H      0.056  0.944  0.000  0.000     2.245     2.343
 219   1 H      0.066  0.934  0.000  0.000     2.130     2.282
 220   1 H      0.040  0.960  0.000  0.000     2.447     2.446
 221   1 H      0.048  0.952  0.000  0.000     2.349     2.397
 222   1 H      0.046  0.954  0.000  0.000     2.371     2.408
 223   1 H      0.051  0.949  0.000  0.000     2.313     2.378
 224   1 H      0.029  0.971  0.000  0.000     2.603     2.523
 225   7 N     -0.392  1.321  4.071  0.000    30.154     8.155
 226   6 C      0.030  1.054  2.916  0.000    20.088     6.384
 227   6 C      0.200  1.083  2.717  0.000    23.742     7.981
 228   8 O     -0.385  1.762  4.624  0.000    21.392     6.201
 229   6 C     -0.078  1.055  3.023  0.000    21.972     6.670
 230   6 C      0.048  1.061  2.891  0.000    26.387     8.372
 231   7 N     -0.271  1.460  3.811  0.000    27.888     7.830
 232   6 C     -0.023  1.066  2.957  0.000    28.538     8.762
 233   6 C      0.081  1.060  2.859  0.000    25.917     8.326
 234   7 N     -0.091  1.239  3.852  0.000    23.022     7.126
 235   1 H      0.162  0.838  0.000  0.000     1.325     1.803
 236   1 H      0.095  0.905  0.000  0.000     1.829     2.115
 237   1 H      0.069  0.931  0.000  0.000     2.093     2.263
 238   1 H      0.045  0.955  0.000  0.000     2.378     2.411
 239   1 H      0.028  0.972  0.000  0.000     2.613     2.528
 240   1 H      0.055  0.945  0.000  0.000     2.254     2.348
 241   1 H      0.190  0.810  0.000  0.000     1.160     1.687
 242   1 H      0.184  0.816  0.000  0.000     1.190     1.709
 243   1 H      0.077  0.923  0.000  0.000     2.011     2.217
 244   1 H      0.171  0.829  0.000  0.000     1.266     1.762
 245   1 H      0.069  0.931  0.000  0.000     2.095     2.263
 246   1 H      0.193  0.807  0.000  0.000     1.143     1.674
 247   1 H      0.062  0.938  0.000  0.000     2.171     2.304

 Mol. C6AA /au·bohr⁶  :     568151.056420
 Mol. C8AA /au·bohr⁸  :   13046346.312031
 Mol. α(0) /au        :       1140.283767

 
molecular dipole:
                 x           y           z       tot (Debye)
 q only:      127.297     136.110      99.854
   full:      126.942     133.641     100.168     533.220
molecular quadrupole (traceless):
                xx          xy          yy          xz          yz          zz
 q only:     1982.525   25767.240    5530.304   18594.483   20149.377   -7512.828
  q+dip:     2176.985   25284.601    4949.340   18604.962   19883.726   -7126.326
   full:     2180.469   25285.438    4946.198   18602.813   19886.310   -7126.666
speedup  1.00
cpu  time for grad    2.51 s
wall time for grad    2.51 s

SCC energy    :    -359.7101314
rep           :       4.6635395
ES            :       0.8153979
AES           :      -0.0203435
AXC           :       0.1541527
disp          :      -0.3296553
XB            :       0.0000000
fix           :       0.0000000
Gborn         :       0.0000000
Gsasa         :       0.0000000
Ghb           :       0.0000000
Gshift        :       0.0000000
Gsolv         :      -0.2435288     -152.82
Etot ala COSMO:    -359.7101314
grad norm     :       0.3894813
total E       :    -355.0217572
atomizationE  :      68.2956322    42856.16
(atE without considering molecular charge,
 total energy contains solvation terms)
H-L gap (eV)  :          1.6266

------------------------------------------------------------------------
 * finished run on 2019/03/14 at 15:07:39.287     
------------------------------------------------------------------------
 total:
 * wall-time:     0 d,  0 h,  0 min,  2.862 sec
 *  cpu-time:     0 d,  0 h,  0 min,  2.760 sec
 * ratio c/w:     0.964 speedup
 SCF:
 * wall-time:     0 d,  0 h,  0 min,  2.707 sec
 *  cpu-time:     0 d,  0 h,  0 min,  2.705 sec
 * ratio c/w:     0.999 speedup

