      -----------------------------------------------------------      
     |                   =====================                   |     
     |                           x T B                           |     
     |                   =====================                   |     
     |                         S. Grimme                         |     
     |          Mulliken Center for Theoretical Chemistry        |     
     |                    University of Bonn                     |     
     |                Version 6.1 RC1 (SAW190329)                |     
      -----------------------------------------------------------      

   This program is distributed in the hope that it will be useful,
   but WITHOUT ANY WARRANTY; without even the implied warranty of
   MERCHANTABILITY or FITNESS FOR A PARTICULAR PURPOSE.
   
   FOR NON-COMMERCIAL, ACADEMIA USE ONLY.
   
   Cite this work as:
   S. Grimme, C. Bannwarth, P. Shushkov, J. Comput. Theory Chem., 2017,
   13, 1989-2009. DOI: 10.1021/acs.jctc.7b00118
   C. Bannwarth, S. Ehlert and S. Grimme., J. Comput. Theory Chem., 2019,
   just accepted. DOI: 10.1021/acs.jctc.8b01176
   
   for sTDA-xTB:
   S. Grimme and C. Bannwarth, J. Chem. Phys., 2016, 145, 054103.
   DOI: 10.1063/1.4959605
   
   in the mass-spec context:
   V. Asgeirsson, C. Bauer and S. Grimme, Chem. Sci., 2017, 8, 4879.
   DOI: 10.1039/c7sc00601b
   
   for metadynamics refer to:
   S. Grimme, ChemRxiv, Preprint. DOI: 10.26434/chemrxiv.7660532.v1
   
   with help from (in alphabetical order)
   C. Bannwarth, F. Bohle, G. Brandenburg, E. Caldeweyher, M. Checinski,
   S. Dohm, S. Ehlert, S. Ehrlich, F. März, H. Neugebauer, J. Pisarek,
   P. Pracht, P. Shushkov, and S. Spicher.
   
 * started run on 2019/05/31 at 02:07:05.219     

           -------------------------------------------------
          |                Calculation Setup                |
           -------------------------------------------------

          program call               : /home/lum/qr/xtb-190329/bin/xtb xtb_tmp.xyz --chrg 0 --grad --gfn 2 --etemp 500 --acc 0.1 --gbsa h2o --parallel 4
          hostname                   : cu39
          coordinate file            : xtb_tmp.xyz
          omp threads                :                     4
          number of atoms            :                   511
          number of electrons        :                  1416
          charge                     :                     0
          spin                       :                   0.0
          first test random number   :      0.99349591249933


molecular fragmentation (1/2 indicates fragments):
111111111111111111111222222222222222222222222222222222222222222222222222
222222222222222222222222222222222222222222222222222222222222222222222222
222222222222222222222222222222222222222222222222222222222222222222222222
222222222222222222222222222222222222222222222222222222222222222222222222
222222222222222222222222222222222222222222222222222222222222222222222222
222222222222222222222222222222222222222222222222222222222222222222222222
222222222222222222222222222222222222222222222222222222222112222222222222
2222222
# atoms in fragment 1/2:    23   488
 fragment masses (1/2) :      165.19     3439.91
CMA distance (Bohr)    :  26.055
constraining FC (au)   :  0.0500

########################################################################
# WARNING! Please study the warnings concerning your input carefully
#  - XTBPATH is not set, using XTBHOME instead
#  - Process number higher than OMP_NUM_THREADS, I hope you know what you are doing.
########################################################################

           ------------------------------------------------- 
          |                 G F N 2 - x T B                 |
          | Geometry, Frequencies, Noncovalent interactions |
          |            JCTC 2018 parametrisation            |
           ------------------------------------------------- 
 
             k(s)              :                1.8500
             k(p)              :                2.2300
             k(d)              :                2.2300
             k(f)              :                2.0000
             kEN (H0ij)        :               -2.0000
             D4 a1             :                0.5200
             D4 a2             :                5.0000
             D4 s6             :                1.0000
             D4 s8             :                2.7000
             D4 s9             :                5.0000
             alphaj            :                2.0000

  Z AO/shell   Hii/eV     exponent
  1     Wed Apr 25 08:07:45 CEST 2018   EN: 2.200 GM2: 0.406  GM3: 0.0800  RAES: 1.40
     1s    -10.707211    1.230000
  6     Wed Apr 25 08:07:45 CEST 2018   EN: 2.550 GM2: 0.538  GM3: 0.1500  RAES: 3.00
     2s    -13.970922    2.096432
     2p    -10.063292    1.800000
  7     Wed Apr 25 08:07:45 CEST 2018   EN: 3.040 GM2: 0.461  GM3:-0.0640  RAES: 1.90
     2s    -16.686243    2.339881
     2p    -12.523956    2.014332
  8     Wed Apr 25 08:07:45 CEST 2018   EN: 3.440 GM2: 0.452  GM3:-0.0517  RAES: 1.80
     2s    -20.229985    2.439742
     2p    -15.503117    2.137023

 Solvent             : h2o
 Using internal parameter file: .param_gbsa2_h2o
 Gsolv ref. state (COSMO-RS): gsolv [1 M gas/solution]
 temperature (mdtemp)       :    298.150000000000     
 dielectric constant        :    80.2000000000000     
 rho                        :    1.00000000000000     
 mass                       :    18.0000000000000     
 surface tension            :    15.5689454083859     
 probe radius               :   0.975313790000000     
 vdW radii scaling          :    1.00000000000000     
 Gshift (Eh)                :   1.857443126794793E-003
 c1                         :    1.55243817000000     
 soset                      :   0.130326360000000     
 HB correction              :  T
 Number of grid points      :          230

            Z     q(EN)     CN     RAES       Cart. coordinates
     1  N   5.0   -0.67    3.00    1.93    21.25903    19.06774    47.24668
     2  C   4.0    0.06    3.98    3.58    20.91188    20.06005    49.76739
     3  C   4.0    0.07    3.00    3.02    18.13286    20.82760    50.14617
     4  O   6.0   -0.37    1.00    1.80    16.91279    21.85143    48.47608
     5  C   4.0   -0.12    3.99    3.61    22.47931    22.48009    50.15144
     6  C   4.0   -0.04    3.02    3.02    25.27553    22.05559    50.43190
     7  C   4.0   -0.10    3.03    3.02    26.19955    20.70012    52.48296
     8  C   4.0   -0.11    3.03    3.02    26.99990    23.10787    48.75508
     9  C   4.0   -0.10    3.03    3.02    28.76429    20.39372    52.85537
    10  C   4.0   -0.10    3.03    3.02    29.57279    22.86080    49.13698
    11  C   4.0    0.09    3.03    3.02    30.48506    21.49482    51.19701
    12  O   6.0   -0.52    1.99    1.82    33.01812    21.26827    51.52853
    13  H   1.0    0.28    1.00    1.43    21.21637    20.32493    45.78691
    14  H   1.0    0.11    0.99    1.43    21.43626    18.60165    51.13209
    15  H   1.0    0.12    0.99    1.43    22.12444    23.73104    48.55233
    16  H   1.0    0.11    0.99    1.43    21.76739    23.40216    51.86010
    17  H   1.0    0.11    1.00    1.43    24.89487    19.87249    53.81209
    18  H   1.0    0.11    1.00    1.43    26.35262    24.13348    47.11576
    19  H   1.0    0.11    1.00    1.43    29.44009    19.32801    54.45940
    20  H   1.0    0.11    1.00    1.43    30.87228    23.73764    47.83191
    21  H   1.0    0.23    0.99    1.43    33.38544    20.03657    52.90988
    22  N   5.0   -0.68    3.00    1.93    42.49266    43.41667    44.74118
    23  C   4.0    0.08    3.99    3.60    44.57674    41.76188    45.39892
    24  C   4.0    0.28    3.01    3.02    46.89263    42.24747    43.73833
    25  O   6.0   -0.40    1.00    1.80    46.71646    42.49410    41.44848
    26  C   4.0   -0.14    3.99    3.60    43.69169    39.00363    45.02533
    27  C   4.0   -0.05    3.12    3.03    41.53236    38.45007    46.75449
    28  C   4.0   -0.00    3.22    3.04    39.00711    38.52228    46.20092
    29  C   4.0    0.00    3.18    3.03    41.71798    37.83732    49.37632
    30  N   5.0   -0.48    3.10    1.94    37.61431    37.96564    48.30164
    31  C   4.0    0.11    3.23    3.04    39.21545    37.51626    50.26482
    32  C   4.0   -0.11    3.02    3.02    43.72741    37.51730    51.04965
    33  C   4.0   -0.11    3.02    3.02    38.71555    36.85547    52.75545
    34  C   4.0   -0.11    3.03    3.02    43.22007    36.80748    53.49858
    35  C   4.0   -0.12    3.03    3.02    40.73793    36.48030    54.34975
    36  H   1.0    0.28    1.00    1.43    41.70881    43.13444    43.00622
    37  H   1.0    0.15    0.99    1.43    45.01922    42.10166    47.38661
    38  H   1.0    0.11    0.99    1.43    43.10246    38.78652    43.06066
    39  H   1.0    0.10    0.99    1.43    45.26438    37.74199    45.44379
    40  H   1.0    0.11    1.00    1.43    38.10681    38.93101    44.42812
    41  H   1.0    0.23    1.00    1.43    35.71564    37.81851    48.40479
    42  H   1.0    0.13    1.00    1.43    45.64295    37.85157    50.45349
    43  H   1.0    0.11    1.00    1.43    36.79051    36.65088    53.38744
    44  H   1.0    0.12    0.99    1.43    44.77254    36.49971    54.79144
    45  H   1.0    0.11    0.99    1.43    40.41671    35.96375    56.29891
    46  N   5.0   -0.49    3.01    1.93    49.11375    42.18902    44.97968
    47  C   4.0    0.07    3.99    3.61    51.49028    42.62986    43.70762
    48  C   4.0    0.27    3.01    3.02    53.31948    40.46970    44.25716
    49  O   6.0   -0.47    1.00    1.80    53.13524    39.14597    46.14851
    50  C   4.0   -0.21    3.98    3.59    52.70692    45.11755    44.55390
    51  H   1.0    0.28    1.00    1.43    49.09568    42.18758    46.89631
    52  H   1.0    0.14    0.99    1.43    51.07882    42.73918    41.68031
    53  H   1.0    0.10    0.99    1.43    54.49782    45.39430    43.58320
    54  H   1.0    0.12    0.99    1.43    51.46380    46.67961    44.07294
    55  H   1.0    0.11    0.99    1.43    53.05039    45.10740    46.58123
    56  N   5.0   -0.50    3.01    1.93    55.09086    40.07497    42.48226
    57  C   4.0    0.08    3.99    3.61    57.24356    38.42814    42.94937
    58  C   4.0    0.29    3.02    3.02    59.11125    39.79592    44.70707
    59  O   6.0   -0.43    1.00    1.80    60.11153    41.79774    44.02611
    60  C   4.0   -0.10    3.98    3.59    58.62114    37.76963    40.49894
    61  C   4.0    0.32    2.99    3.02    61.42197    37.10081    41.06938
    62  O   6.0   -0.39    1.00    1.80    61.88692    36.06115    43.13690
    63  O   6.0   -0.35    1.00    1.80    63.03407    37.68100    39.45073
    64  H   1.0    0.23    1.00    1.43    55.29135    41.33975    41.06468
    65  H   1.0    0.13    0.99    1.43    56.55213    36.72345    43.87897
    66  H   1.0    0.11    0.99    1.43    57.75533    36.16667    39.53879
    67  H   1.0    0.13    0.99    1.43    58.62810    39.37547    39.20113
    68  N   5.0   -0.33    3.02    1.93    59.50134    38.83857    46.99601
    69  C   4.0    0.06    4.02    3.66    61.34313    40.00730    48.67091
    70  C   4.0    0.10    3.00    3.02    63.68055    40.99986    47.30854
    71  O   6.0   -0.41    1.00    1.80    64.47007    43.13715    47.74476
    72  C   4.0   -0.14    4.01    3.63    62.02139    37.92178    50.55917
    73  C   4.0   -0.14    4.01    3.63    59.62760    36.31600    50.67278
    74  C   4.0   -0.03    4.01    3.64    58.62997    36.41440    47.96770
    75  H   1.0    0.12    0.99    1.43    60.47381    41.63584    49.61447
    76  H   1.0    0.12    0.99    1.43    63.59011    36.81974    49.80687
    77  H   1.0    0.10    0.99    1.43    62.56042    38.70348    52.37935
    78  H   1.0    0.11    0.99    1.43    60.01999    34.38605    51.24961
    79  H   1.0    0.11    0.99    1.43    58.26895    37.13329    51.98424
    80  H   1.0    0.15    0.99    1.43    59.43018    34.89737    46.81605
    81  H   1.0    0.13    0.99    1.43    56.57379    36.32066    47.90201
    82  N   5.0   -0.68    3.00    1.93    63.13534    46.46398    42.82331
    83  C   4.0    0.07    3.98    3.58    62.51441    48.75045    44.19818
    84  C   4.0    0.09    3.00    3.02    64.87192    49.87182    45.44599
    85  O   6.0   -0.41    1.00    1.80    65.42255    52.10803    45.16307
    86  C   4.0   -0.13    3.99    3.60    60.45537    48.18578    46.13694
    87  C   4.0   -0.10    3.98    3.58    59.70408    50.46517    47.76414
    88  C   4.0   -0.22    3.98    3.59    58.80015    52.68886    46.16473
    89  C   4.0   -0.24    3.99    3.59    57.63792    49.65809    49.61010
    90  H   1.0    0.32    1.00    1.43    62.25694    44.83884    43.31504
    91  H   1.0    0.12    0.99    1.43    61.86440    50.15992    42.81847
    92  H   1.0    0.11    0.99    1.43    58.80598    47.48428    45.10946
    93  H   1.0    0.14    0.99    1.43    61.14188    46.65726    47.34405
    94  H   1.0    0.12    0.99    1.43    61.37029    51.07968    48.82408
    95  H   1.0    0.11    0.99    1.43    58.02967    54.15806    47.37402
    96  H   1.0    0.13    0.99    1.43    60.35654    53.50056    45.09801
    97  H   1.0    0.10    0.99    1.43    57.33817    52.08807    44.85025
    98  H   1.0    0.09    0.99    1.43    57.11904    51.23104    50.82140
    99  H   1.0    0.10    0.99    1.43    55.97581    49.04509    48.57001
   100  H   1.0    0.09    0.99    1.43    58.29700    48.10626    50.78125
   101  N   5.0   -0.70    3.00    1.93    37.71023    35.21993    39.92267
   102  C   4.0    0.10    3.98    3.58    38.91834    32.76897    40.20633
   103  C   4.0    0.29    3.02    3.02    36.88291    30.89943    41.04653
   104  O   6.0   -0.38    1.01    1.80    35.82148    29.62326    39.41530
   105  C   4.0   -0.04    3.97    3.58    41.34373    32.95218    41.80038
   106  O   6.0   -0.48    1.99    1.82    41.83767    30.58412    42.91906
   107  H   1.0    0.29    1.00    1.43    36.07442    35.53201    40.85042
   108  H   1.0    0.15    0.99    1.43    39.44939    32.13981    38.30137
   109  H   1.0    0.10    0.99    1.43    42.87246    33.49832    40.51144
   110  H   1.0    0.09    0.99    1.43    41.12003    34.44456    43.22019
   111  H   1.0    0.23    0.99    1.43    43.28009    30.74839    44.02570
   112  N   5.0   -0.31    3.04    1.93    36.20026    30.72883    43.46238
   113  C   4.0    0.06    4.04    3.69    34.04996    29.11479    44.04514
   114  C   4.0    0.08    3.00    3.02    31.70419    30.37171    42.92003
   115  O   6.0   -0.38    1.00    1.80    31.45523    32.67467    42.90388
   116  C   4.0   -0.14    4.01    3.63    33.91661    29.00453    46.94288
   117  C   4.0   -0.14    4.01    3.64    36.32200    30.34303    47.81572
   118  C   4.0   -0.03    4.03    3.67    36.83758    32.19967    45.67824
   119  H   1.0    0.13    0.99    1.43    34.31861    27.26318    43.17553
   120  H   1.0    0.11    0.99    1.43    32.25482    30.01538    47.61071
   121  H   1.0    0.10    0.99    1.43    33.81207    27.06595    47.60753
   122  H   1.0    0.10    0.99    1.43    36.08815    31.28730    49.62565
   123  H   1.0    0.11    0.99    1.43    37.88064    29.00580    47.93049
   124  H   1.0    0.13    0.99    1.43    35.54427    33.81068    45.80692
   125  H   1.0    0.12    0.99    1.43    38.77580    32.84774    45.66118
   126  N   5.0   -0.68    3.00    1.93    32.90501    19.58385    42.28763
   127  C   4.0    0.07    3.98    3.59    33.86989    19.39395    44.84881
   128  C   4.0    0.29    3.01    3.02    36.35186    20.87424    45.08531
   129  O   6.0   -0.36    1.00    1.80    37.81521    21.10237    43.30826
   130  C   4.0   -0.15    3.98    3.59    34.27766    16.60976    45.53719
   131  C   4.0   -0.15    3.98    3.59    34.63595    16.26185    48.38018
   132  C   4.0   -0.04    3.99    3.60    34.47514    13.49283    49.15858
   133  N   5.0   -0.46    3.02    1.93    34.70031    13.32121    51.88936
   134  C   4.0    0.36    3.01    3.02    34.68824    11.16850    53.16163
   135  N   5.0   -0.64    3.01    1.93    34.70283     8.94643    51.93513
   136  N   5.0   -0.65    3.02    1.93    34.96419    11.21123    55.66034
   137  H   1.0    0.27    1.00    1.43    33.19547    18.11222    41.11285
   138  H   1.0    0.11    0.99    1.43    32.45705    20.23520    46.10061
   139  H   1.0    0.10    0.99    1.43    32.60190    15.57237    44.93408
   140  H   1.0    0.13    0.99    1.43    35.91435    15.89545    44.51032
   141  H   1.0    0.14    0.99    1.43    36.45267    17.03637    48.95604
   142  H   1.0    0.12    0.99    1.43    33.14422    17.27906    49.36344
   143  H   1.0    0.11    0.99    1.43    32.65205    12.72617    48.54478
   144  H   1.0    0.14    0.99    1.43    36.00306    12.42373    48.27277
   145  H   1.0    0.22    1.00    1.43    34.50934    14.96635    52.92856
   146  H   1.0    0.26    1.00    1.43    34.17487     8.88655    50.10936
   147  H   1.0    0.26    1.00    1.43    34.53757     7.33010    52.92772
   148  H   1.0    0.25    1.00    1.43    34.84180    12.88239    56.66899
   149  H   1.0    0.26    1.00    1.43    34.80765     9.59953    56.65319
   150  N   5.0   -0.50    3.01    1.93    36.84660    21.80062    47.39266
   151  C   4.0    0.07    4.00    3.61    39.32038    22.86983    47.90316
   152  C   4.0    0.29    3.02    3.02    41.28576    20.93022    47.00273
   153  O   6.0   -0.44    1.00    1.80    40.92710    18.67121    47.43845
   154  C   4.0   -0.13    3.99    3.60    39.59468    23.31799    50.76253
   155  C   4.0   -0.05    3.03    3.02    41.70027    25.12966    51.36929
   156  C   4.0   -0.08    3.03    3.02    44.20604    24.33956    51.34073
   157  C   4.0   -0.10    3.03    3.02    41.16824    27.63791    51.92602
   158  C   4.0   -0.09    3.03    3.02    46.13750    26.03237    51.83258
   159  C   4.0   -0.11    3.03    3.02    43.09569    29.32360    52.46321
   160  C   4.0   -0.10    3.03    3.02    45.58617    28.52385    52.41566
   161  H   1.0    0.26    1.00    1.43    35.59039    21.66041    48.83376
   162  H   1.0    0.12    0.99    1.43    39.52887    24.63829    46.85662
   163  H   1.0    0.11    0.99    1.43    37.82269    24.10827    51.45832
   164  H   1.0    0.12    0.99    1.43    39.94563    21.49548    51.66058
   165  H   1.0    0.16    1.00    1.43    44.66824    22.40462    50.90079
   166  H   1.0    0.11    1.00    1.43    39.23614    28.27444    51.98769
   167  H   1.0    0.15    0.99    1.43    48.07810    25.40138    51.73779
   168  H   1.0    0.11    1.00    1.43    42.64798    31.26354    52.91051
   169  H   1.0    0.13    1.00    1.43    47.10880    29.80704    52.85150
   170  N   5.0   -0.33    3.03    1.93    43.37256    21.78077    45.88392
   171  C   4.0    0.07    4.03    3.67    45.46786    20.10641    45.24968
   172  C   4.0    0.29    3.01    3.02    46.06152    18.21520    47.33622
   173  O   6.0   -0.42    1.00    1.80    45.69743    18.64968    49.57004
   174  C   4.0   -0.13    4.01    3.64    47.68272    21.93429    44.90790
   175  C   4.0   -0.15    4.01    3.64    46.40690    24.21766    43.69517
   176  C   4.0   -0.05    4.01    3.65    43.87702    24.36948    45.08642
   177  H   1.0    0.13    0.99    1.43    45.07360    19.09145    43.48451
   178  H   1.0    0.13    0.99    1.43    48.43826    22.42675    46.76677
   179  H   1.0    0.13    0.99    1.43    49.21135    21.12907    43.78765
   180  H   1.0    0.10    0.99    1.43    47.52042    25.92730    43.92229
   181  H   1.0    0.12    0.99    1.43    46.11490    23.86595    41.68776
   182  H   1.0    0.11    0.99    1.43    44.04134    25.59440    46.74187
   183  H   1.0    0.13    0.99    1.43    42.37259    25.04377    43.84400
   184  N   5.0   -0.48    3.01    1.93    46.95250    15.99213    46.48600
   185  C   4.0    0.08    3.99    3.61    47.80365    14.06442    48.23675
   186  C   4.0    0.29    3.01    3.02    50.14624    14.80302    49.76858
   187  O   6.0   -0.40    1.00    1.80    50.17482    14.56479    52.06657
   188  C   4.0   -0.10    3.98    3.58    48.33123    11.59337    46.82843
   189  C   4.0    0.32    2.99    3.02    49.94023    11.79991    44.34972
   190  O   6.0   -0.42    1.00    1.80    50.71100    13.94154    43.67022
   191  O   6.0   -0.36    1.00    1.80    50.27184     9.78049    43.21105
   192  H   1.0    0.28    1.00    1.43    47.83563    15.90192    44.78271
   193  H   1.0    0.15    0.99    1.43    46.30292    13.79342    49.64134
   194  H   1.0    0.13    0.99    1.43    49.34300    10.28243    48.05729
   195  H   1.0    0.12    0.99    1.43    46.56738    10.68991    46.26885
   196  N   5.0   -0.46    3.00    1.93    52.08977    15.66372    48.39086
   197  C   4.0    0.10    4.00    3.61    54.58061    15.86244    49.47101
   198  C   4.0    0.27    3.02    3.02    55.48629    18.57705    49.85905
   199  O   6.0   -0.40    1.00    1.80    57.14192    19.07658    51.39878
   200  C   4.0   -0.00    3.98    3.59    56.52118    14.50759    47.80285
   201  O   6.0   -0.44    1.99    1.82    56.05521    11.89619    47.93055
   202  H   1.0    0.29    1.00    1.43    51.94269    15.45719    46.47007
   203  H   1.0    0.17    0.99    1.43    54.54273    14.93497    51.32696
   204  H   1.0    0.14    0.99    1.43    56.32614    15.22716    45.86043
   205  H   1.0    0.13    0.99    1.43    58.42957    14.95333    48.49396
   206  H   1.0    0.27    0.99    1.43    57.19863    11.01544    46.81121
   207  N   5.0   -0.44    3.01    1.93    54.35674    20.30349    48.40974
   208  C   4.0    0.08    4.00    3.62    55.37359    22.83589    48.25153
   209  C   4.0    0.28    3.01    3.02    54.33866    24.46910    50.40686
   210  O   6.0   -0.41    1.00    1.80    52.38506    23.98186    51.52865
   211  C   4.0   -0.11    3.98    3.59    54.63492    24.01604    45.71613
   212  C   4.0    0.31    2.99    3.02    55.26265    22.08198    43.56436
   213  O   6.0   -0.36    1.00    1.80    57.17892    22.48121    42.27688
   214  O   6.0   -0.41    1.00    1.80    53.76337    20.26080    43.37823
   215  H   1.0    0.29    1.00    1.43    53.41714    19.73111    46.82232
   216  H   1.0    0.14    0.99    1.43    57.44429    22.73024    48.41136
   217  H   1.0    0.11    0.99    1.43    52.60680    24.37635    45.70406
   218  H   1.0    0.12    0.99    1.43    55.67697    25.76122    45.39734
   219  N   5.0   -0.49    3.01    1.93    55.76358    26.50994    50.89029
   220  C   4.0    0.08    4.00    3.61    54.90029    28.59046    52.43094
   221  C   4.0    0.26    3.01    3.02    54.17218    30.79210    50.69498
   222  O   6.0   -0.45    1.00    1.80    55.26030    31.17774    48.69068
   223  C   4.0   -0.12    3.99    3.60    56.96604    29.50579    54.26133
   224  C   4.0   -0.02    3.03    3.02    57.29789    27.72892    56.44830
   225  C   4.0   -0.07    3.03    3.02    58.59017    25.46265    56.14838
   226  C   4.0   -0.08    3.03    3.02    56.30313    28.31930    58.80605
   227  C   4.0   -0.09    3.03    3.02    58.92087    23.84291    58.17391
   228  C   4.0   -0.09    3.03    3.02    56.64477    26.71047    60.83934
   229  C   4.0   -0.10    3.03    3.02    57.96932    24.47373    60.53019
   230  H   1.0    0.24    1.00    1.43    57.22631    26.90789    49.73040
   231  H   1.0    0.17    0.99    1.43    53.24844    27.93736    53.48320
   232  H   1.0    0.11    0.99    1.43    58.73490    29.69234    53.21218
   233  H   1.0    0.11    0.99    1.43    56.41298    31.36567    54.95713
   234  H   1.0    0.14    1.00    1.43    59.35042    24.95808    54.32298
   235  H   1.0    0.13    0.99    1.43    55.26866    30.06140    59.05997
   236  H   1.0    0.13    1.00    1.43    59.94295    22.09901    57.90088
   237  H   1.0    0.13    1.00    1.43    55.90432    27.22037    62.66932
   238  H   1.0    0.12    1.00    1.43    58.30226    23.24903    62.12714
   239  N   5.0   -0.50    3.01    1.93    52.28427    32.20949    51.58292
   240  C   4.0    0.07    3.99    3.61    51.35629    34.43926    50.30379
   241  C   4.0    0.26    3.01    3.02    51.00228    36.54277    52.26884
   242  O   6.0   -0.46    1.00    1.80    50.42314    36.04483    54.45684
   243  C   4.0   -0.14    3.98    3.59    48.80704    33.92276    48.99439
   244  C   4.0   -0.16    3.98    3.58    48.82928    31.62532    47.24025
   245  C   4.0   -0.14    3.98    3.58    50.41883    31.92512    44.84444
   246  C   4.0   -0.06    3.98    3.58    49.42263    34.00626    43.10845
   247  N   5.0   -0.73    3.98    2.82    50.52057    33.73516    40.52870
   248  H   1.0    0.28    1.00    1.43    51.46210    31.74365    53.25401
   249  H   1.0    0.14    0.99    1.43    52.77788    34.99696    48.91479
   250  H   1.0    0.11    0.99    1.43    47.39401    33.58961    50.45792
   251  H   1.0    0.10    0.99    1.43    48.28036    35.61997    47.95683
   252  H   1.0    0.13    0.99    1.43    49.54357    29.99552    48.28164
   253  H   1.0    0.09    0.99    1.43    46.87701    31.21372    46.72098
   254  H   1.0    0.14    0.99    1.43    52.37932    32.28627    45.36512
   255  H   1.0    0.11    0.99    1.43    50.37911    30.11828    43.84763
   256  H   1.0    0.10    0.99    1.43    47.36792    33.88785    42.96158
   257  H   1.0    0.13    0.99    1.43    49.93033    35.86611    43.83848
   258  H   1.0    0.25    1.00    1.43    49.88469    35.14733    39.34845
   259  H   1.0    0.25    1.00    1.43    52.46365    33.83575    40.61938
   260  H   1.0    0.24    1.00    1.43    50.03573    32.00690    39.75877
   261  N   5.0   -0.50    3.01    1.93    51.32158    38.88379    51.39415
   262  C   4.0    0.09    4.00    3.61    51.05200    41.11817    52.96441
   263  C   4.0    0.27    3.01    3.02    48.45345    42.29065    52.46812
   264  O   6.0   -0.47    1.00    1.80    47.66866    42.54769    50.30592
   265  C   4.0   -0.08    3.98    3.59    53.09586    43.09402    52.36126
   266  C   4.0   -0.23    3.98    3.59    52.86396    45.32804    54.16536
   267  C   4.0   -0.21    3.98    3.59    55.71962    41.92064    52.53566
   268  H   1.0    0.28    1.00    1.43    51.81603    39.15399    49.55726
   269  H   1.0    0.15    0.99    1.43    51.20033    40.52998    54.93854
   270  H   1.0    0.12    0.99    1.43    52.78559    43.75722    50.42411
   271  H   1.0    0.09    0.99    1.43    54.34709    46.69452    53.78365
   272  H   1.0    0.12    0.99    1.43    51.05421    46.27515    53.95703
   273  H   1.0    0.12    0.99    1.43    53.05768    44.68914    56.10689
   274  H   1.0    0.09    0.99    1.43    57.14660    43.38128    52.31337
   275  H   1.0    0.14    0.99    1.43    55.98421    41.02214    54.36531
   276  H   1.0    0.12    0.99    1.43    55.98422    40.53072    51.04936
   277  N   5.0   -0.49    3.01    1.93    47.16489    42.97968    54.52070
   278  C   4.0    0.07    3.99    3.60    44.55361    43.80229    54.45842
   279  C   4.0    0.07    3.00    3.02    44.31910    46.67889    54.78780
   280  O   6.0   -0.46    1.00    1.80    44.92148    47.75838    56.75071
   281  C   4.0   -0.11    3.99    3.61    43.16449    42.49376    56.63241
   282  C   4.0   -0.04    3.03    3.02    40.38153    43.01647    56.79628
   283  C   4.0   -0.10    3.03    3.02    38.83267    43.09509    54.67517
   284  C   4.0   -0.11    3.04    3.02    39.28147    43.29804    59.16297
   285  C   4.0   -0.07    3.03    3.02    36.25294    43.43387    54.91937
   286  C   4.0   -0.10    3.03    3.02    36.71089    43.64949    59.42901
   287  C   4.0    0.11    3.03    3.02    35.17406    43.70067    57.30263
   288  O   6.0   -0.45    1.99    1.83    32.62665    44.00498    57.47894
   289  H   1.0    0.27    1.00    1.43    47.94869    42.70735    56.24439
   290  H   1.0    0.13    0.99    1.43    43.79755    43.26190    52.61357
   291  H   1.0    0.12    0.99    1.43    43.43666    40.45774    56.42742
   292  H   1.0    0.12    0.99    1.43    44.06084    43.09652    58.38964
   293  H   1.0    0.12    1.00    1.43    39.63071    42.85584    52.81568
   294  H   1.0    0.11    1.00    1.43    40.44471    43.20908    60.83407
   295  H   1.0    0.14    1.00    1.43    35.03927    43.48421    53.28065
   296  H   1.0    0.12    1.00    1.43    35.88588    43.88513    61.28066
   297  H   1.0    0.26    0.99    1.43    32.15372    44.23350    59.22771
   298  N   5.0   -0.67    3.00    1.93    41.21400    48.74345    60.76760
   299  C   4.0    0.07    3.98    3.59    42.14399    48.17347    63.27870
   300  C   4.0    0.11    3.00    3.02    42.03337    50.62412    64.86056
   301  O   6.0   -0.35    1.00    1.80    42.69261    52.66060    63.99061
   302  C   4.0   -0.10    3.99    3.60    44.84651    47.13961    63.14962
   303  C   4.0    0.26    3.00    3.02    45.98477    47.17583    65.78530
   304  O   6.0   -0.43    1.00    1.80    46.99516    49.08505    66.63789
   305  N   5.0   -0.66    3.00    1.93    45.72637    45.05496    67.11809
   306  H   1.0    0.31    1.00    1.43    42.49101    48.82922    59.33656
   307  H   1.0    0.10    0.99    1.43    40.86337    46.78589    64.13153
   308  H   1.0    0.10    0.99    1.43    44.81153    45.23783    62.36619
   309  H   1.0    0.13    0.99    1.43    45.96688    48.35650    61.91894
   310  H   1.0    0.29    1.00    1.43    46.40583    44.99466    68.89863
   311  H   1.0    0.29    1.00    1.43    44.85062    43.49485    66.43068
   312  N   5.0   -0.68    3.00    1.93    48.14255    54.48137    65.00588
   313  C   4.0    0.07    3.98    3.59    49.07718    55.31045    62.57803
   314  C   4.0    0.09    3.00    3.02    47.43572    57.39904    61.45608
   315  O   6.0   -0.39    1.00    1.80    48.42324    59.21988    60.40511
   316  C   4.0   -0.13    3.99    3.60    49.25614    53.16937    60.65371
   317  C   4.0   -0.10    3.98    3.58    51.09210    51.04385    61.38275
   318  C   4.0   -0.22    3.99    3.60    51.28001    49.19107    59.17718
   319  C   4.0   -0.22    3.98    3.59    53.72857    52.02277    62.02840
   320  H   1.0    0.31    1.00    1.43    47.80577    52.62086    65.31423
   321  H   1.0    0.12    0.99    1.43    50.94850    56.16797    62.85252
   322  H   1.0    0.14    0.99    1.43    47.36528    52.39798    60.35666
   323  H   1.0    0.11    0.99    1.43    49.87838    54.00112    58.87048
   324  H   1.0    0.13    0.99    1.43    50.36766    50.05558    63.05096
   325  H   1.0    0.13    0.99    1.43    52.58057    47.67772    59.65965
   326  H   1.0    0.13    0.99    1.43    49.44230    48.41230    58.68780
   327  H   1.0    0.10    0.99    1.43    52.02861    50.16150    57.53097
   328  H   1.0    0.12    0.99    1.43    55.00010    50.42859    62.29410
   329  H   1.0    0.10    0.99    1.43    54.45926    53.19978    60.51200
   330  H   1.0    0.10    0.99    1.43    53.74278    53.11099    63.77462
   331  N   5.0   -0.71    3.00    1.93    63.27582    50.77213    62.25618
   332  C   4.0    0.07    3.98    3.58    63.69409    48.64645    60.58609
   333  C   4.0    0.07    3.00    3.02    65.81224    46.96615    61.62615
   334  O   6.0   -0.44    1.00    1.80    65.57579    44.65364    61.68602
   335  C   4.0   -0.13    3.99    3.60    64.30729    49.52868    57.91220
   336  C   4.0   -0.10    3.98    3.58    62.16658    51.03738    56.66177
   337  C   4.0   -0.23    3.98    3.59    63.00958    51.84134    54.02049
   338  C   4.0   -0.23    3.98    3.59    59.71779    49.51947    56.50940
   339  H   1.0    0.25    1.00    1.43    63.44820    52.55483    61.58034
   340  H   1.0    0.13    0.99    1.43    61.99865    47.44925    60.59109
   341  H   1.0    0.11    0.99    1.43    66.00960    50.69177    58.00540
   342  H   1.0    0.11    0.99    1.43    64.71996    47.85047    56.78522
   343  H   1.0    0.11    0.99    1.43    61.80944    52.73599    57.78572
   344  H   1.0    0.10    0.99    1.43    61.55339    52.96392    53.10751
   345  H   1.0    0.11    0.99    1.43    64.72326    52.97101    54.11555
   346  H   1.0    0.11    0.99    1.43    63.38041    50.18675    52.86154
   347  H   1.0    0.09    0.99    1.43    58.31783    50.55894    55.42669
   348  H   1.0    0.10    0.99    1.43    60.04320    47.70828    55.59600
   349  H   1.0    0.10    0.99    1.43    58.92905    49.16517    58.37326
   350  N   5.0   -0.70    3.00    1.92    63.87485    42.51321    66.28235
   351  C   4.0    0.03    3.98    3.59    62.06584    40.70149    65.37635
   352  C   4.0    0.27    3.01    3.02    59.32625    41.54400    65.66384
   353  O   6.0   -0.42    1.00    1.80    57.56823    40.14164    65.08171
   354  H   1.0    0.32    1.00    1.43    64.61227    43.70199    64.97739
   355  H   1.0    0.13    0.99    1.43    62.45114    40.31098    63.39097
   356  H   1.0    0.13    0.99    1.43    62.26017    38.94537    66.45685
   357  N   5.0   -0.46    3.01    1.93    58.97639    43.83505    66.63832
   358  C   4.0    0.10    4.00    3.62    56.46936    44.72469    67.24923
   359  C   4.0    0.29    3.01    3.02    54.81488    44.60262    64.87868
   360  O   6.0   -0.44    1.00    1.80    55.32971    45.80529    62.98387
   361  C   4.0    0.03    3.98    3.59    56.57696    47.47773    68.16379
   362  O   6.0   -0.47    1.99    1.82    58.33607    47.63981    70.15139
   363  C   4.0   -0.21    3.98    3.59    53.96522    48.37189    68.99728
   364  H   1.0    0.24    1.00    1.43    60.44128    45.03124    66.91326
   365  H   1.0    0.13    0.99    1.43    55.69128    43.52748    68.75335
   366  H   1.0    0.12    0.99    1.43    57.22707    48.63914    66.55658
   367  H   1.0    0.25    0.99    1.43    58.28047    49.38870    70.76911
   368  H   1.0    0.11    0.99    1.43    54.13995    50.30279    69.67493
   369  H   1.0    0.12    0.99    1.43    52.63416    48.31850    67.43613
   370  H   1.0    0.12    0.99    1.43    53.29117    47.18801    70.53318
   371  N   5.0   -0.49    3.00    1.93    52.71994    43.18200    65.09854
   372  C   4.0    0.03    3.99    3.61    50.83303    43.08202    63.13885
   373  C   4.0    0.28    3.00    3.02    51.18898    41.10239    61.06552
   374  O   6.0   -0.48    1.00    1.80    49.91255    41.24247    59.13947
   375  H   1.0    0.25    1.00    1.43    52.52759    42.01103    66.58811
   376  H   1.0    0.12    0.99    1.43    48.99745    42.70472    64.00799
   377  H   1.0    0.12    0.99    1.43    50.76093    44.93016    62.21669
   378  N   5.0   -0.45    3.01    1.93    52.81992    39.24622    61.54690
   379  C   4.0    0.10    3.99    3.61    53.13346    37.09216    59.89671
   380  C   4.0    0.26    3.01    3.02    51.73997    34.79284    61.01121
   381  O   6.0   -0.39    1.00    1.80    51.78833    34.31246    63.27028
   382  C   4.0   -0.01    3.98    3.58    55.93616    36.47360    59.54767
   383  O   6.0   -0.49    1.99    1.82    56.96479    38.18649    57.78591
   384  H   1.0    0.29    1.00    1.43    53.95177    39.31461    63.08877
   385  H   1.0    0.16    0.99    1.43    52.31732    37.57112    58.05910
   386  H   1.0    0.13    0.99    1.43    56.88257    36.61658    61.38554
   387  H   1.0    0.10    0.99    1.43    56.12607    34.52876    58.84201
   388  H   1.0    0.25    0.99    1.43    58.78224    38.07218    57.83621
   389  N   5.0   -0.49    3.01    1.93    50.53671    33.38833    59.29050
   390  C   4.0    0.08    3.99    3.61    48.96749    31.25047    59.94606
   391  C   4.0    0.26    3.01    3.02    49.63150    28.98822    58.27254
   392  O   6.0   -0.47    1.00    1.80    50.48341    29.31902    56.14787
   393  C   4.0   -0.12    3.99    3.60    46.14199    31.86876    59.50403
   394  C   4.0   -0.03    3.03    3.02    45.29347    34.02489    61.14446
   395  C   4.0   -0.08    3.03    3.02    45.86485    36.50872    60.51026
   396  C   4.0   -0.09    3.03    3.02    43.97142    33.57625    63.36719
   397  C   4.0   -0.07    3.03    3.02    45.16432    38.48122    62.06614
   398  C   4.0   -0.09    3.02    3.02    43.23274    35.53959    64.92662
   399  C   4.0    0.11    3.03    3.02    43.85067    38.01114    64.28949
   400  O   6.0   -0.50    1.99    1.83    43.20610    40.02582    65.77777
   401  H   1.0    0.28    1.00    1.43    50.48890    33.95333    57.45531
   402  H   1.0    0.14    0.99    1.43    49.29955    30.84267    61.93973
   403  H   1.0    0.11    0.99    1.43    45.90308    32.34575    57.51066
   404  H   1.0    0.12    0.99    1.43    45.05433    30.17415    59.93856
   405  H   1.0    0.14    1.00    1.43    46.88864    36.93622    58.79941
   406  H   1.0    0.14    0.99    1.43    43.50907    31.65959    63.89628
   407  H   1.0    0.13    1.00    1.43    45.64360    40.39355    61.55570
   408  H   1.0    0.14    0.99    1.43    42.17503    35.13077    66.62646
   409  H   1.0    0.26    0.99    1.43    42.22273    39.43552    67.20163
   410  N   5.0   -0.48    3.01    1.93    49.16249    26.69678    59.25805
   411  C   4.0    0.08    3.99    3.61    49.14705    24.46475    57.67868
   412  C   4.0    0.30    3.02    3.02    46.52609    23.28162    57.84804
   413  O   6.0   -0.42    1.00    1.80    44.88060    24.19008    59.20454
   414  C   4.0   -0.08    3.99    3.60    51.28343    22.63575    58.38477
   415  C   4.0    0.29    3.00    3.02    50.80842    21.29808    60.87062
   416  O   6.0   -0.40    1.00    1.80    48.67342    20.92080    61.69810
   417  N   5.0   -0.65    3.00    1.93    52.88098    20.53581    62.07434
   418  H   1.0    0.29    1.00    1.43    48.17248    26.56326    60.89684
   419  H   1.0    0.14    0.99    1.43    49.47279    25.08590    55.72875
   420  H   1.0    0.13    0.99    1.43    51.48891    21.21117    56.90399
   421  H   1.0    0.13    0.99    1.43    53.04598    23.70073    58.46856
   422  H   1.0    0.28    1.00    1.43    52.73843    19.55654    63.70836
   423  H   1.0    0.26    1.00    1.43    54.60897    20.82609    61.33186
   424  N   5.0   -0.49    3.01    1.93    46.08490    21.23224    56.44138
   425  C   4.0    0.07    3.99    3.61    43.53873    20.20561    56.30864
   426  C   4.0    0.10    3.00    3.02    42.37098    20.07145    58.94764
   427  O   6.0   -0.42    1.00    1.80    40.25187    20.87617    59.39591
   428  C   4.0   -0.14    3.98    3.59    43.60830    17.57417    55.11377
   429  C   4.0   -0.15    3.98    3.59    41.01999    16.28733    55.10715
   430  C   4.0   -0.03    3.99    3.60    41.10157    13.80523    53.64553
   431  N   5.0   -0.47    3.02    1.93    41.08611    14.29317    50.94318
   432  C   4.0    0.37    3.01    3.02    41.15686    12.53408    49.16545
   433  N   5.0   -0.64    3.01    1.93    41.19729    10.08216    49.75590
   434  N   5.0   -0.65    3.02    1.93    40.93063    13.24610    46.75755
   435  H   1.0    0.25    1.00    1.43    47.32352    20.65714    55.10968
   436  H   1.0    0.13    0.99    1.43    42.34495    21.48145    55.19029
   437  H   1.0    0.16    0.99    1.43    44.30707    17.78040    53.18665
   438  H   1.0    0.13    0.99    1.43    44.95590    16.40431    56.14649
   439  H   1.0    0.11    0.99    1.43    40.41943    15.90720    57.04166
   440  H   1.0    0.11    0.99    1.43    39.60137    17.52779    54.27122
   441  H   1.0    0.12    0.99    1.43    42.82704    12.78763    54.16620
   442  H   1.0    0.14    0.99    1.43    39.44318    12.67668    54.13793
   443  H   1.0    0.28    1.00    1.43    41.10081    16.11730    50.34826
   444  H   1.0    0.26    1.00    1.43    41.56335     9.52813    51.53991
   445  H   1.0    0.26    1.00    1.43    41.39367     8.78178    48.37592
   446  H   1.0    0.32    1.00    1.43    40.96102    15.12085    46.36329
   447  H   1.0    0.27    1.00    1.43    41.26432    12.02691    45.33512
   448  N   5.0   -0.68    3.00    1.93    43.99632    22.43152    64.76033
   449  C   4.0    0.10    3.98    3.59    43.48253    24.68609    66.21739
   450  C   4.0    0.30    3.01    3.02    41.39284    26.25971    64.98735
   451  O   6.0   -0.48    1.00    1.80    39.78156    27.31432    66.31310
   452  C   4.0   -0.02    3.98    3.58    45.87116    26.21867    66.73635
   453  O   6.0   -0.48    1.99    1.82    46.90097    27.18289    64.47061
   454  H   1.0    0.33    1.00    1.43    45.64982    22.23869    63.81011
   455  H   1.0    0.11    0.99    1.43    42.72452    24.09024    68.05947
   456  H   1.0    0.11    0.99    1.43    45.36438    27.76332    68.02045
   457  H   1.0    0.11    0.99    1.43    47.23795    24.97458    67.67353
   458  H   1.0    0.25    0.99    1.43    48.35144    28.18996    64.93250
   459  N   5.0   -0.47    3.01    1.93    41.39608    26.39247    62.49446
   460  C   4.0    0.07    3.99    3.61    39.42440    27.68534    61.09860
   461  C   4.0    0.10    3.00    3.02    36.81245    26.66772    61.79382
   462  O   6.0   -0.40    1.00    1.80    35.10461    28.10694    62.46868
   463  C   4.0   -0.12    3.99    3.61    39.83446    27.33074    58.25247
   464  C   4.0   -0.03    3.03    3.02    37.52264    28.11628    56.79920
   465  C   4.0   -0.09    3.03    3.02    36.91166    30.64945    56.51152
   466  C   4.0   -0.09    3.04    3.02    35.94824    26.30939    55.73360
   467  C   4.0   -0.10    3.03    3.02    34.77921    31.34309    55.17150
   468  C   4.0   -0.09    3.03    3.02    33.79662    27.00033    54.41900
   469  C   4.0   -0.10    3.03    3.02    33.20917    29.53058    54.12912
   470  H   1.0    0.32    1.00    1.43    42.77606    25.53062    61.46953
   471  H   1.0    0.13    0.99    1.43    39.42029    29.70051    61.59590
   472  H   1.0    0.11    0.99    1.43    41.46870    28.43751    57.65530
   473  H   1.0    0.15    0.99    1.43    40.23353    25.33989    57.90230
   474  H   1.0    0.11    1.00    1.43    38.12325    32.08087    57.31129
   475  H   1.0    0.12    1.00    1.43    36.44799    24.34118    55.91814
   476  H   1.0    0.11    1.00    1.43    34.35387    33.31785    54.92461
   477  H   1.0    0.13    1.00    1.43    32.58948    25.57433    53.60845
   478  H   1.0    0.12    1.00    1.43    31.55097    30.08591    53.08123
   479  N   5.0   -0.69    3.00    1.93    34.93357    28.25752    68.42184
   480  C   4.0    0.09    3.98    3.58    34.51158    30.91818    68.90515
   481  C   4.0    0.08    3.00    3.02    31.99706    31.84315    67.80354
   482  O   6.0   -0.39    1.00    1.80    30.60530    33.30211    68.91780
   483  C   4.0   -0.00    3.98    3.59    36.63387    32.51225    67.71187
   484  O   6.0   -0.49    1.99    1.82    39.01715    32.09814    68.77005
   485  H   1.0    0.33    1.00    1.43    36.27074    27.79641    67.13129
   486  H   1.0    0.14    0.99    1.43    34.44867    31.22424    70.95223
   487  H   1.0    0.13    0.99    1.43    36.66073    32.13285    65.67047
   488  H   1.0    0.13    0.99    1.43    36.18499    34.50318    68.02382
   489  H   1.0    0.30    0.99    1.43    39.51975    30.37691    68.38363
   490  H   1.0    0.29    1.00    1.43    22.77525    18.30456    47.14081
   491  H   1.0    0.13    1.00    1.43    17.27607    20.49067    51.79646
   492  H   1.0    0.30    1.00    1.43    41.23313    43.21820    45.86668
   493  H   1.0    0.17    1.00    1.43    64.57740    39.90836    46.05341
   494  H   1.0    0.31    1.00    1.43    62.76858    46.67477    41.17600
   495  H   1.0    0.16    1.00    1.43    65.98848    48.77926    46.50933
   496  H   1.0    0.29    1.00    1.43    38.76296    36.43851    40.46985
   497  H   1.0    0.13    1.00    1.43    30.32925    29.31079    42.17500
   498  H   1.0    0.29    1.00    1.43    31.21721    19.78893    42.33055
   499  H   1.0    0.13    1.00    1.43    43.65567    47.74100    53.37258
   500  H   1.0    0.30    1.00    1.43    40.09503    47.55380    60.29301
   501  H   1.0    0.14    1.00    1.43    41.41062    50.57031    66.64391
   502  H   1.0    0.30    1.00    1.43    49.25759    54.90491    66.21825
   503  H   1.0    0.16    1.00    1.43    45.55303    57.28788    61.57513
   504  H   1.0    0.29    1.00    1.43    61.68992    50.71037    62.86748
   505  H   1.0    0.14    1.00    1.43    67.40958    47.74702    62.26632
   506  H   1.0    0.31    1.00    1.43    63.14644    43.50405    67.45718
   507  H   1.0    0.16    1.00    1.43    43.34590    19.30687    60.37452
   508  H   1.0    0.30    1.00    1.43    43.96194    21.07383    65.78408
   509  H   1.0    0.15    1.00    1.43    36.46722    24.81189    61.70555
   510  H   1.0    0.31    1.00    1.43    35.41304    27.48817    69.86086
   511  H   1.0    0.16    1.00    1.43    31.43622    31.24852    66.09974

           ------------------------------------------------- 
          |        Self-Consistent Charge Iterations        |
           ------------------------------------------------- 

          ...................................................
          :                      SETUP                      :
          :.................................................:
          :  # basis functions                1279          :
          :  # atomic orbitals                1279          :
          :  # shells                          767          :
          :  # electrons                      1416          :
          :  max. iterations                   250          :
          :  Hamiltonian                  GFN2-xTB          :
          :  restarted?                      false          :
          :  GBSA solvation                   true          :
          :  PC potential                    false          :
          :  electronic temp.          500.0000000     K    :
          :  accuracy                    0.1000000          :
          :  -> integral cutoff          0.3500000E+02      :
          :  -> integral neglect         0.1000000E-08      :
          :  -> SCF convergence          0.1000000E-06 Eh   :
          :  -> wf. convergence          0.1000000E-04 e    :
          :  Broyden damping             0.4000000          :
          ...................................................

 iter      E             dE          RMSdq      gap      omega  full diag
   1   -811.2013374 -0.811201E+03  0.439E+00    1.94       0.0  T
   2   -813.0326944 -0.183136E+01  0.232E+00    1.52       1.0  T
   3   -813.0983407 -0.656464E-01  0.122E+00    1.84       1.0  T
   4   -813.1473501 -0.490094E-01  0.306E-01    1.22       1.0  T
   5   -813.1741150 -0.267649E-01  0.121E-01    1.37       1.0  T
   6   -813.1755390 -0.142405E-02  0.648E-02    1.37       1.0  T
   7   -813.1761114 -0.572389E-03  0.312E-02    1.38       1.0  T
   8   -813.1762183 -0.106888E-03  0.128E-02    1.39       1.0  T
   9   -813.1762404 -0.220951E-04  0.711E-03    1.39       1.0  T
  10   -813.1762470 -0.659426E-05  0.356E-03    1.39       1.2  T
  11   -813.1762488 -0.177286E-05  0.158E-03    1.39       2.8  T
  12   -813.1762491 -0.374695E-06  0.716E-04    1.39       6.2  T
  13   -813.1762492 -0.530915E-07  0.352E-04    1.39      12.6  T
  14   -813.1762492 -0.151749E-07  0.144E-04    1.39      30.8  T
  15   -813.1762492 -0.279010E-08  0.590E-05    1.39      75.0  T
  16   -813.1762492 -0.377895E-09  0.267E-05    1.39     166.0  T

   *** convergence criteria satisfied after 16 iterations ***

         #    Occupation            Energy/Eh            Energy/eV
      -------------------------------------------------------------
         1        2.0000           -0.7339065             -19.9706
       ...           ...                  ...                  ...
       702        2.0000           -0.3613480              -9.8328
       703        2.0000           -0.3598024              -9.7907
       704        2.0000           -0.3587880              -9.7631
       705        2.0000           -0.3551564              -9.6643
       706        2.0000           -0.3546736              -9.6512
       707        2.0000           -0.3519302              -9.5765
       708        2.0000           -0.3488476              -9.4926 (HOMO)
       709        0.0000           -0.2978559              -8.1051 (LUMO)
       710                         -0.2931064              -7.9758
       711                         -0.2878700              -7.8333
       712                         -0.2878301              -7.8323
       713                         -0.2814602              -7.6589
       ...                                ...                  ...
      1279                          0.7218834              19.6434
      -------------------------------------------------------------
                  HL-Gap            0.0509917 Eh            1.3876 eV
             Fermi-level           -0.3232553 Eh           -8.7962 eV

 SCC (total)                   0 d,  0 h,  0 min, 18.162 sec
 SCC setup                      ...        0 min,  0.200 sec (  1.098%)
 Dispersion                     ...        0 min,  0.090 sec (  0.497%)
 integral evaluation            ...        0 min,  0.377 sec (  2.076%)
 zeroth order Hamiltonian       ...        0 min,  0.016 sec (  0.090%)
 iterations                     ...        0 min, 14.335 sec ( 78.929%)
 molecular gradient             ...        0 min,  3.050 sec ( 16.792%)
 printout                       ...        0 min,  0.094 sec (  0.516%)

         :::::::::::::::::::::::::::::::::::::::::::::::::::::
         ::                     SUMMARY                     ::
         :::::::::::::::::::::::::::::::::::::::::::::::::::::
         :: total energy             -802.936480233089 Eh   ::
         :: total w/o Gsasa/hb       -802.840209703209 Eh   ::
         :: gradient norm               0.736593224415 Eh/α ::
         :: HOMO-LUMO gap               1.387555373514 eV   ::
         ::.................................................::
         :: SCC energy               -813.194544568281 Eh   ::
         :: -> isotropic ES             2.440677866799 Eh   ::
         :: -> anisotropic ES          -0.103047828483 Eh   ::
         :: -> anisotropic XC           0.266710276229 Eh   ::
         :: -> dispersion              -0.709903501399 Eh   ::
         :: -> Gsolv                   -0.629220212525 Eh   ::
         ::    -> Gborn                -0.532949682645 Eh   ::
         ::    -> Gsasa                -0.020152795496 Eh   ::
         ::    -> Ghb                  -0.077975177511 Eh   ::
         ::    -> Gshift                0.001857443127 Eh   ::
         :: repulsion energy           10.179859095651 Eh   ::
         :: add. restraining            0.000000000000 Eh   ::
         :::::::::::::::::::::::::::::::::::::::::::::::::::::

           -------------------------------------------------
          |                Property Printout                |
           -------------------------------------------------

    * Orbital Energies and Occupations

         #    Occupation            Energy/Eh            Energy/eV
      -------------------------------------------------------------
         1        2.0000           -0.7339065             -19.9706
       ...           ...                  ...                  ...
       696        2.0000           -0.3726120             -10.1393
       697        2.0000           -0.3719902             -10.1224
       698        2.0000           -0.3718782             -10.1193
       699        2.0000           -0.3702436             -10.0748
       700        2.0000           -0.3661909              -9.9646
       701        2.0000           -0.3628199              -9.8728
       702        2.0000           -0.3613480              -9.8328
       703        2.0000           -0.3598024              -9.7907
       704        2.0000           -0.3587880              -9.7631
       705        2.0000           -0.3551564              -9.6643
       706        2.0000           -0.3546736              -9.6512
       707        2.0000           -0.3519302              -9.5765
       708        2.0000           -0.3488476              -9.4926 (HOMO)
       709        0.0000           -0.2978559              -8.1051 (LUMO)
       710                         -0.2931064              -7.9758
       711                         -0.2878700              -7.8333
       712                         -0.2878301              -7.8323
       713                         -0.2814602              -7.6589
       714                         -0.2794984              -7.6055
       715                         -0.2779332              -7.5629
       716                         -0.2769475              -7.5361
       717                         -0.2734224              -7.4402
       718                         -0.2727293              -7.4213
       719                         -0.2680974              -7.2953
       ...                                ...                  ...
      1279                          0.7218834              19.6434
      -------------------------------------------------------------
                  HL-Gap            0.0509917 Eh            1.3876 eV
             Fermi-level           -0.3232553 Eh           -8.7962 eV

   #   Z        covCN         q      C6AA      α(0)
   1   7 N      2.635    -0.384    29.923     8.124
   2   6 C      3.781     0.040    19.923     6.358
   3   6 C      2.769     0.200    23.748     7.981
   4   8 O      0.856    -0.378    21.252     6.181
   5   6 C      3.815    -0.067    21.765     6.640
   6   6 C      2.966     0.002    27.987     8.677
   7   6 C      2.925    -0.041    29.028     8.836
   8   6 C      2.924    -0.040    28.994     8.830
   9   6 C      2.917    -0.077    29.925     8.971
  10   6 C      2.918    -0.065    29.612     8.924
  11   6 C      2.844     0.136    25.032     8.200
  12   8 O      1.654    -0.409    21.030     6.191
  13   1 H      0.860     0.157     1.356     1.824
  14   1 H      0.924     0.067     2.115     2.274
  15   1 H      0.924     0.043     2.406     2.426
  16   1 H      0.924     0.042     2.418     2.432
  17   1 H      0.926     0.046     2.372     2.408
  18   1 H      0.926     0.030     2.580     2.512
  19   1 H      0.926     0.069     2.091     2.262
  20   1 H      0.926     0.047     2.353     2.399
  21   1 H      0.800     0.351     0.587     1.204
  22   7 N      2.636    -0.390    30.096     8.148
  23   6 C      3.789     0.020    20.246     6.408
  24   6 C      2.755     0.271    22.427     7.755
  25   8 O      0.858    -0.492    23.606     6.514
  26   6 C      3.809    -0.071    21.842     6.653
  27   6 C      3.059    -0.040    28.929     8.820
  28   6 C      3.040    -0.013    28.304     8.726
  29   6 C      3.117    -0.024    28.422     8.732
  30   7 N      2.776    -0.106    23.324     7.173
  31   6 C      3.095     0.043    26.930     8.505
  32   6 C      2.912    -0.043    29.064     8.840
  33   6 C      2.910    -0.052    29.287     8.874
  34   6 C      2.920    -0.047    29.169     8.857
  35   6 C      2.923    -0.037    28.918     8.819
  36   1 H      0.860     0.153     1.383     1.842
  37   1 H      0.924     0.071     2.070     2.250
  38   1 H      0.924     0.041     2.433     2.439
  39   1 H      0.925     0.043     2.410     2.428
  40   1 H      0.926     0.034     2.535     2.490
  41   1 H      0.860     0.190     1.156     1.684
  42   1 H      0.926     0.024     2.669     2.555
  43   1 H      0.926     0.038     2.479     2.462
  44   1 H      0.925     0.023     2.695     2.567
  45   1 H      0.926     0.031     2.576     2.510
  46   7 N      2.690    -0.186    25.023     7.429
  47   6 C      3.795     0.018    20.283     6.413
  48   6 C      2.758     0.265    22.534     7.774
  49   8 O      0.858    -0.465    23.028     6.434
  50   6 C      3.756    -0.118    22.816     6.811
  51   1 H      0.860     0.222     0.999     1.565
  52   1 H      0.924     0.085     1.926     2.170
  53   1 H      0.925     0.045     2.386     2.416
  54   1 H      0.925     0.073     2.050     2.239
  55   1 H      0.925     0.055     2.256     2.349
  56   7 N      2.690    -0.180    24.891     7.410
  57   6 C      3.795     0.036    19.974     6.364
  58   6 C      2.767     0.276    22.331     7.739
  59   8 O      0.859    -0.527    24.391     6.622
  60   6 C      3.804    -0.100    22.406     6.739
  61   6 C      2.686     0.373    20.677     7.441
  62   8 O      0.856    -0.638    27.067     6.975
  63   8 O      0.856    -0.651    27.406     7.019
  64   1 H      0.860     0.204     1.084     1.631
  65   1 H      0.924     0.074     2.045     2.236
  66   1 H      0.925     0.048     2.347     2.396
  67   1 H      0.924     0.040     2.446     2.446
  68   7 N      2.753    -0.072    22.629     7.065
  69   6 C      3.826     0.032    20.019     6.367
  70   6 C      2.764     0.219    23.383     7.919
  71   8 O      0.856    -0.370    21.100     6.159
  72   6 C      3.830    -0.069    21.789     6.642
  73   6 C      3.827    -0.071    21.835     6.649
  74   6 C      3.767    -0.007    20.745     6.492
  75   1 H      0.924     0.078     2.002     2.213
  76   1 H      0.925     0.054     2.271     2.357
  77   1 H      0.925     0.078     2.000     2.212
  78   1 H      0.925     0.068     2.104     2.268
  79   1 H      0.925     0.077     2.009     2.216
  80   1 H      0.924     0.071     2.077     2.254
  81   1 H      0.925     0.080     1.982     2.201
  82   7 N      2.636    -0.401    30.397     8.188
  83   6 C      3.782     0.047    19.806     6.340
  84   6 C      2.765     0.206    23.624     7.960
  85   8 O      0.856    -0.381    21.299     6.188
  86   6 C      3.810    -0.062    21.683     6.628
  87   6 C      3.849    -0.011    20.744     6.478
  88   6 C      3.755    -0.116    22.781     6.805
  89   6 C      3.758    -0.111    22.681     6.790
  90   1 H      0.860     0.165     1.302     1.787
  91   1 H      0.923     0.045     2.389     2.417
  92   1 H      0.924     0.043     2.414     2.430
  93   1 H      0.924     0.044     2.397     2.421
  94   1 H      0.924     0.025     2.660     2.550
  95   1 H      0.925     0.048     2.347     2.396
  96   1 H      0.925     0.035     2.521     2.483
  97   1 H      0.925     0.043     2.413     2.429
  98   1 H      0.925     0.047     2.359     2.402
  99   1 H      0.925     0.045     2.385     2.415
 100   1 H      0.925     0.037     2.483     2.464
 101   7 N      2.637    -0.395    30.223     8.165
 102   6 C      3.782     0.030    20.096     6.386
 103   6 C      2.770     0.270    22.439     7.758
 104   8 O      0.860    -0.532    24.515     6.638
 105   6 C      3.673     0.062    19.766     6.371
 106   8 O      1.655    -0.468    22.220     6.363
 107   1 H      0.860     0.156     1.359     1.826
 108   1 H      0.923     0.052     2.294     2.368
 109   1 H      0.924     0.039     2.457     2.451
 110   1 H      0.924     0.041     2.437     2.441
 111   1 H      0.805     0.325     0.651     1.267
 112   7 N      2.764    -0.063    22.457     7.038
 113   6 C      3.842     0.025    20.123     6.381
 114   6 C      2.768     0.210    23.555     7.948
 115   8 O      0.856    -0.377    21.218     6.176
 116   6 C      3.828    -0.067    21.770     6.639
 117   6 C      3.833    -0.076    21.933     6.663
 118   6 C      3.780    -0.012    20.804     6.498
 119   1 H      0.924     0.076     2.018     2.222
 120   1 H      0.925     0.066     2.127     2.281
 121   1 H      0.925     0.080     1.980     2.200
 122   1 H      0.925     0.078     1.996     2.210
 123   1 H      0.925     0.075     2.028     2.227
 124   1 H      0.924     0.062     2.175     2.306
 125   1 H      0.925     0.082     1.962     2.190
 126   7 N      2.636    -0.398    30.312     8.177
 127   6 C      3.787     0.024    20.191     6.400
 128   6 C      2.760     0.273    22.377     7.747
 129   8 O      0.859    -0.506    23.916     6.557
 130   6 C      3.807    -0.078    21.988     6.675
 131   6 C      3.806    -0.104    22.473     6.748
 132   6 C      3.741    -0.037    21.307     6.586
 133   7 N      2.702    -0.134    23.896     7.260
 134   6 C      2.738     0.219    23.380     7.917
 135   7 N      2.649    -0.250    26.498     7.645
 136   7 N      2.651    -0.252    26.565     7.655
 137   1 H      0.860     0.154     1.376     1.837
 138   1 H      0.924     0.052     2.301     2.372
 139   1 H      0.924     0.059     2.206     2.323
 140   1 H      0.925     0.049     2.337     2.391
 141   1 H      0.925     0.080     1.978     2.199
 142   1 H      0.925     0.078     2.004     2.214
 143   1 H      0.924     0.088     1.902     2.157
 144   1 H      0.924     0.090     1.879     2.144
 145   1 H      0.859     0.233     0.953     1.529
 146   1 H      0.860     0.244     0.906     1.491
 147   1 H      0.860     0.250     0.885     1.473
 148   1 H      0.858     0.253     0.872     1.463
 149   1 H      0.860     0.253     0.872     1.463
 150   7 N      2.693    -0.186    25.041     7.432
 151   6 C      3.799     0.024    20.181     6.396
 152   6 C      2.762     0.273    22.395     7.750
 153   8 O      0.859    -0.491    23.588     6.512
 154   6 C      3.812    -0.094    22.291     6.720
 155   6 C      2.969     0.002    27.978     8.676
 156   6 C      2.924    -0.053    29.324     8.880
 157   6 C      2.925    -0.048    29.204     8.862
 158   6 C      2.919    -0.039    28.962     8.825
 159   6 C      2.919    -0.037    28.925     8.819
 160   6 C      2.920    -0.040    28.984     8.828
 161   1 H      0.860     0.236     0.939     1.518
 162   1 H      0.924     0.056     2.247     2.344
 163   1 H      0.924     0.097     1.817     2.108
 164   1 H      0.924     0.080     1.976     2.198
 165   1 H      0.926     0.053     2.277     2.360
 166   1 H      0.926     0.063     2.163     2.300
 167   1 H      0.926     0.019     2.749     2.593
 168   1 H      0.926     0.043     2.407     2.426
 169   1 H      0.926     0.030     2.587     2.515
 170   7 N      2.756    -0.073    22.658     7.070
 171   6 C      3.833     0.025    20.124     6.383
 172   6 C      2.757     0.278    22.300     7.733
 173   8 O      0.858    -0.448    22.654     6.381
 174   6 C      3.835    -0.056    21.554     6.605
 175   6 C      3.832    -0.070    21.808     6.644
 176   6 C      3.767    -0.018    20.928     6.520
 177   1 H      0.924     0.046     2.371     2.408
 178   1 H      0.924     0.043     2.407     2.426
 179   1 H      0.925     0.036     2.508     2.476
 180   1 H      0.925     0.062     2.175     2.306
 181   1 H      0.925     0.059     2.215     2.328
 182   1 H      0.924     0.077     2.011     2.218
 183   1 H      0.924     0.083     1.943     2.180
 184   7 N      2.690    -0.198    25.298     7.470
 185   6 C      3.797     0.025    20.153     6.392
 186   6 C      2.758     0.277    22.314     7.736
 187   8 O      0.858    -0.477    23.287     6.470
 188   6 C      3.802    -0.115    22.688     6.781
 189   6 C      2.681     0.374    20.660     7.438
 190   8 O      0.856    -0.634    26.958     6.961
 191   8 O      0.857    -0.617    26.552     6.909
 192   1 H      0.860     0.198     1.114     1.654
 193   1 H      0.924     0.093     1.852     2.128
 194   1 H      0.924     0.049     2.329     2.387
 195   1 H      0.925     0.071     2.069     2.250
 196   7 N      2.688    -0.207    25.505     7.501
 197   6 C      3.799     0.026    20.135     6.389
 198   6 C      2.762     0.270    22.443     7.758
 199   8 O      0.858    -0.498    23.743     6.533
 200   6 C      3.680     0.093    19.250     6.284
 201   8 O      1.656    -0.476    22.374     6.385
 202   1 H      0.859     0.214     1.037     1.595
 203   1 H      0.923     0.091     1.871     2.139
 204   1 H      0.923     0.011     2.873     2.651
 205   1 H      0.923     0.030     2.589     2.516
 206   1 H      0.805     0.349     0.592     1.208
 207   7 N      2.691    -0.190    25.118     7.444
 208   6 C      3.804     0.047    19.787     6.333
 209   6 C      2.756     0.274    22.370     7.745
 210   8 O      0.858    -0.462    22.953     6.423
 211   6 C      3.803    -0.104    22.483     6.751
 212   6 C      2.684     0.374    20.670     7.440
 213   8 O      0.856    -0.627    26.792     6.940
 214   8 O      0.856    -0.625    26.745     6.934
 215   1 H      0.859     0.221     1.006     1.572
 216   1 H      0.923     0.026     2.649     2.545
 217   1 H      0.925     0.049     2.334     2.389
 218   1 H      0.925     0.042     2.425     2.435
 219   7 N      2.693    -0.170    24.673     7.377
 220   6 C      3.798     0.013    20.360     6.425
 221   6 C      2.758     0.264    22.542     7.775
 222   8 O      0.858    -0.491    23.588     6.512
 223   6 C      3.812    -0.073    21.882     6.658
 224   6 C      2.970     0.014    27.706     8.634
 225   6 C      2.924    -0.035    28.876     8.812
 226   6 C      2.925    -0.039    28.962     8.825
 227   6 C      2.919    -0.034    28.840     8.806
 228   6 C      2.918    -0.038    28.941     8.822
 229   6 C      2.920    -0.043    29.069     8.841
 230   1 H      0.860     0.189     1.165     1.691
 231   1 H      0.924     0.105     1.742     2.064
 232   1 H      0.924     0.052     2.292     2.368
 233   1 H      0.924     0.059     2.212     2.326
 234   1 H      0.926     0.022     2.697     2.568
 235   1 H      0.926     0.031     2.572     2.508
 236   1 H      0.926     0.037     2.494     2.470
 237   1 H      0.926     0.052     2.298     2.371
 238   1 H      0.926     0.051     2.307     2.375
 239   7 N      2.692    -0.164    24.549     7.359
 240   6 C      3.794     0.008    20.450     6.440
 241   6 C      2.756     0.266    22.512     7.770
 242   8 O      0.858    -0.479    23.334     6.477
 243   6 C      3.804    -0.082    22.060     6.687
 244   6 C      3.801    -0.071    21.864     6.657
 245   6 C      3.801    -0.093    22.269     6.719
 246   6 C      3.730    -0.048    21.529     6.623
 247   7 N      3.483    -0.143    24.076     7.288
 248   1 H      0.860     0.226     0.982     1.552
 249   1 H      0.924     0.077     2.007     2.215
 250   1 H      0.924     0.076     2.016     2.221
 251   1 H      0.925     0.068     2.109     2.271
 252   1 H      0.924     0.052     2.299     2.371
 253   1 H      0.924     0.069     2.097     2.264
 254   1 H      0.924     0.073     2.051     2.240
 255   1 H      0.924     0.067     2.122     2.278
 256   1 H      0.924     0.122     1.598     1.977
 257   1 H      0.924     0.107     1.723     2.053
 258   1 H      0.859     0.306     0.695     1.306
 259   1 H      0.859     0.273     0.801     1.402
 260   1 H      0.859     0.303     0.705     1.316
 261   7 N      2.690    -0.166    24.598     7.366
 262   6 C      3.800     0.009    20.436     6.436
 263   6 C      2.757     0.270    22.441     7.757
 264   8 O      0.858    -0.476    23.260     6.466
 265   6 C      3.854    -0.013    20.766     6.481
 266   6 C      3.757    -0.121    22.868     6.818
 267   6 C      3.756    -0.123    22.907     6.824
 268   1 H      0.860     0.224     0.992     1.560
 269   1 H      0.924     0.087     1.909     2.161
 270   1 H      0.924     0.036     2.504     2.475
 271   1 H      0.925     0.055     2.264     2.353
 272   1 H      0.925     0.039     2.458     2.452
 273   1 H      0.925     0.052     2.293     2.368
 274   1 H      0.925     0.040     2.449     2.447
 275   1 H      0.925     0.063     2.167     2.302
 276   1 H      0.925     0.042     2.425     2.435
 277   7 N      2.692    -0.163    24.529     7.356
 278   6 C      3.790     0.028    20.109     6.387
 279   6 C      2.765     0.197    23.797     7.989
 280   8 O      0.856    -0.352    20.749     6.107
 281   6 C      3.817    -0.077    21.952     6.668
 282   6 C      2.967    -0.003    28.095     8.694
 283   6 C      2.923    -0.043    29.064     8.841
 284   6 C      2.928    -0.046    29.136     8.852
 285   6 C      2.918    -0.058    29.447     8.899
 286   6 C      2.917    -0.078    29.939     8.973
 287   6 C      2.847     0.145    24.846     8.169
 288   8 O      1.659    -0.437    21.579     6.271
 289   1 H      0.860     0.230     0.964     1.538
 290   1 H      0.924     0.084     1.935     2.175
 291   1 H      0.924     0.084     1.942     2.179
 292   1 H      0.924     0.067     2.120     2.277
 293   1 H      0.926     0.045     2.387     2.416
 294   1 H      0.926     0.045     2.383     2.414
 295   1 H      0.926     0.054     2.270     2.356
 296   1 H      0.926     0.043     2.406     2.425
 297   1 H      0.805     0.347     0.594     1.211
 298   7 N      2.637    -0.379    29.806     8.108
 299   6 C      3.784     0.047    19.807     6.339
 300   6 C      2.765     0.198    23.775     7.985
 301   8 O      0.856    -0.344    20.587     6.083
 302   6 C      3.809    -0.098    22.360     6.731
 303   6 C      2.746     0.279    22.273     7.728
 304   8 O      0.859    -0.507    23.930     6.559
 305   7 N      2.638    -0.280    27.225     7.749
 306   1 H      0.860     0.175     1.241     1.745
 307   1 H      0.924     0.053     2.287     2.365
 308   1 H      0.925     0.065     2.138     2.287
 309   1 H      0.924     0.079     1.986     2.204
 310   1 H      0.860     0.230     0.966     1.540
 311   1 H      0.860     0.234     0.946     1.524
 312   7 N      2.634    -0.392    30.162     8.157
 313   6 C      3.783     0.047    19.808     6.340
 314   6 C      2.768     0.201    23.718     7.976
 315   8 O      0.856    -0.396    21.607     6.232
 316   6 C      3.812    -0.063    21.706     6.631
 317   6 C      3.849    -0.002    20.579     6.453
 318   6 C      3.759    -0.118    22.802     6.808
 319   6 C      3.756    -0.111    22.679     6.790
 320   1 H      0.860     0.176     1.236     1.742
 321   1 H      0.923     0.042     2.425     2.435
 322   1 H      0.924     0.049     2.337     2.390
 323   1 H      0.924     0.037     2.495     2.470
 324   1 H      0.924     0.029     2.606     2.525
 325   1 H      0.925     0.051     2.303     2.373
 326   1 H      0.925     0.040     2.442     2.444
 327   1 H      0.925     0.040     2.449     2.447
 328   1 H      0.925     0.045     2.384     2.415
 329   1 H      0.925     0.038     2.470     2.458
 330   1 H      0.925     0.030     2.590     2.517
 331   7 N      2.636    -0.385    29.963     8.130
 332   6 C      3.782     0.042    19.891     6.353
 333   6 C      2.765     0.193    23.883     8.003
 334   8 O      0.856    -0.383    21.338     6.193
 335   6 C      3.810    -0.068    21.788     6.644
 336   6 C      3.849    -0.007    20.672     6.467
 337   6 C      3.758    -0.111    22.679     6.790
 338   6 C      3.755    -0.111    22.680     6.790
 339   1 H      0.860     0.170     1.271     1.766
 340   1 H      0.923     0.051     2.303     2.373
 341   1 H      0.924     0.048     2.346     2.395
 342   1 H      0.924     0.039     2.462     2.454
 343   1 H      0.924     0.038     2.477     2.461
 344   1 H      0.925     0.045     2.381     2.413
 345   1 H      0.925     0.036     2.503     2.474
 346   1 H      0.925     0.035     2.522     2.483
 347   1 H      0.925     0.046     2.373     2.409
 348   1 H      0.925     0.036     2.503     2.474
 349   1 H      0.925     0.041     2.436     2.441
 350   7 N      2.632    -0.393    30.179     8.159
 351   6 C      3.736    -0.017    20.970     6.535
 352   6 C      2.756     0.265    22.535     7.774
 353   8 O      0.859    -0.516    24.142     6.588
 354   1 H      0.860     0.169     1.278     1.771
 355   1 H      0.925     0.069     2.092     2.262
 356   1 H      0.924     0.076     2.017     2.221
 357   7 N      2.692    -0.171    24.690     7.380
 358   6 C      3.802     0.020    20.237     6.405
 359   6 C      2.759     0.277    22.317     7.736
 360   8 O      0.858    -0.467    23.059     6.438
 361   6 C      3.729     0.118    18.737     6.179
 362   8 O      1.654    -0.486    22.604     6.418
 363   6 C      3.753    -0.137    23.203     6.869
 364   1 H      0.860     0.208     1.067     1.618
 365   1 H      0.924     0.062     2.174     2.306
 366   1 H      0.923     0.026     2.642     2.542
 367   1 H      0.803     0.350     0.589     1.206
 368   1 H      0.925     0.066     2.134     2.284
 369   1 H      0.925     0.052     2.290     2.367
 370   1 H      0.925     0.067     2.119     2.277
 371   7 N      2.685    -0.175    24.796     7.396
 372   6 C      3.745    -0.036    21.287     6.581
 373   6 C      2.751     0.273    22.391     7.748
 374   8 O      0.859    -0.476    23.266     6.467
 375   1 H      0.860     0.214     1.039     1.597
 376   1 H      0.924     0.095     1.829     2.115
 377   1 H      0.924     0.102     1.769     2.080
 378   7 N      2.690    -0.156    24.371     7.332
 379   6 C      3.796     0.010    20.415     6.434
 380   6 C      2.754     0.267    22.498     7.767
 381   8 O      0.858    -0.486    23.477     6.496
 382   6 C      3.678     0.078    19.490     6.324
 383   8 O      1.656    -0.468    22.211     6.362
 384   1 H      0.860     0.212     1.047     1.603
 385   1 H      0.924     0.102     1.768     2.079
 386   1 H      0.924     0.046     2.365     2.405
 387   1 H      0.923     0.030     2.585     2.514
 388   1 H      0.805     0.331     0.634     1.251
 389   7 N      2.690    -0.170    24.680     7.378
 390   6 C      3.795     0.018    20.281     6.413
 391   6 C      2.760     0.269    22.463     7.762
 392   8 O      0.858    -0.472    23.169     6.453
 393   6 C      3.812    -0.076    21.935     6.666
 394   6 C      2.968     0.004    27.943     8.671
 395   6 C      2.925    -0.042    29.040     8.837
 396   6 C      2.926    -0.038    28.955     8.824
 397   6 C      2.919    -0.063    29.569     8.917
 398   6 C      2.917    -0.074    29.835     8.957
 399   6 C      2.847     0.136    25.018     8.197
 400   8 O      1.659    -0.438    21.605     6.275
 401   1 H      0.860     0.232     0.956     1.532
 402   1 H      0.924     0.075     2.029     2.227
 403   1 H      0.924     0.069     2.101     2.267
 404   1 H      0.925     0.070     2.080     2.255
 405   1 H      0.926     0.048     2.347     2.396
 406   1 H      0.926     0.043     2.403     2.424
 407   1 H      0.926     0.044     2.396     2.421
 408   1 H      0.925     0.054     2.273     2.357
 409   1 H      0.805     0.351     0.586     1.202
 410   7 N      2.691    -0.176    24.802     7.397
 411   6 C      3.798     0.025    20.159     6.393
 412   6 C      2.763     0.277    22.310     7.735
 413   8 O      0.860    -0.452    22.742     6.394
 414   6 C      3.809    -0.105    22.498     6.752
 415   6 C      2.744     0.287    22.135     7.704
 416   8 O      0.859    -0.479    23.333     6.476
 417   7 N      2.640    -0.277    27.153     7.739
 418   1 H      0.860     0.229     0.969     1.542
 419   1 H      0.924     0.090     1.878     2.143
 420   1 H      0.924     0.078     1.996     2.209
 421   1 H      0.924     0.069     2.094     2.263
 422   1 H      0.860     0.244     0.906     1.491
 423   1 H      0.860     0.212     1.048     1.603
 424   7 N      2.690    -0.160    24.468     7.347
 425   6 C      3.797     0.021    20.227     6.404
 426   6 C      2.766     0.210    23.542     7.946
 427   8 O      0.856    -0.352    20.753     6.108
 428   6 C      3.808    -0.095    22.311     6.724
 429   6 C      3.804    -0.091    22.242     6.714
 430   6 C      3.740    -0.041    21.387     6.598
 431   7 N      2.703    -0.136    23.949     7.268
 432   6 C      2.737     0.215    23.457     7.930
 433   7 N      2.649    -0.247    26.434     7.636
 434   7 N      2.654    -0.253    26.577     7.657
 435   1 H      0.860     0.196     1.124     1.661
 436   1 H      0.924     0.088     1.902     2.157
 437   1 H      0.924     0.091     1.871     2.139
 438   1 H      0.924     0.065     2.147     2.291
 439   1 H      0.924     0.086     1.915     2.164
 440   1 H      0.924     0.086     1.920     2.167
 441   1 H      0.924     0.085     1.926     2.170
 442   1 H      0.924     0.112     1.679     2.027
 443   1 H      0.860     0.237     0.935     1.515
 444   1 H      0.860     0.254     0.867     1.459
 445   1 H      0.860     0.240     0.923     1.505
 446   1 H      0.860     0.236     0.940     1.518
 447   1 H      0.860     0.226     0.981     1.551
 448   7 N      2.634    -0.388    30.028     8.138
 449   6 C      3.785     0.030    20.079     6.383
 450   6 C      2.756     0.269    22.451     7.759
 451   8 O      0.859    -0.527    24.394     6.622
 452   6 C      3.676     0.077    19.510     6.328
 453   8 O      1.655    -0.468    22.211     6.362
 454   1 H      0.860     0.178     1.228     1.736
 455   1 H      0.923     0.044     2.397     2.421
 456   1 H      0.924     0.027     2.633     2.537
 457   1 H      0.924     0.034     2.524     2.485
 458   1 H      0.805     0.323     0.655     1.271
 459   7 N      2.690    -0.160    24.464     7.346
 460   6 C      3.796     0.037    19.965     6.362
 461   6 C      2.767     0.207    23.599     7.956
 462   8 O      0.856    -0.367    21.039     6.150
 463   6 C      3.814    -0.085    22.102     6.691
 464   6 C      2.972     0.009    27.816     8.651
 465   6 C      2.925    -0.037    28.931     8.821
 466   6 C      2.927    -0.049    29.214     8.864
 467   6 C      2.922    -0.033    28.821     8.804
 468   6 C      2.920    -0.038    28.937     8.821
 469   6 C      2.920    -0.039    28.958     8.825
 470   1 H      0.860     0.255     0.866     1.458
 471   1 H      0.923     0.069     2.093     2.263
 472   1 H      0.924     0.065     2.137     2.286
 473   1 H      0.924     0.085     1.925     2.170
 474   1 H      0.926     0.031     2.571     2.507
 475   1 H      0.926     0.065     2.144     2.290
 476   1 H      0.926     0.029     2.603     2.523
 477   1 H      0.926     0.059     2.207     2.323
 478   1 H      0.926     0.035     2.516     2.481
 479   7 N      2.634    -0.396    30.258     8.170
 480   6 C      3.780     0.028    20.116     6.390
 481   6 C      2.767     0.198    23.779     7.986
 482   8 O      0.856    -0.381    21.310     6.189
 483   6 C      3.680     0.084    19.389     6.306
 484   8 O      1.655    -0.465    22.144     6.353
 485   1 H      0.860     0.183     1.199     1.716
 486   1 H      0.924     0.053     2.281     2.362
 487   1 H      0.923     0.037     2.484     2.465
 488   1 H      0.924     0.039     2.464     2.455
 489   1 H      0.804     0.329     0.640     1.256
 490   1 H      0.862     0.192     1.147     1.678
 491   1 H      0.930     0.065     2.144     2.289
 492   1 H      0.862     0.182     1.202     1.718
 493   1 H      0.930     0.046     2.366     2.405
 494   1 H      0.862     0.177     1.234     1.740
 495   1 H      0.930     0.066     2.132     2.283
 496   1 H      0.862     0.185     1.186     1.706
 497   1 H      0.930     0.068     2.105     2.268
 498   1 H      0.862     0.180     1.212     1.725
 499   1 H      0.930     0.078     2.002     2.213
 500   1 H      0.862     0.181     1.208     1.722
 501   1 H      0.930     0.063     2.162     2.299
 502   1 H      0.862     0.172     1.258     1.757
 503   1 H      0.930     0.073     2.053     2.240
 504   1 H      0.862     0.175     1.241     1.745
 505   1 H      0.930     0.077     2.010     2.217
 506   1 H      0.862     0.181     1.205     1.720
 507   1 H      0.930     0.075     2.033     2.230
 508   1 H      0.862     0.181     1.206     1.720
 509   1 H      0.930     0.088     1.897     2.154
 510   1 H      0.862     0.182     1.203     1.718
 511   1 H      0.930     0.081     1.972     2.196

 Mol. C6AA /au·bohr⁶  :    2534113.768161
 Mol. C8AA /au·bohr⁸  :   57077319.754087
[...]
   178  H   0.998        C  174 0.975
   179  H   0.998        C  174 0.974
   180  H   0.995        C  175 0.975
   181  H   0.996        C  175 0.979
   182  H   0.994        C  176 0.960
   183  H   0.993        C  176 0.963
   184  N   3.427        C  172 1.270    C  185 0.983    H  192 0.897    O  173 0.184
   185  C   3.967        C  188 0.984    N  184 0.983    H  193 0.951    C  186 0.933
   186  C   3.941        O  187 1.643    N  196 1.285    C  185 0.933
   187  O   1.955        C  186 1.643    N  196 0.190
   188  C   3.985        C  185 0.984    H  194 0.966    H  195 0.963    C  189 0.914
   189  C   3.928        O  191 1.542    O  190 1.442    C  188 0.914
   190  O   1.847        C  189 1.442    O  191 0.205
   191  O   1.834        C  189 1.542    O  190 0.205
   192  H   0.961        N  184 0.897
   193  H   0.991        C  185 0.951
   194  H   0.997        C  188 0.966
   195  H   0.994        C  188 0.963
   196  N   3.448        C  186 1.285    C  197 0.997    H  202 0.871    O  187 0.190
   197  C   3.973        N  196 0.997    C  200 0.970    H  203 0.944    C  198 0.935
   198  C   3.951        O  199 1.625    N  207 1.312    C  197 0.935
   199  O   1.936        C  198 1.625    N  207 0.194
   200  C   3.965        O  201 1.006    C  197 0.970    H  204 0.969    H  205 0.967
   201  O   1.927        C  200 1.006    H  206 0.864
   202  H   0.954        N  196 0.871
   203  H   0.992        C  197 0.944
   204  H   1.000        C  200 0.969
   205  H   0.999        C  200 0.967
   206  H   0.878        O  201 0.864
   207  N   3.454        C  198 1.312    C  208 0.983    H  215 0.873    O  199 0.194
   208  C   3.968        N  207 0.983    C  211 0.970    H  216 0.953    C  209 0.932
   209  C   3.955        O  210 1.647    N  219 1.288    C  208 0.932
   210  O   1.966        C  209 1.647    N  219 0.195
   211  C   3.984        H  218 0.978    H  217 0.972    C  208 0.970    C  212 0.904
   212  C   3.933        O  213 1.532    O  214 1.471    C  211 0.904
   213  O   1.827        C  212 1.532    O  214 0.215
   214  O   1.831        C  212 1.471    O  213 0.215
   215  H   0.951        N  207 0.873
   216  H   0.999        C  208 0.953
   217  H   0.998        C  211 0.972
   218  H   0.998        C  211 0.978
   219  N   3.465        C  209 1.288    C  220 0.979    H  230 0.929    O  210 0.195
   220  C   3.952        N  219 0.979    C  223 0.957    H  231 0.939    C  221 0.929
   221  C   3.954        O  222 1.627    N  239 1.316    C  220 0.929
   222  O   1.954        C  221 1.627    N  239 0.203
   223  C   3.990        C  224 1.010    H  233 0.969    H  232 0.967    C  220 0.957
   224  C   3.988        C  226 1.413    C  225 1.412    C  223 1.010    C  229 0.109
   225  C   3.992        C  227 1.446    C  224 1.412    H  234 0.970    C  228 0.112
   226  C   3.991        C  228 1.443    C  224 1.413    H  235 0.966    C  227 0.111
   227  C   3.991        C  225 1.446    C  229 1.436    H  236 0.971    C  226 0.111
   228  C   3.991        C  226 1.443    C  229 1.435    H  237 0.969    C  225 0.112
   229  C   3.989        C  227 1.436    C  228 1.435    H  238 0.967    C  224 0.109
   230  H   0.964        N  219 0.929
   231  H   0.989        C  220 0.939
   232  H   0.997        C  223 0.967
   233  H   0.996        C  223 0.969
   234  H   0.999        C  225 0.970
   235  H   0.999        C  226 0.966
   236  H   0.998        C  227 0.971
   237  H   0.997        C  228 0.969
   238  H   0.997        C  229 0.967
   239  N   3.485        C  221 1.316    C  240 0.984    H  248 0.896    O  222 0.203
   240  C   3.959        N  239 0.984    C  243 0.962    H  249 0.946    C  241 0.937
   241  C   3.952        O  242 1.605    N  261 1.328    C  240 0.937
   242  O   1.971        C  241 1.605    N  261 0.198
   243  C   3.984        C  244 1.006    H  250 0.967    H  251 0.964    C  240 0.962
   244  C   3.992        C  243 1.006    C  245 1.005    H  252 0.972    H  253 0.969
   245  C   3.986        C  246 1.009    C  244 1.005    H  255 0.968    H  254 0.967
   246  C   3.909        C  245 1.009    H  257 0.965    H  256 0.960    N  247 0.951
   247  N   3.666        C  246 0.951    H  259 0.910    H  258 0.893    H  260 0.893
   248  H   0.949        N  239 0.896
   249  H   0.994        C  240 0.946
   250  H   0.994        C  243 0.967
   251  H   0.995        C  243 0.964
   252  H   0.997        C  244 0.972
   253  H   0.995        C  244 0.969
   254  H   0.994        C  245 0.967
   255  H   0.995        C  245 0.968
   256  H   0.985        C  246 0.960
   257  H   0.989        C  246 0.965
   258  H   0.906        N  247 0.893
   259  H   0.926        N  247 0.910
   260  H   0.908        N  247 0.893
   261  N   3.493        C  241 1.328    C  262 0.981    H  268 0.891    O  242 0.198
   262  C   3.961        N  261 0.981    C  265 0.961    H  269 0.946    C  263 0.932
   263  C   3.951        O  264 1.610    N  277 1.320    C  262 0.932
   264  O   1.976        C  263 1.610    N  277 0.196
   265  C   3.991        C  266 1.008    C  267 1.007    C  262 0.961    H  270 0.960
   266  C   3.992        C  265 1.008    H  272 0.984    H  273 0.983    H  271 0.982
   267  C   3.992        C  265 1.007    H  274 0.981    H  275 0.980    H  276 0.980
   268  H   0.950        N  261 0.891
   269  H   0.992        C  262 0.946
   270  H   0.998        C  265 0.960
   271  H   0.996        C  266 0.982
   272  H   0.998        C  266 0.984
   273  H   0.997        C  266 0.983
   274  H   0.998        C  267 0.981
   275  H   0.996        C  267 0.980
   276  H   0.998        C  267 0.980
   277  N   3.489        C  263 1.320    C  278 0.973    H  289 0.897    O  264 0.196
   278  C   3.963        N  277 0.973    C  281 0.964    C  279 0.962    H  290 0.954
   279  C   3.896        O  280 1.892    C  278 0.962    H  499 0.955
   280  O   2.055        C  279 1.892
   281  C   3.984        C  282 1.010    C  278 0.964    H  292 0.961    H  291 0.941
   282  C   3.987        C  284 1.406    C  283 1.402    C  281 1.010
   283  C   3.991        C  285 1.460    C  282 1.402    H  293 0.966    C  286 0.105
   284  C   3.990        C  286 1.447    C  282 1.406    H  294 0.964    C  285 0.106
   285  C   3.988        C  283 1.460    C  287 1.363    H  295 0.968    C  284 0.106
   286  C   3.987        C  284 1.447    C  287 1.371    H  296 0.965    C  283 0.105
   287  C   3.938        C  286 1.371    C  285 1.363    O  288 1.073
   288  O   2.091        C  287 1.073    H  297 0.859
   289  H   0.947        N  277 0.897
   290  H   0.993        C  278 0.954
   291  H   0.992        C  281 0.941
   292  H   0.995        C  281 0.961
   293  H   0.998        C  283 0.966
   294  H   0.998        C  284 0.964
   295  H   0.997        C  285 0.968
   296  H   0.998        C  286 0.965
   297  H   0.879        O  288 0.859
   298  N   3.016        C  299 1.021    H  500 0.946    H  306 0.929
   299  C   3.988        N  298 1.021    H  307 0.963    C  300 0.957    C  302 0.949
   300  C   3.900        O  301 1.927    C  299 0.957    H  501 0.955
   301  O   2.059        C  300 1.927
   302  C   3.991        C  303 0.968    H  308 0.965    H  309 0.960    C  299 0.949
   303  C   3.946        O  304 1.617    N  305 1.325    C  302 0.968
   304  O   1.949        C  303 1.617    N  305 0.199
   305  N   3.409        C  303 1.325    H  310 0.925    H  311 0.907    O  304 0.199
   306  H   0.969        N  298 0.929
   307  H   0.997        C  299 0.963
   308  H   0.996        C  302 0.965
   309  H   0.994        C  302 0.960
   310  H   0.947        N  305 0.925
   311  H   0.945        N  305 0.907
   312  N   3.000        C  313 1.019    H  502 0.959    H  320 0.931
   313  C   3.987        N  312 1.019    C  314 0.978    C  316 0.959    H  321 0.954
   314  C   3.886        O  315 1.877    C  313 0.978    H  503 0.954
   315  O   2.014        C  314 1.877
   316  C   3.991        C  317 0.989    H  323 0.974    H  322 0.972    C  313 0.959
   317  C   3.995        C  319 1.010    C  318 1.006    C  316 0.989    H  324 0.964
   318  C   3.993        C  317 1.006    H  327 0.985    H  326 0.982    H  325 0.976
   319  C   3.996        C  317 1.010    H  329 0.987    H  330 0.985    H  328 0.981
   320  H   0.969        N  312 0.931
   321  H   0.998        C  313 0.954
   322  H   0.998        C  316 0.972
   323  H   0.999        C  316 0.974
   324  H   0.999        C  317 0.964
   325  H   0.996        C  318 0.976
   326  H   0.998        C  318 0.982
   327  H   0.998        C  318 0.985
   328  H   0.998        C  319 0.981
   329  H   0.998        C  319 0.987
   330  H   0.999        C  319 0.985
   331  N   3.001        C  332 1.013    H  504 0.958    H  339 0.949
   332  C   3.985        N  331 1.013    C  333 0.976    C  335 0.962    H  340 0.955
   333  C   3.887        O  334 1.861    C  332 0.976    H  505 0.954
   334  O   2.029        C  333 1.861
   335  C   3.990        C  336 0.989    H  342 0.974    H  341 0.973    C  332 0.962
   336  C   3.995        C  338 1.010    C  337 1.006    C  335 0.989    H  343 0.965
   337  C   3.993        C  336 1.006    H  345 0.986    H  346 0.985    H  344 0.983
   338  C   3.996        C  336 1.010    H  348 0.986    H  347 0.983    H  349 0.983
   339  H   0.971        N  331 0.949
   340  H   0.997        C  332 0.955
   341  H   0.998        C  335 0.973
   342  H   0.998        C  335 0.974
   343  H   0.999        C  336 0.965
   344  H   0.997        C  337 0.983
   345  H   0.999        C  337 0.986
   346  H   0.999        C  337 0.985
   347  H   0.997        C  338 0.983
   348  H   0.999        C  338 0.986
   349  H   0.998        C  338 0.983
   350  N   3.004        C  351 1.037    H  506 0.938    H  354 0.930
   351  C   3.986        N  350 1.037    C  352 0.960    H  355 0.957    H  356 0.946
   352  C   3.942        O  353 1.602    N  357 1.303    C  351 0.960
   353  O   1.922        C  352 1.602    N  357 0.186
   354  H   0.971        N  350 0.930
   355  H   0.995        C  351 0.957
   356  H   0.993        C  351 0.946
   357  N   3.468        C  352 1.303    C  358 0.980    H  364 0.903    O  353 0.186
   358  C   3.969        N  357 0.980    C  361 0.966    H  365 0.953    C  359 0.932
   359  C   3.952        O  360 1.658    N  371 1.280    C  358 0.932
   360  O   1.979        C  359 1.658    N  371 0.196
   361  C   3.958        C  363 1.000    O  362 0.994    C  358 0.966    H  366 0.957
   362  O   1.929        C  361 0.994    H  367 0.859
   363  C   3.990        C  361 1.000    H  370 0.983    H  369 0.982    H  368 0.981
   364  H   0.956        N  357 0.903
   365  H   0.996        C  358 0.953
   366  H   0.999        C  361 0.957
   367  H   0.877        O  362 0.859
   368  H   0.995        C  363 0.981
   369  H   0.997        C  363 0.982
   370  H   0.996        C  363 0.983
   371  N   3.462        C  359 1.280    C  372 0.999    H  375 0.924    O  360 0.196
   372  C   3.959        N  371 0.999    C  373 0.948    H  377 0.947    H  376 0.943
   373  C   3.953        O  374 1.606    N  378 1.322    C  372 0.948
   374  O   1.959        C  373 1.606    N  378 0.195
   375  H   0.954        N  371 0.924
   376  H   0.991        C  372 0.943
   377  H   0.989        C  372 0.947
   378  N   3.496        C  373 1.322    C  379 0.988    H  384 0.911    O  374 0.195
   379  C   3.963        N  378 0.988    C  382 0.977    H  385 0.940    C  380 0.923
   380  C   3.955        O  381 1.637    N  389 1.315    C  379 0.923
   381  O   1.957        C  380 1.637    N  389 0.205
   382  C   3.959        O  383 0.999    C  379 0.977    H  386 0.967    H  387 0.963
   383  O   1.936        C  382 0.999    H  388 0.876
   384  H   0.955        N  378 0.911
   385  H   0.989        C  379 0.940
   386  H   0.998        C  382 0.967
   387  H   0.998        C  382 0.963
   388  H   0.890        O  383 0.876
   389  N   3.484        C  380 1.315    C  390 0.990    H  401 0.888    O  381 0.205
   390  C   3.963        N  389 0.990    H  402 0.949    C  391 0.942    C  393 0.942
   391  C   3.949        O  392 1.624    N  410 1.302    C  390 0.942
   392  O   1.981        C  391 1.624    N  410 0.193
   393  C   3.985        C  394 1.011    H  403 0.966    H  404 0.965    C  390 0.942
   394  C   3.988        C  396 1.410    C  395 1.404    C  393 1.011
   395  C   3.990        C  397 1.454    C  394 1.404    H  405 0.964    C  398 0.107
   396  C   3.990        C  398 1.451    C  394 1.410    H  406 0.967    C  397 0.107
   397  C   3.988        C  395 1.454    C  399 1.374    H  407 0.962    C  396 0.107
   398  C   3.987        C  396 1.451    C  399 1.377    H  408 0.963    C  395 0.107
   399  C   3.939        C  398 1.377    C  397 1.374    O  400 1.056
   400  O   2.088        C  399 1.056    H  409 0.857
   401  H   0.946        N  389 0.888
   402  H   0.994        C  390 0.949
   403  H   0.995        C  393 0.966
   404  H   0.994        C  393 0.965
   405  H   0.998        C  395 0.964
   406  H   0.998        C  396 0.967
   407  H   0.998        C  397 0.962
   408  H   0.997        C  398 0.963
   409  H   0.877        O  400 0.857
   410  N   3.463        C  391 1.302    C  411 0.990    H  418 0.894    O  392 0.193
   411  C   3.968        N  410 0.990    C  414 0.973    C  412 0.945    H  419 0.932
   412  C   3.955        O  413 1.602    N  424 1.313    C  411 0.945
   413  O   2.017        C  412 1.602    N  424 0.190
   414  C   3.991        C  411 0.973    C  415 0.972    H  421 0.960    H  420 0.947
   415  C   3.952        O  416 1.626    N  417 1.323    C  414 0.972
   416  O   1.960        C  415 1.626    N  417 0.198
   417  N   3.409        C  415 1.323    H  423 0.930    H  422 0.918    O  416 0.198
   418  H   0.947        N  410 0.894
   419  H   0.991        C  411 0.932
   420  H   0.993        C  414 0.947
   421  H   0.995        C  414 0.960
   422  H   0.940        N  417 0.918
   423  H   0.955        N  417 0.930
   424  N   3.472        C  412 1.313    C  425 0.962    H  435 0.929    O  413 0.190
   425  C   3.951        C  426 0.973    C  428 0.968    N  424 0.962    H  436 0.941
   426  C   3.907        O  427 1.887    C  425 0.973    H  507 0.953
   427  O   2.043        C  426 1.887
   428  C   3.977        C  429 1.006    H  438 0.972    C  425 0.968    H  437 0.953
   429  C   3.986        C  430 1.010    C  428 1.006    H  439 0.967    H  440 0.966
   430  C   3.948        C  429 1.010    N  431 0.977    H  441 0.958    H  442 0.953
   431  N   3.483        C  432 1.337    C  430 0.977    H  443 0.891    N  434 0.105    N  433 0.103
   432  C   3.978        N  431 1.337    N  433 1.303    N  434 1.301
   433  N   3.379        C  432 1.303    H  445 0.923    H  444 0.912    N  431 0.103
   434  N   3.386        C  432 1.301    H  447 0.927    H  446 0.901    N  431 0.105
   435  H   0.961        N  424 0.929
   436  H   0.992        C  425 0.941
   437  H   0.992        C  428 0.953
   438  H   0.996        C  428 0.972
   439  H   0.992        C  429 0.967
   440  H   0.993        C  429 0.966
   441  H   0.993        C  430 0.958
   442  H   0.987        C  430 0.953
   443  H   0.944        N  431 0.891
   444  H   0.935        N  433 0.912
   445  H   0.942        N  433 0.923
   446  H   0.944        N  434 0.901
   447  H   0.948        N  434 0.927
   448  N   2.996        C  449 1.024    H  508 0.955    H  454 0.936
   449  C   3.989        N  448 1.024    C  452 0.973    H  455 0.960    C  450 0.938
   450  C   3.948        O  451 1.555    N  459 1.367    C  449 0.938
   451  O   1.919        C  450 1.555    N  459 0.195
   452  C   3.956        O  453 0.988    C  449 0.973    H  456 0.971    H  457 0.968
   453  O   1.950        C  452 0.988    H  458 0.878
   454  H   0.968        N  448 0.936
   455  H   0.997        C  449 0.960
   456  H   0.999        C  452 0.971
   457  H   0.998        C  452 0.968
   458  H   0.896        O  453 0.878
   459  N   3.508        C  450 1.367    C  460 0.975    H  470 0.866    O  451 0.195
   460  C   3.966        N  459 0.975    C  461 0.972    C  463 0.956    H  471 0.951
   461  C   3.897        O  462 1.897    C  460 0.972    H  509 0.952
   462  O   2.037        C  461 1.897
   463  C   3.981        C  464 1.004    H  473 0.962    H  472 0.960    C  460 0.956
   464  C   3.987        C  465 1.413    C  466 1.409    C  463 1.004    C  469 0.110
   465  C   3.992        C  467 1.445    C  464 1.413    H  474 0.967    C  468 0.112
   466  C   3.988        C  468 1.444    C  464 1.409    H  475 0.964    C  467 0.110
   467  C   3.992        C  465 1.445    C  469 1.438    H  476 0.968    C  466 0.110
   468  C   3.990        C  466 1.444    C  469 1.437    H  477 0.966    C  465 0.112
   469  C   3.991        C  467 1.438    C  468 1.437    H  478 0.971    C  464 0.110
   470  H   0.935        N  459 0.866
   471  H   0.995        C  460 0.951
   472  H   0.996        C  463 0.960
   473  H   0.992        C  463 0.962
   474  H   0.999        C  465 0.967
   475  H   0.996        C  466 0.964
   476  H   0.999        C  467 0.968
   477  H   0.996        C  468 0.966
   478  H   0.998        C  469 0.971
   479  N   2.996        C  480 1.022    H  510 0.955    H  485 0.925
   480  C   3.988        N  479 1.022    C  481 0.976    H  486 0.960    C  483 0.940
   481  C   3.889        O  482 1.892    C  480 0.976    H  511 0.952
   482  O   2.031        C  481 1.892
   483  C   3.962        O  484 1.015    H  488 0.972    H  487 0.967    C  480 0.940
   484  O   1.960        C  483 1.015    H  489 0.853
   485  H   0.967        N  479 0.925
   486  H   0.997        C  480 0.960
   487  H   0.999        C  483 0.967
   488  H   0.998        C  483 0.972
   489  H   0.892        O  484 0.853
   490  H   0.963        N    1 0.950
   491  H   0.996        C    3 0.955
   492  H   0.966        N   22 0.951
   493  H   0.998        C   70 0.958
   494  H   0.969        N   82 0.957
   495  H   0.996        C   84 0.956
   496  H   0.966        N  101 0.949
   497  H   0.995        C  114 0.955
   498  H   0.967        N  126 0.957
   499  H   0.994        C  279 0.955
   500  H   0.967        N  298 0.946
   501  H   0.996        C  300 0.955
   502  H   0.970        N  312 0.959
   503  H   0.995        C  314 0.954
   504  H   0.969        N  331 0.958
   505  H   0.994        C  333 0.954
   506  H   0.967        N  350 0.938
   507  H   0.994        C  426 0.953
   508  H   0.967        N  448 0.955
   509  H   0.992        C  461 0.952
   510  H   0.967        N  479 0.955
   511  H   0.993        C  481 0.952
 
molecular dipole:
                 x           y           z       tot (Debye)
 q only:      -37.675     -22.637      18.073
   full:      -34.399     -23.410      16.996     114.245
molecular quadrupole (traceless):
                xx          xy          yy          xz          yz          zz
 q only:    -3992.413   -2813.653    -250.694   -1320.328   -1140.910    4243.107
  q+dip:    -3602.496   -2748.139    -446.409   -1149.788   -1244.724    4048.905
   full:    -3603.256   -2746.454    -443.016   -1148.951   -1241.377    4046.272


           -------------------------------------------------
          | TOTAL ENERGY             -802.936480233089 Eh   |
          | GRADIENT NORM               0.736593224415 Eh/α |
          | HOMO-LUMO GAP               1.387555373514 eV   |
           -------------------------------------------------

------------------------------------------------------------------------
 * finished run on 2019/05/31 at 02:07:24.383     
------------------------------------------------------------------------
 total:
 * wall-time:     0 d,  0 h,  0 min, 19.162 sec
 *  cpu-time:     0 d,  0 h,  1 min, 14.984 sec
 * ratio c/w:     3.913 speedup
 SCF:
 * wall-time:     0 d,  0 h,  0 min, 18.170 sec
 *  cpu-time:     0 d,  0 h,  1 min, 11.678 sec
 * ratio c/w:     3.945 speedup

