      -----------------------------------------------------------      
     |                   =====================                   |     
     |                           x T B                           |     
     |                   =====================                   |     
     |                         S. Grimme                         |     
     |          Mulliken Center for Theoretical Chemistry        |     
     |                    University of Bonn                     |     
     |                Version 6.1 RC1 (SAW190329)                |     
      -----------------------------------------------------------      

   This program is distributed in the hope that it will be useful,
   but WITHOUT ANY WARRANTY; without even the implied warranty of
   MERCHANTABILITY or FITNESS FOR A PARTICULAR PURPOSE.
   
   FOR NON-COMMERCIAL, ACADEMIA USE ONLY.
   
   Cite this work as:
   S. Grimme, C. Bannwarth, P. Shushkov, J. Comput. Theory Chem., 2017,
   13, 1989-2009. DOI: 10.1021/acs.jctc.7b00118
   C. Bannwarth, S. Ehlert and S. Grimme., J. Comput. Theory Chem., 2019,
   just accepted. DOI: 10.1021/acs.jctc.8b01176
   
   for sTDA-xTB:
   S. Grimme and C. Bannwarth, J. Chem. Phys., 2016, 145, 054103.
   DOI: 10.1063/1.4959605
   
   in the mass-spec context:
   V. Asgeirsson, C. Bauer and S. Grimme, Chem. Sci., 2017, 8, 4879.
   DOI: 10.1039/c7sc00601b
   
   for metadynamics refer to:
   S. Grimme, ChemRxiv, Preprint. DOI: 10.26434/chemrxiv.7660532.v1
   
   with help from (in alphabetical order)
   C. Bannwarth, F. Bohle, G. Brandenburg, E. Caldeweyher, M. Checinski,
   S. Dohm, S. Ehlert, S. Ehrlich, F. März, H. Neugebauer, J. Pisarek,
   P. Pracht, P. Shushkov, and S. Spicher.
   
 * started run on 2019/05/31 at 05:35:29.773     

           -------------------------------------------------
          |                Calculation Setup                |
           -------------------------------------------------

          program call               : /home/lum/install/xtb/xtb-190329/bin/xtb xtb_tmp.xyz --chrg 0 --grad --gfn 2 --etemp 500 --acc 0.1 --gbsa h2o --parallel 2
          hostname                   : cpu02
          coordinate file            : xtb_tmp.xyz
          omp threads                :                     2
          number of atoms            :                    50
          number of electrons        :                   142
          charge                     :                     0
          spin                       :                   0.0
          first test random number   :      0.42143197023390


########################################################################
# WARNING! Please study the warnings concerning your input carefully
#  - XTBPATH is not set, using XTBHOME instead
#  - Process number higher than OMP_NUM_THREADS, I hope you know what you are doing.
########################################################################

           ------------------------------------------------- 
          |                 G F N 2 - x T B                 |
          | Geometry, Frequencies, Noncovalent interactions |
          |            JCTC 2018 parametrisation            |
           ------------------------------------------------- 
 
             k(s)              :                1.8500
             k(p)              :                2.2300
             k(d)              :                2.2300
             k(f)              :                2.0000
             kEN (H0ij)        :               -2.0000
             D4 a1             :                0.5200
             D4 a2             :                5.0000
             D4 s6             :                1.0000
             D4 s8             :                2.7000
             D4 s9             :                5.0000
             alphaj            :                2.0000

  Z AO/shell   Hii/eV     exponent
  1     Wed Apr 25 08:07:45 CEST 2018   EN: 2.200 GM2: 0.406  GM3: 0.0800  RAES: 1.40
     1s    -10.707211    1.230000
  6     Wed Apr 25 08:07:45 CEST 2018   EN: 2.550 GM2: 0.538  GM3: 0.1500  RAES: 3.00
     2s    -13.970922    2.096432
     2p    -10.063292    1.800000
  7     Wed Apr 25 08:07:45 CEST 2018   EN: 3.040 GM2: 0.461  GM3:-0.0640  RAES: 1.90
     2s    -16.686243    2.339881
     2p    -12.523956    2.014332
  8     Wed Apr 25 08:07:45 CEST 2018   EN: 3.440 GM2: 0.452  GM3:-0.0517  RAES: 1.80
     2s    -20.229985    2.439742
     2p    -15.503117    2.137023

 Solvent             : h2o
 Using internal parameter file: .param_gbsa2_h2o
 Gsolv ref. state (COSMO-RS): gsolv [1 M gas/solution]
 temperature (mdtemp)       :    298.150000000000     
 dielectric constant        :    80.2000000000000     
 rho                        :    1.00000000000000     
 mass                       :    18.0000000000000     
 surface tension            :    15.5689454083859     
 probe radius               :   0.975313790000000     
 vdW radii scaling          :    1.00000000000000     
 Gshift (Eh)                :   1.857443126794793E-003
 c1                         :    1.55243817000000     
 soset                      :   0.130326360000000     
 HB correction              :  T
 Number of grid points      :          230

            Z     q(EN)     CN     RAES       Cart. coordinates
     1  N   5.0   -0.66    3.00    1.93   361.11234   140.45919   208.30224
     2  C   4.0    0.07    3.98    3.59   361.16515   141.62717   210.76937
     3  C   4.0    0.27    3.01    3.02   363.34945   143.54947   210.80003
     4  O   6.0   -0.34    1.00    1.80   364.55900   143.97668   208.87218
     5  C   4.0   -0.11    3.98    3.59   361.27399   139.63927   212.89987
     6  C   4.0    0.27    3.00    3.02   359.69508   137.33737   212.15800
     7  O   6.0   -0.37    1.00    1.80   360.61772   135.44875   211.15943
     8  N   5.0   -0.65    3.00    1.93   357.23564   137.50699   212.67874
     9  H   1.0    0.30    1.00    1.43   362.53997   139.28112   207.80297
    10  H   1.0    0.12    0.99    1.43   359.38826   142.70508   210.87451
    11  H   1.0    0.13    0.99    1.43   363.21727   139.01278   213.16743
    12  H   1.0    0.09    0.99    1.43   360.53163   140.42338   214.64976
    13  H   1.0    0.29    1.00    1.43   356.09269   136.05680   212.19079
    14  H   1.0    0.26    1.00    1.43   356.45850   139.07523   213.42395
    15  N   5.0   -0.51    3.00    1.93   363.77034   144.77466   212.99084
    16  C   4.0    0.08    3.99    3.60   365.15748   147.14333   212.99549
    17  C   4.0    0.28    3.01    3.02   367.77914   147.08103   211.75528
    18  O   6.0   -0.40    1.00    1.80   368.69082   149.09813   211.07206
    19  C   4.0   -0.15    3.98    3.58   365.35357   148.31290   215.67170
    20  C   4.0   -0.15    3.98    3.58   365.03599   146.52009   217.92083
    21  C   4.0   -0.14    3.98    3.58   366.96584   144.36517   217.97242
    22  C   4.0   -0.05    3.98    3.58   366.28046   142.28005   219.84193
    23  N   5.0   -0.73    3.98    2.82   366.29913   143.22492   222.49732
    24  H   1.0    0.22    1.00    1.43   362.46416   144.59429   214.37130
    25  H   1.0    0.14    0.99    1.43   364.14282   148.49794   211.78382
    26  H   1.0    0.13    0.99    1.43   367.18582   149.25081   215.77709
    27  H   1.0    0.11    0.99    1.43   363.91305   149.77924   215.82900
    28  H   1.0    0.11    0.99    1.43   365.24303   147.71401   219.58823
    29  H   1.0    0.10    0.99    1.43   363.12291   145.74994   217.92231
    30  H   1.0    0.13    0.99    1.43   367.07550   143.49944   216.10856
    31  H   1.0    0.12    0.99    1.43   368.84498   145.10687   218.37774
    32  H   1.0    0.11    0.99    1.43   364.40245   141.54689   219.41928
    33  H   1.0    0.12    0.99    1.43   367.64138   140.74212   219.65761
    34  H   1.0    0.25    1.00    1.43   365.93203   141.77211   223.74274
    35  H   1.0    0.25    1.00    1.43   368.04852   143.96953   222.92332
    36  H   1.0    0.24    1.00    1.43   364.95028   144.61372   222.72051
    37  N   5.0   -0.47    3.00    1.93   369.04611   144.89715   211.57619
    38  C   4.0    0.08    3.99    3.61   371.57649   144.78287   210.55724
    39  C   4.0    0.11    3.00    3.02   371.78421   143.16548   208.17454
    40  O   6.0   -0.36    1.00    1.80   373.86136   142.50118   207.35864
    41  C   4.0   -0.08    3.98    3.59   373.41327   143.72449   212.51162
    42  C   4.0    0.32    2.99    3.02   372.68372   140.94476   213.13998
    43  O   6.0   -0.36    1.00    1.80   371.11591   139.93102   211.67985
    44  O   6.0   -0.37    1.00    1.80   373.65538   139.97015   215.03375
    45  H   1.0    0.28    1.00    1.43   368.30089   143.21327   212.07274
    46  H   1.0    0.15    0.99    1.43   372.10818   146.72107   210.04117
    47  H   1.0    0.14    0.99    1.43   375.31823   143.65884   211.72213
    48  H   1.0    0.12    0.99    1.43   373.45591   144.84250   214.24014
    49  H   1.0    0.32    1.00    1.43   359.70647   139.51400   208.15157
    50  H   1.0    0.17    1.00    1.43   370.22158   142.63207   207.25545

           ------------------------------------------------- 
          |        Self-Consistent Charge Iterations        |
           ------------------------------------------------- 

          ...................................................
          :                      SETUP                      :
          :.................................................:
          :  # basis functions                 125          :
          :  # atomic orbitals                 125          :
          :  # shells                           75          :
          :  # electrons                       142          :
          :  max. iterations                   250          :
          :  Hamiltonian                  GFN2-xTB          :
          :  restarted?                      false          :
          :  GBSA solvation                   true          :
          :  PC potential                    false          :
          :  electronic temp.          500.0000000     K    :
          :  accuracy                    0.1000000          :
          :  -> integral cutoff          0.3500000E+02      :
          :  -> integral neglect         0.1000000E-08      :
          :  -> SCF convergence          0.1000000E-06 Eh   :
          :  -> wf. convergence          0.1000000E-04 e    :
          :  Broyden damping             0.4000000          :
          ...................................................

 iter      E             dE          RMSdq      gap      omega  full diag
   1    -82.3192604 -0.823193E+02  0.480E+00    2.36       0.0  T
   2    -82.6494920 -0.330232E+00  0.235E+00    2.11       1.0  T
   3    -82.6601829 -0.106908E-01  0.130E+00    2.80       1.0  T
   4    -82.6612939 -0.111099E-02  0.334E-01    2.41       1.0  T
   5    -82.6640771 -0.278324E-02  0.129E-01    2.63       1.0  T
   6    -82.6641861 -0.108994E-03  0.564E-02    2.62       1.0  T
   7    -82.6641937 -0.758223E-05  0.172E-02    2.65       1.0  T
   8    -82.6641975 -0.376584E-05  0.600E-03    2.65       2.4  T
   9    -82.6641976 -0.176776E-06  0.229E-03    2.65       6.2  T
  10    -82.6641977 -0.215574E-07  0.646E-04    2.64      21.9  T
  11    -82.6641977 -0.238629E-08  0.246E-04    2.64      57.4  T
  12    -82.6641977 -0.413635E-09  0.102E-04    2.64     139.1  T
  13    -82.6641977 -0.868852E-10  0.349E-05    2.64     405.1  T
  14    -82.6641977 -0.101181E-10  0.148E-05    2.64     955.7  T

   *** convergence criteria satisfied after 14 iterations ***

         #    Occupation            Energy/Eh            Energy/eV
      -------------------------------------------------------------
         1        2.0000           -0.7166970             -19.5023
       ...           ...                  ...                  ...
        65        2.0000           -0.4052779             -11.0282
        66        2.0000           -0.4032379             -10.9727
        67        2.0000           -0.4010737             -10.9138
        68        2.0000           -0.3974039             -10.8139
        69        2.0000           -0.3869401             -10.5292
        70        2.0000           -0.3738955             -10.1742
        71        2.0000           -0.3681172             -10.0170 (HOMO)
        72                         -0.2709296              -7.3724 (LUMO)
        73                         -0.2345701              -6.3830
        74                         -0.2216054              -6.0302
        75                         -0.2197006              -5.9784
        76                         -0.1761468              -4.7932
       ...                                ...                  ...
       125                          0.6304665              17.1559
      -------------------------------------------------------------
                  HL-Gap            0.0971876 Eh            2.6446 eV
             Fermi-level           -0.3195234 Eh           -8.6947 eV

 SCC (total)                   0 d,  0 h,  0 min,  0.087 sec
 SCC setup                      ...        0 min,  0.003 sec (  2.882%)
 Dispersion                     ...        0 min,  0.001 sec (  0.791%)
 integral evaluation            ...        0 min,  0.009 sec ( 10.513%)
 zeroth order Hamiltonian       ...        0 min,  0.000 sec (  0.261%)
 iterations                     ...        0 min,  0.052 sec ( 59.945%)
 molecular gradient             ...        0 min,  0.021 sec ( 24.631%)
 printout                       ...        0 min,  0.001 sec (  0.925%)

         :::::::::::::::::::::::::::::::::::::::::::::::::::::
         ::                     SUMMARY                     ::
         :::::::::::::::::::::::::::::::::::::::::::::::::::::
         :: total energy              -81.749305296336 Eh   ::
         :: total w/o Gsasa/hb        -81.731834512581 Eh   ::
         :: gradient norm               0.224645314394 Eh/α ::
         :: HOMO-LUMO gap               2.644609051499 eV   ::
         ::.................................................::
         :: SCC energy                -82.663571474373 Eh   ::
         :: -> isotropic ES             0.470440943011 Eh   ::
         :: -> anisotropic ES          -0.020046488546 Eh   ::
         :: -> anisotropic XC           0.024206341886 Eh   ::
         :: -> dispersion              -0.048227965679 Eh   ::
         :: -> Gsolv                   -0.183464486647 Eh   ::
         ::    -> Gborn                -0.165993702892 Eh   ::
         ::    -> Gsasa                -0.001231263854 Eh   ::
         ::    -> Ghb                  -0.018096963029 Eh   ::
         ::    -> Gshift                0.001857443127 Eh   ::
         :: repulsion energy            0.912824189644 Eh   ::
         :: add. restraining            0.000000000000 Eh   ::
         :::::::::::::::::::::::::::::::::::::::::::::::::::::

           -------------------------------------------------
          |                Property Printout                |
           -------------------------------------------------

    * Orbital Energies and Occupations

         #    Occupation            Energy/Eh            Energy/eV
      -------------------------------------------------------------
         1        2.0000           -0.7166970             -19.5023
       ...           ...                  ...                  ...
        59        2.0000           -0.4508260             -12.2676
        60        2.0000           -0.4448620             -12.1053
        61        2.0000           -0.4331915             -11.7877
        62        2.0000           -0.4316095             -11.7447
        63        2.0000           -0.4244684             -11.5504
        64        2.0000           -0.4166724             -11.3382
        65        2.0000           -0.4052779             -11.0282
        66        2.0000           -0.4032379             -10.9727
        67        2.0000           -0.4010737             -10.9138
        68        2.0000           -0.3974039             -10.8139
        69        2.0000           -0.3869401             -10.5292
        70        2.0000           -0.3738955             -10.1742
        71        2.0000           -0.3681172             -10.0170 (HOMO)
        72                         -0.2709296              -7.3724 (LUMO)
        73                         -0.2345701              -6.3830
        74                         -0.2216054              -6.0302
        75                         -0.2197006              -5.9784
        76                         -0.1761468              -4.7932
        77                         -0.0756954              -2.0598
        78                         -0.0261024              -0.7103
        79                         -0.0132404              -0.3603
        80                          0.0050085               0.1363
        81                          0.0241432               0.6570
        82                          0.0270785               0.7368
       ...                                ...                  ...
       125                          0.6304665              17.1559
      -------------------------------------------------------------
                  HL-Gap            0.0971876 Eh            2.6446 eV
             Fermi-level           -0.3195234 Eh           -8.6947 eV

   #   Z        covCN         q      C6AA      α(0)
   1   7 N      2.637    -0.377    29.728     8.098
   2   6 C      3.784     0.030    20.078     6.383
   3   6 C      2.757     0.269    22.466     7.762
   4   8 O      0.858    -0.488    23.518     6.502
   5   6 C      3.805    -0.115    22.692     6.782
   6   6 C      2.744     0.295    21.992     7.679
   7   8 O      0.859    -0.521    24.264     6.604
   8   7 N      2.638    -0.284    27.341     7.766
   9   1 H      0.860     0.146     1.430     1.873
  10   1 H      0.923     0.072     2.064     2.247
  11   1 H      0.925     0.062     2.173     2.305
  12   1 H      0.925     0.081     1.965     2.192
  13   1 H      0.860     0.232     0.956     1.532
  14   1 H      0.860     0.241     0.920     1.502
  15   7 N      2.684    -0.195    25.244     7.462
  16   6 C      3.792     0.021    20.238     6.407
  17   6 C      2.754     0.285    22.176     7.711
  18   8 O      0.859    -0.505    23.893     6.554
  19   6 C      3.801    -0.080    22.036     6.683
  20   6 C      3.800    -0.091    22.240     6.715
  21   6 C      3.801    -0.088    22.182     6.706
  22   6 C      3.730    -0.047    21.514     6.621
  23   7 N      3.482    -0.145    24.131     7.296
  24   1 H      0.860     0.231     0.960     1.535
  25   1 H      0.923     0.068     2.112     2.272
  26   1 H      0.924     0.063     2.159     2.298
  27   1 H      0.924     0.079     1.992     2.207
  28   1 H      0.924     0.090     1.876     2.142
  29   1 H      0.924     0.075     2.033     2.230
  30   1 H      0.925     0.057     2.240     2.340
  31   1 H      0.924     0.069     2.093     2.263
  32   1 H      0.925     0.119     1.618     1.989
  33   1 H      0.924     0.107     1.721     2.052
  34   1 H      0.859     0.307     0.694     1.305
  35   1 H      0.859     0.297     0.722     1.331
  36   1 H      0.859     0.303     0.705     1.315
  37   7 N      2.687    -0.160    24.457     7.345
  38   6 C      3.795     0.041    19.893     6.351
  39   6 C      2.768     0.216    23.441     7.929
  40   8 O      0.856    -0.419    22.063     6.298
  41   6 C      3.806    -0.098    22.359     6.731
  42   6 C      2.685     0.377    20.617     7.431
  43   8 O      0.856    -0.628    26.826     6.944
  44   8 O      0.856    -0.614    26.468     6.898
  45   1 H      0.860     0.195     1.134     1.668
  46   1 H      0.923     0.093     1.851     2.128
  47   1 H      0.924     0.047     2.360     2.402
  48   1 H      0.925     0.054     2.265     2.353
  49   1 H      0.862     0.178     1.224     1.733
  50   1 H      0.930     0.057     2.237     2.339

 Mol. C6AA /au·bohr⁶  :      23026.964858
 Mol. C8AA /au·bohr⁸  :     507761.564021
 Mol. α(0) /au        :        225.208181


Wiberg/Mayer (AO) data.
largest (>0.10) Wiberg bond orders for each atom
          total WBO             WBO to atom ...
     1  N   3.005        C    2 1.029    H    9 0.960    H   49 0.951
     2  C   3.983        N    1 1.029    C    5 0.954    H   10 0.946    C    3 0.939
     3  C   3.941        O    4 1.668    N   15 1.264    C    2 0.939
     4  O   1.978        C    3 1.668    N   15 0.187
     5  C   3.993        H   11 0.974    H   12 0.967    C    6 0.961    C    2 0.954
     6  C   3.942        O    7 1.633    N    8 1.319    C    5 0.961
     7  O   1.935        C    6 1.633    N    8 0.202
     8  N   3.401        C    6 1.319    H   13 0.924    H   14 0.923    O    7 0.202
     9  H   0.979        N    1 0.960
    10  H   0.995        C    2 0.946
    11  H   0.996        C    5 0.974
    12  H   0.993        C    5 0.967
    13  H   0.946        N    8 0.924
    14  H   0.942        N    8 0.923
    15  N   3.416        C    3 1.264    C   16 0.980    H   24 0.906    O    4 0.187
    16  C   3.961        N   15 0.980    C   19 0.965    H   25 0.946    C   17 0.945
    17  C   3.939        O   18 1.624    N   37 1.293    C   16 0.945
    18  O   1.941        C   17 1.624    N   37 0.190
    19  C   3.979        C   20 1.008    H   27 0.973    H   26 0.973    C   16 0.965
    20  C   3.989        C   19 1.008    C   21 1.006    H   28 0.967    H   29 0.965
    21  C   3.987        C   22 1.012    C   20 1.006    H   31 0.971    H   30 0.961
    22  C   3.923        C   21 1.012    H   33 0.967    H   32 0.963    N   23 0.960
    23  N   3.665        C   22 0.960    H   35 0.897    H   34 0.893    H   36 0.892
    24  H   0.946        N   15 0.906
    25  H   0.995        C   16 0.946
    26  H   0.996        C   19 0.973
    27  H   0.993        C   19 0.973
    28  H   0.992        C   20 0.967
    29  H   0.994        C   20 0.965
    30  H   0.997        C   21 0.961
    31  H   0.995        C   21 0.971
    32  H   0.986        C   22 0.963
    33  H   0.988        C   22 0.967
    34  H   0.906        N   23 0.893
    35  H   0.912        N   23 0.897
    36  H   0.908        N   23 0.892
    37  N   3.477        C   17 1.293    C   38 0.993    H   45 0.920    O   18 0.190
    38  C   3.973        N   37 0.993    C   39 0.982    C   41 0.974    H   46 0.921
    39  C   3.907        O   40 1.827    C   38 0.982    H   50 0.957
    40  O   2.003        C   39 1.827
    41  C   3.982        C   38 0.974    H   48 0.971    H   47 0.961    C   42 0.914
    42  C   3.935        O   44 1.529    O   43 1.466    C   41 0.914
    43  O   1.854        C   42 1.466    O   44 0.210
    44  O   1.822        C   42 1.529    O   43 0.210
    45  H   0.962        N   37 0.920
    46  H   0.991        C   38 0.921
    47  H   0.997        C   41 0.961
    48  H   0.997        C   41 0.971
    49  H   0.968        N    1 0.951
    50  H   0.997        C   39 0.957
 
molecular dipole:
                 x           y           z       tot (Debye)
 q only:       -9.220       3.472      13.210
   full:       -9.510       3.180      13.187      42.110
molecular quadrupole (traceless):
                xx          xy          yy          xz          yz          zz
 q only:   -10103.310     -45.995    1501.111    4310.212    3951.359    8602.200
  q+dip:   -10264.593    -266.134    1527.507    4205.035    3855.223    8737.086
   full:   -10265.758    -266.655    1527.184    4205.120    3854.503    8738.574


           -------------------------------------------------
          | TOTAL ENERGY              -81.749305296336 Eh   |
          | GRADIENT NORM               0.224645314394 Eh/α |
          | HOMO-LUMO GAP               2.644609051499 eV   |
           -------------------------------------------------

------------------------------------------------------------------------
 * finished run on 2019/05/31 at 05:35:30.014     
------------------------------------------------------------------------
 total:
 * wall-time:     0 d,  0 h,  0 min,  0.241 sec
 *  cpu-time:     0 d,  0 h,  0 min,  0.320 sec
 * ratio c/w:     1.329 speedup
 SCF:
 * wall-time:     0 d,  0 h,  0 min,  0.087 sec
 *  cpu-time:     0 d,  0 h,  0 min,  0.174 sec
 * ratio c/w:     1.995 speedup

