      -----------------------------------------------------------      
     |                   =====================                   |     
     |                           x T B                           |     
     |                   =====================                   |     
     |                         S. Grimme                         |     
     |          Mulliken Center for Theoretical Chemistry        |     
     |                    University of Bonn                     |     
     |                 Version 6.0.1 (SAW181210)                 |     
      -----------------------------------------------------------      

   This program is distributed in the hope that it will be useful,
   but WITHOUT ANY WARRANTY; without even the implied warranty of
   MERCHANTABILITY or FITNESS FOR A PARTICULAR PURPOSE.
   
   FOR NON-COMMERCIAL, ACADEMIA USE ONLY.
   
   Cite this work as:
   S. Grimme, C. Bannwarth, P. Shushkov, J. Comput. Theory Chem., 2017,
   13, 1989-2009.
   C. Bannwarth, S. Ehlert and S. Grimme., ChemRxiv, 2018, preprint.
   http://doi.org/10.26434/chemrxiv.7246238.v1
   
   for sTDA-xTB:
   S. Grimme and C. Bannwarth, J. Chem. Phys., 2016, 145, 054103.
   
   in the mass-spec context:
   V. Asgeirsson, C. Bauer and S. Grimme, Chem. Sci., 2017, 8, 4879.
   
   if GBSA is used:
   P. Shushkov, F. März and S. Grimme, unpublished.
   
   for ANC optimizer:
   S. Grimme, unpublished.
   Rational Function algorithm used in ANCopt:
   F. Eckert, P. Pulay, H.-J. Werner, J. Comput. Chem., 1997, 18, 1473.
   
   with help from (in alphabetical order)
   C. Bannwarth, F. Bohle, G. Brandenburg, E. Caldeweyher, M. Checinski,
   S. Dohm, S. Ehlert, S. Ehrlich, F. März, H. Neugebauer, J. Pisarek,
   P. Pracht, P. Shushkov, and S. Spicher.
   
 * started run on 2019/03/14 at 15:08:18.757     
========================================================================
 # omp threads = 1
========================================================================
number of atoms            : 300
number of electrons        : 802
charge                     : -1
spin                       : .0
first test random number   : .4578
           ------------------------------------------------- 
          |                 G F N 2 - x T B                 |
          | Geometry, Frequencies, Noncovalent interactions |
          |            JCTC 2018 parametrisation            |
           ------------------------------------------------- 
 
      method parameters     
 k(s)        :  1.8500
 k(p)        :  2.2300
 k(d)        :  2.2300
 k(f)        :  2.0000
 kEN (H0ij)  : -2.0000
 D4 a1       :  0.5200
 D4 a2       :  5.0000
 D4 s6       :  1.0000
 D4 s8       :  2.7000
 D4 s9       :  5.0000
 alphaj      :  2.0000

 Solvent             : h2o
 Using internal parameter file: .param_gbsa2_h2o
 Gsolv ref. state (COSMO-RS): gsolv [1 M gas/solution]
 temperature (mdtemp)       :    298.150000000000     
 dielectric constant        :    80.2000000000000     
 rho                        :    1.00000000000000     
 mass                       :    18.0000000000000     
 surface tension            :    15.5689454083859     
 probe radius               :   0.975313790000000     
 vdW radii scaling          :    1.00000000000000     
 Gshift (Eh)                :   1.857443126794793E-003
 c1                         :    1.55243817000000     
 soset                      :   0.130326360000000     
 HB correction              :  T

            Z     q(EN)     CN     RAES       Cart. coordinates
     1  N   5.0   -0.22    3.20    1.96    69.58616    95.61729    81.16055
     2  C   4.0    0.03    4.26    4.12    70.43341    93.94201    83.12659
     3  C   4.0    0.07    3.25    3.04    72.14005    95.17371    85.07404
     4  O   6.0   -0.29    1.13    1.80    72.43047    94.17734    87.15060
     5  C   4.0   -0.04    4.36    4.30    72.02990    91.76218    82.13573
     6  C   4.0   -0.04    4.20    4.00    70.53331    90.07964    80.36890
     7  C   4.0    0.24    3.14    3.03    72.28961    87.96076    79.42264
     8  O   6.0   -0.30    1.18    1.80    74.27109    88.55736    78.34542
     9  O   6.0   -0.32    1.38    1.80    71.58543    85.71871    79.84431
    10  H   1.0    0.08    1.03    1.43    70.90848    96.05013    79.85599
    11  H   1.0    0.04    1.06    1.44    68.77855    93.20254    84.11816
    12  H   1.0    0.05    1.03    1.43    73.67038    92.55174    81.16640
    13  H   1.0    0.06    1.03    1.43    72.69530    90.69629    83.77476
    14  H   1.0    0.04    1.03    1.43    68.90760    89.32309    81.38248
    15  H   1.0    0.04    1.03    1.43    69.88823    91.20838    78.76851
    16  N   5.0   -0.22    3.25    1.97    63.41343    48.90152    92.76175
    17  C   4.0    0.03    4.25    4.10    62.89663    51.23682    91.41804
    18  C   4.0    0.07    3.19    3.03    64.96949    51.75963    89.46426
    19  O   6.0   -0.30    1.11    1.80    64.55431    52.81007    87.45386
    20  C   4.0   -0.04    4.31    4.21    62.59062    53.36349    93.34955
    21  C   4.0   -0.02    3.54    3.13    60.47165    52.87753    95.21668
    22  C   4.0   -0.05    3.46    3.10    60.25513    54.43846    97.32841
    23  C   4.0   -0.05    3.50    3.12    58.71248    50.94936    94.92195
    24  C   4.0   -0.04    3.43    3.09    58.34890    54.09663    99.07493
    25  C   4.0   -0.05    3.43    3.09    56.79825    50.57983    96.66707
    26  C   4.0    0.07    3.44    3.09    56.58875    52.16280    98.74950
    27  O   6.0   -0.25    2.11    1.84    54.73149    51.88674   100.50085
    28  H   1.0    0.08    1.03    1.43    63.74999    49.03411    94.63540
    29  H   1.0    0.05    1.05    1.44    61.15605    51.02822    90.31039
    30  H   1.0    0.04    1.03    1.43    64.36645    53.61482    94.37785
    31  H   1.0    0.05    1.03    1.43    62.22776    55.12585    92.33744
    32  H   1.0    0.04    1.03    1.43    61.58459    55.96345    97.60160
    33  H   1.0    0.04    1.04    1.43    58.76557    49.69902    93.31434
    34  H   1.0    0.05    1.03    1.43    58.18517    55.31810   100.70017
    35  H   1.0    0.04    1.03    1.43    55.44715    49.07089    96.38622
    36  H   1.0    0.11    1.03    1.43    53.59955    50.53071   100.02992
    37  N   5.0   -0.22    3.23    1.96    70.55779    73.91943    72.78900
    38  C   4.0    0.03    4.32    4.23    71.15106    75.50170    74.93809
    39  C   4.0    0.14    3.50    3.11    68.80881    75.93414    76.54758
    40  O   6.0   -0.32    1.35    1.80    68.99321    76.09791    78.87056
    41  C   4.0   -0.05    4.34    4.28    72.33706    78.04469    74.26320
    42  C   4.0   -0.03    4.19    3.97    74.77638    77.80405    72.72516
    43  C   4.0   -0.08    4.10    3.81    75.82032    80.43440    72.16174
    44  C   4.0   -0.07    4.11    3.82    76.76803    76.20724    74.06283
    45  H   1.0    0.07    1.02    1.43    70.71167    74.57740    70.99435
    46  H   1.0    0.04    1.06    1.44    72.46514    74.44350    76.15143
    47  H   1.0    0.04    1.03    1.43    70.97404    79.16063    73.19163
    48  H   1.0    0.05    1.03    1.43    72.74953    79.00372    76.04376
    49  H   1.0    0.03    1.06    1.44    74.29564    76.88739    70.94593
    50  H   1.0    0.03    1.00    1.43    77.60888    80.29351    71.16538
    51  H   1.0    0.04    1.00    1.43    74.50554    81.49724    70.99624
    52  H   1.0    0.05    1.00    1.43    76.14698    81.45677    73.91201
    53  H   1.0    0.04    1.00    1.43    78.49958    76.15944    72.95965
    54  H   1.0    0.06    1.00    1.43    77.21463    76.96217    75.92226
    55  H   1.0    0.04    1.00    1.43    76.13239    74.26904    74.30313
    56  N   5.0   -0.15    3.51    2.08    66.57469    76.20158    75.41860
    57  C   4.0    0.03    4.55    4.61    64.40169    76.54649    77.07020
    58  C   4.0    0.15    3.51    3.12    64.09102    74.17978    78.70992
    59  O   6.0   -0.33    1.27    1.80    63.44344    74.33772    80.93539
    60  C   4.0   -0.03    4.29    4.19    61.93335    77.33870    75.74115
    61  C   4.0   -0.05    4.21    4.02    60.76638    75.05182    74.41011
    62  C   4.0   -0.08    4.13    3.86    62.45989    79.58325    74.00683
    63  C   4.0   -0.09    4.02    3.66    58.74425    75.65968    72.46034
    64  H   1.0    0.07    1.05    1.44    66.40239    76.19842    73.50774
    65  H   1.0    0.05    1.07    1.44    64.90307    78.04335    78.40918
    66  H   1.0    0.04    1.05    1.44    60.64911    77.95547    77.24281
    67  H   1.0    0.04    1.04    1.43    62.25492    74.03431    73.42998
    68  H   1.0    0.04    1.03    1.43    60.00808    73.79721    75.86160
    69  H   1.0    0.03    1.00    1.43    60.72576    80.37056    73.24569
    70  H   1.0    0.04    1.00    1.43    63.41332    81.05331    75.07045
    71  H   1.0    0.03    1.00    1.43    63.65963    79.01396    72.44614
    72  H   1.0    0.03    1.00    1.43    58.19049    73.92873    71.50098
    73  H   1.0    0.03    1.00    1.43    57.07435    76.51391    73.28743
    74  H   1.0    0.03    1.01    1.43    59.52165    76.94675    71.06789
    75  N   5.0   -0.15    3.54    2.10    64.64790    72.00017    77.58433
    76  C   4.0    0.03    4.33    4.26    64.59660    69.61765    78.90136
    77  C   4.0    0.15    3.39    3.08    66.74814    69.38102    80.85905
    78  O   6.0   -0.32    1.24    1.80    66.84119    67.51544    82.22084
    79  C   4.0   -0.08    4.13    3.85    64.86326    67.44941    77.02092
    80  H   1.0    0.07    1.07    1.44    64.99282    71.88863    75.70101
    81  H   1.0    0.05    1.05    1.44    62.78629    69.46008    79.91771
    82  H   1.0    0.05    1.00    1.43    64.57987    65.65333    77.97182
    83  H   1.0    0.03    1.00    1.43    63.52983    67.61402    75.46651
    84  H   1.0    0.04    1.01    1.43    66.76967    67.54003    76.27023
    85  N   5.0   -0.14    3.50    2.08    68.40836    71.29146    80.99161
    86  C   4.0    0.03    4.40    4.38    70.40901    71.50143    82.84330
    87  C   4.0    0.14    3.46    3.10    69.80672    73.34332    84.99500
    88  O   6.0   -0.31    1.24    1.80    70.72195    72.99894    87.09805
    89  C   4.0   -0.03    4.32    4.24    72.91106    72.37717    81.69825
    90  C   4.0   -0.04    4.22    4.04    74.03030    70.45665    79.87148
    91  C   4.0    0.14    3.22    3.04    76.55690    71.40617    78.88814
    92  O   6.0   -0.30    1.23    1.80    77.55409    73.34125    79.65037
    93  N   5.0   -0.20    3.18    1.95    77.63664    69.98010    77.08314
    94  H   1.0    0.10    1.13    1.45    68.47280    72.59827    79.59662
    95  H   1.0    0.06    1.06    1.44    70.69080    69.67093    83.76293
    96  H   1.0    0.07    1.03    1.43    72.62552    74.16988    80.72246
    97  H   1.0    0.07    1.03    1.43    74.23276    72.68889    83.25513
    98  H   1.0    0.04    1.03    1.43    74.31603    68.66879    80.85747
    99  H   1.0    0.04    1.03    1.43    72.72395    70.12960    78.30876
   100  H   1.0    0.07    1.02    1.43    76.86674    68.36380    76.43305
   101  H   1.0    0.09    1.03    1.43    79.35408    70.51514    76.44246
   102  N   5.0   -0.14    3.48    2.06    68.22295    75.24587    84.45705
   103  C   4.0    0.04    4.39    4.37    67.37569    76.97061    86.41929
   104  C   4.0    0.15    3.46    3.10    65.09472    75.84747    87.80230
   105  O   6.0   -0.33    1.34    1.80    64.90815    76.03210    90.12080
   106  C   4.0   -0.04    4.25    4.09    66.78156    79.66237    85.50086
   107  C   4.0   -0.04    4.20    4.00    64.98668    79.77823    83.23512
   108  C   4.0   -0.06    4.18    3.95    63.61743    82.32262    83.00077
   109  C   4.0   -0.04    4.13    3.85    65.42397    84.56654    82.87213
   110  N   5.0   -0.12    4.04    2.98    67.00497    84.30263    80.58169
   111  H   1.0    0.11    1.08    1.44    67.72968    75.53180    82.63077
   112  H   1.0    0.07    1.06    1.44    68.88469    77.08338    87.84732
   113  H   1.0    0.05    1.03    1.43    65.96883    80.66244    87.11242
   114  H   1.0    0.05    1.02    1.43    68.56947    80.57814    85.03018
   115  H   1.0    0.05    1.03    1.43    66.10696    79.34924    81.55659
   116  H   1.0    0.05    1.04    1.43    63.54416    78.32185    83.38307
   117  H   1.0    0.03    1.02    1.43    62.43724    82.29959    81.30816
   118  H   1.0    0.04    1.03    1.43    62.39027    82.54987    84.63556
   119  H   1.0    0.03    1.02    1.43    64.37142    86.33506    82.78861
   120  H   1.0    0.04    1.02    1.43    66.62757    84.59271    84.53954
   121  H   1.0    0.10    1.14    1.45    68.88317    85.24629    80.51119
   122  H   1.0    0.06    1.05    1.44    67.51925    82.44205    80.44117
   123  H   1.0    0.05    1.02    1.43    65.99432    84.79578    79.01067
   124  N   5.0   -0.15    3.52    2.09    63.34459    74.69602    86.40914
   125  C   4.0    0.03    4.50    4.54    61.16465    73.48422    87.54379
   126  C   4.0    0.15    3.54    3.13    61.82937    71.55890    89.60115
   127  O   6.0   -0.32    1.31    1.80    60.51170    71.48623    91.51810
   128  C   4.0   -0.02    4.27    4.13    59.50232    72.34599    85.43846
   129  C   4.0   -0.07    4.13    3.87    57.49325    70.57914    86.50607
   130  C   4.0   -0.08    4.12    3.85    58.22472    74.47815    83.96886
   131  H   1.0    0.10    1.10    1.44    63.57149    74.44877    84.51402
   132  H   1.0    0.05    1.06    1.44    60.03845    74.92291    88.53561
   133  H   1.0    0.05    1.05    1.44    60.75341    71.28610    84.17494
   134  H   1.0    0.04    1.00    1.43    56.34155    69.84335    84.97362
   135  H   1.0    0.05    1.00    1.43    58.34775    69.01020    87.51749
   136  H   1.0    0.04    1.00    1.43    56.27592    71.59099    87.81506
   137  H   1.0    0.04    1.00    1.43    57.05951    73.68595    82.47662
   138  H   1.0    0.04    1.00    1.43    57.01678    75.57938    85.21289
   139  H   1.0    0.05    1.00    1.43    59.62689    75.70807    83.12257
   140  N   5.0   -0.10    3.66    2.22    63.69664    69.88525    89.23281
   141  C   4.0    0.03    4.59    4.66    64.23100    67.97087    91.13735
   142  C   4.0    0.15    3.49    3.11    65.20117    69.21612    93.53114
   143  O   6.0   -0.33    1.38    1.80    64.22636    68.77430    95.59134
   144  C   4.0   -0.05    4.31    4.21    66.23459    66.23804    89.97062
   145  C   4.0   -0.04    4.24    4.08    67.51922    67.84749    87.93861
   146  C   4.0    0.00    4.43    4.44    65.77570    70.10714    87.46975
   147  H   1.0    0.05    1.05    1.44    62.49904    66.96021    91.65203
   148  H   1.0    0.04    1.02    1.43    67.57327    65.60858    91.40201
   149  H   1.0    0.04    1.02    1.43    65.34136    64.57423    89.15618
   150  H   1.0    0.05    1.02    1.43    69.36809    68.52720    88.55064
   151  H   1.0    0.06    1.04    1.43    67.75621    66.80683    86.18474
   152  H   1.0    0.07    1.08    1.44    66.80580    71.85252    87.83078
   153  H   1.0    0.06    1.03    1.43    65.09905    70.13509    85.52642
   154  N   5.0   -0.14    3.54    2.11    67.11342    70.83017    93.26988
   155  C   4.0    0.03    4.43    4.43    68.15816    72.11930    95.44388
   156  C   4.0    0.16    3.50    3.12    66.01262    73.44477    96.85696
   157  O   6.0   -0.30    1.29    1.80    65.74818    73.25260    99.14769
   158  C   4.0   -0.04    4.28    4.15    70.19205    73.98951    94.60278
   159  C   4.0   -0.03    4.18    3.96    72.40615    72.69867    93.29956
   160  C   4.0    0.26    3.08    3.02    74.58766    74.57466    92.58015
   161  O   6.0   -0.28    1.18    1.80    74.24457    76.86323    93.00016
   162  O   6.0   -0.28    1.16    1.80    76.49659    73.58187    91.62034
   163  H   1.0    0.08    1.08    1.44    68.01440    71.09094    91.61325
   164  H   1.0    0.05    1.05    1.44    68.96978    70.72801    96.75848
   165  H   1.0    0.06    1.03    1.43    69.38888    75.38473    93.31295
   166  H   1.0    0.06    1.03    1.43    70.89257    75.00187    96.25639
   167  H   1.0    0.05    1.02    1.43    73.21532    71.23051    94.50130
   168  H   1.0    0.06    1.03    1.43    71.85140    71.83819    91.50939
   169  N   5.0   -0.13    3.51    2.09    64.45910    74.80529    95.39798
   170  C   4.0    0.04    4.47    4.49    62.27841    76.08965    96.45277
   171  C   4.0    0.16    3.53    3.13    60.77500    74.21514    98.05167
   172  O   6.0   -0.32    1.28    1.80    60.16221    74.67897   100.23344
   173  C   4.0    0.06    4.25    4.09    60.54682    77.15620    94.34662
   174  O   6.0   -0.26    2.12    1.84    61.75467    79.05971    92.94757
   175  C   4.0   -0.07    4.11    3.81    58.15571    78.29079    95.48698
   176  H   1.0    0.11    1.10    1.44    64.79797    74.99356    93.52227
   177  H   1.0    0.05    1.05    1.44    62.89740    77.63976    97.68908
   178  H   1.0    0.06    1.04    1.43    60.03752    75.56410    93.11149
   179  H   1.0    0.15    1.07    1.44    63.07025    78.29928    91.91871
   180  H   1.0    0.04    1.00    1.43    57.00483    79.09719    93.99229
   181  H   1.0    0.04    1.01    1.43    57.08417    76.84960    96.47726
   182  H   1.0    0.04    1.00    1.43    58.67238    79.78313    96.79661
   183  N   5.0   -0.14    3.53    2.10    60.11003    72.11232    96.83654
   184  C   4.0    0.04    4.37    4.33    58.42489    70.26479    97.94516
   185  C   4.0    0.16    3.43    3.09    59.47789    69.16275   100.41841
   186  O   6.0   -0.28    1.23    1.80    58.07059    68.71512   102.18614
   187  C   4.0    0.03    4.15    3.90    57.84086    68.22094    95.95677
   188  O   6.0   -0.26    2.05    1.83    59.62980    66.27359    95.82601
   189  H   1.0    0.11    1.11    1.45    60.61811    71.83606    95.00557
   190  H   1.0    0.05    1.05    1.44    56.64875    71.19218    98.49434
   191  H   1.0    0.04    1.02    1.43    56.04206    67.31383    96.38231
   192  H   1.0    0.06    1.02    1.43    57.69957    69.18682    94.12484
   193  H   1.0    0.15    1.08    1.44    61.29848    67.04313    95.67897
   194  N   5.0   -0.14    3.52    2.09    61.96793    68.70658   100.44632
   195  C   4.0    0.04    4.42    4.41    63.21341    67.71248   102.66198
   196  C   4.0    0.17    3.41    3.08    63.31705    69.66230   104.81326
   197  O   6.0   -0.28    1.21    1.80    63.44725    69.00267   107.02546
   198  C   4.0   -0.04    4.35    4.29    65.91715    66.86560   102.06301
   199  C   4.0   -0.02    4.17    3.94    66.12794    64.66654   100.18156
   200  C   4.0   -0.08    4.10    3.81    68.91300    64.10979    99.64662
   201  C   4.0   -0.08    4.11    3.82    64.83514    62.29320   101.17807
   202  H   1.0    0.12    1.11    1.44    63.05435    69.11791    98.93177
   203  H   1.0    0.06    1.06    1.44    62.08845    66.13133   103.39411
   204  H   1.0    0.06    1.03    1.43    66.94612    68.49884   101.32249
   205  H   1.0    0.05    1.03    1.43    66.79970    66.32766   103.85024
   206  H   1.0    0.06    1.06    1.44    65.21644    65.23261    98.41375
   207  H   1.0    0.04    1.00    1.43    69.09170    62.58584    98.27985
   208  H   1.0    0.04    1.00    1.43    69.86049    65.77443    98.89909
   209  H   1.0    0.04    1.00    1.43    69.87264    63.54822   101.37455
   210  H   1.0    0.04    1.00    1.43    65.13611    60.73372    99.87827
   211  H   1.0    0.04    1.00    1.43    65.60069    61.78175   103.01506
   212  H   1.0    0.04    1.00    1.43    62.81556    62.60291   101.36865
   213  N   5.0   -0.12    3.53    2.10    63.29348    72.07308   104.05655
   214  C   4.0    0.05    4.43    4.42    63.56163    74.18097   105.77255
   215  C   4.0    0.16    3.39    3.07    61.06020    74.85908   107.10022
   216  O   6.0   -0.29    1.21    1.80    61.06161    75.69039   109.26300
   217  C   4.0   -0.03    4.31    4.22    64.58207    76.46476   104.32244
   218  C   4.0    0.17    3.23    3.04    67.35724    76.12200   103.62186
   219  O   6.0   -0.28    1.21    1.80    68.72162    74.53350   104.57665
   220  N   5.0   -0.18    3.18    1.95    68.23574    77.84543   101.96695
   221  H   1.0    0.12    1.11    1.45    63.52042    72.45132   102.19765
   222  H   1.0    0.08    1.06    1.44    64.89915    73.65317   107.27268
   223  H   1.0    0.06    1.03    1.43    63.45764    76.72780   102.61399
   224  H   1.0    0.05    1.03    1.43    64.43718    78.15396   105.49702
   225  H   1.0    0.10    1.03    1.43    70.01651    77.64737   101.31464
   226  H   1.0    0.08    1.03    1.43    67.06138    79.00685   101.03321
   227  N   5.0   -0.12    3.56    2.12    58.99577    74.62767   105.68416
   228  C   4.0    0.03    4.46    4.47    56.45191    75.10101   106.59350
   229  C   4.0    0.14    3.46    3.10    55.13345    72.50871   106.85578
   230  O   6.0   -0.26    1.29    1.80    56.46765    70.62951   107.13782
   231  C   4.0   -0.03    4.25    4.10    55.20602    77.17311   104.97414
   232  C   4.0   -0.07    4.12    3.84    56.84717    79.55240   104.92092
   233  C   4.0   -0.07    4.12    3.84    54.72091    76.21549   102.29856
   234  H   1.0    0.11    1.10    1.44    59.17861    73.90567   103.92486
   235  H   1.0    0.06    1.06    1.44    56.66728    75.76739   108.55111
   236  H   1.0    0.03    1.07    1.44    53.42914    77.69916   105.86642
   237  H   1.0    0.03    1.00    1.43    55.88069    81.02787   103.86846
   238  H   1.0    0.04    1.00    1.43    57.20470    80.22462   106.82905
   239  H   1.0    0.05    1.00    1.43    58.65296    79.17188   104.01978
   240  H   1.0    0.03    1.00    1.43    53.49134    77.49744   101.26815
   241  H   1.0    0.06    1.02    1.43    56.51295    76.08213   101.31060
   242  H   1.0    0.06    1.00    1.43    53.86676    74.34428   102.32597
   243  N   5.0   -0.09    3.66    2.22    52.60676    72.30079   107.00580
   244  C   4.0    0.03    4.63    4.70    51.54410    69.78323   107.32967
   245  C   4.0    0.15    3.41    3.08    51.22368    68.52185   104.74030
   246  O   6.0   -0.30    1.23    1.80    51.46823    69.65608   102.75010
   247  C   4.0   -0.05    4.33    4.25    49.02436    70.25332   108.65773
   248  C   4.0   -0.05    4.27    4.13    48.17871    72.75173   107.49046
   249  C   4.0   -0.02    4.34    4.27    50.63816    74.22137   107.04092
   250  H   1.0    0.05    1.06    1.44    52.86290    68.62224   108.42225
   251  H   1.0    0.04    1.02    1.43    47.67520    68.73997   108.32150
   252  H   1.0    0.04    1.02    1.43    49.33159    70.44262   110.68520
   253  H   1.0    0.04    1.03    1.43    47.26209    72.37145   105.68718
   254  H   1.0    0.03    1.02    1.43    46.88811    73.77510   108.71509
   255  H   1.0    0.04    1.02    1.43    50.56554    75.23883   105.24939
   256  H   1.0    0.03    1.02    1.43    51.03241    75.55726   108.56832
   257  N   5.0   -0.15    3.44    2.04    50.53939    66.07372   104.89160
   258  C   4.0    0.03    4.41    4.40    50.46378    64.43889   102.69880
   259  C   4.0    0.14    3.40    3.08    47.83825    63.25420   102.29885
   260  O   6.0   -0.31    1.23    1.80    46.96579    61.70588   103.76219
   261  C   4.0   -0.04    4.38    4.35    52.30949    62.21842   102.95036
   262  C   4.0   -0.02    4.17    3.94    55.08988    62.93145   102.59571
   263  C   4.0   -0.08    4.10    3.81    56.72704    60.58679   102.96657
   264  C   4.0   -0.06    4.13    3.87    55.51098    64.04612    99.96853
   265  H   1.0    0.08    1.07    1.44    50.48954    65.23305   106.60312
   266  H   1.0    0.05    1.07    1.44    50.98595    65.63875   101.10365
   267  H   1.0    0.05    1.03    1.43    52.00583    61.35532   104.80053
   268  H   1.0    0.04    1.04    1.43    51.81226    60.81625   101.51909
   269  H   1.0    0.06    1.05    1.44    55.63063    64.37332   103.98194
   270  H   1.0    0.04    1.00    1.43    58.71494    61.08371   102.81630
   271  H   1.0    0.04    1.00    1.43    56.41292    59.73869   104.81172
   272  H   1.0    0.04    1.00    1.43    56.28396    59.20073   101.51578
   273  H   1.0    0.06    1.00    1.43    57.51338    64.18155    99.53303
   274  H   1.0    0.04    1.00    1.43    54.62159    62.90526    98.50773
   275  H   1.0    0.06    1.00    1.43    54.75974    65.95644    99.91131
   276  N   5.0   -0.15    3.45    2.04    46.71273    63.93400   100.12205
   277  C   4.0    0.03    4.36    4.31    44.33603    62.86007    99.26250
   278  C   4.0    0.07    3.19    3.03    44.45826    62.40176    96.39761
   279  O   6.0   -0.30    1.13    1.80    44.47489    64.05702    94.79083
   280  C   4.0   -0.02    4.31    4.21    42.01603    64.45158   100.06898
   281  C   4.0   -0.04    4.19    3.98    42.02080    67.10713    98.91959
   282  C   4.0   -0.07    4.13    3.87    41.90356    64.57113   102.95137
   283  C   4.0   -0.09    4.02    3.65    39.53554    68.49104    99.38940
   284  H   1.0    0.08    1.07    1.44    47.43752    65.39807    99.14122
   285  H   1.0    0.05    1.06    1.44    44.18949    61.02188   100.20668
   286  H   1.0    0.03    1.06    1.44    40.35335    63.44482    99.36205
   287  H   1.0    0.04    1.02    1.43    43.58696    68.19820    99.70550
   288  H   1.0    0.06    1.04    1.43    42.31759    66.94504    96.88982
   289  H   1.0    0.03    1.00    1.43    40.10886    65.34066   103.57696
   290  H   1.0    0.05    1.00    1.43    42.17143    62.71535   103.78913
   291  H   1.0    0.05    1.00    1.43    43.40036    65.78931   103.66416
   292  H   1.0    0.03    1.00    1.43    39.49589    70.27590    98.37289
   293  H   1.0    0.03    1.00    1.43    37.95685    67.35028    98.73842
   294  H   1.0    0.03    1.00    1.43    39.27297    68.90101   101.38419
   295  H   1.0    0.09    1.08    1.44    68.28874    94.90207    80.32524
   296  H   1.0    0.05    1.04    1.44    73.02515    96.79264    84.66569
   297  H   1.0    0.09    1.07    1.44    62.08257    47.85335    92.61106
   298  H   1.0    0.05    1.05    1.44    66.75078    51.23373    89.81282
   299  H   1.0    0.08    1.07    1.44    71.57203    72.55419    72.79196
   300  H   1.0    0.05    1.05    1.44    44.53193    60.63721    95.72531

  Z AO/shell   Hii/eV     exponent
  1     Wed Apr 25 08:07:45 CEST 2018   EN: 2.200 GM2: 0.406  GM3: 0.0800  RAES: 1.40
     1s    -10.707211    1.230000
  6     Wed Apr 25 08:07:45 CEST 2018   EN: 2.550 GM2: 0.538  GM3: 0.1500  RAES: 3.00
     2s    -13.970922    2.096432
     2p    -10.063292    1.800000
  7     Wed Apr 25 08:07:45 CEST 2018   EN: 3.040 GM2: 0.461  GM3:-0.0640  RAES: 1.90
     2s    -16.686243    2.339881
     2p    -12.523956    2.014332
  8     Wed Apr 25 08:07:45 CEST 2018   EN: 3.440 GM2: 0.452  GM3:-0.0517  RAES: 1.80
     2s    -20.229985    2.439742
     2p    -15.503117    2.137023
 no old-style atom pair restraining (fixing) potential

molecular fragmentation (1/2 indicates fragments):
111111111111111222222222222222222222222222222222222222222222222222222222
222222222222222222222222222222222222222222222222222222222222222222222222
222222222222222222222222222222222222222222222222222222222222222222222222
222222222222222222222222222222222222222222222222222222222222222222222222
222222112222
# atoms in fragment 1/2:    17   283
 fragment masses (1/2) :      130.12     1884.28
CMA distance (Bohr)    :  25.785
constraining FC (au)   :  0.0500
           ------------------------------------------------- 
          |        Self-Consistent Charge Iterations        |
           ------------------------------------------------- 

 Ncao       : 726
 Nao        : 726
 Nshell     : 442
 Nel        : 802
 T(el)      :   500.0
 intcut     :    35.0
 scfconv/Eh :  0.100E-06
   qconv/e  :  0.100E-04
 intneglect :  0.100E-08
 broydamp   :      0.400
 iter      E             dE          RMSdq      gap      omega  full diag
   1   -458.0350092 -0.458035E+03  0.445E+00    3.37       0.0  T
   2   -459.1390315 -0.110402E+01  0.207E+00    2.11       1.0  T
   3   -459.2042984 -0.652669E-01  0.117E+00    2.27       1.0  T
   4   -459.2649764 -0.606780E-01  0.229E-01    1.50       1.0  T
   5   -459.2689621 -0.398563E-02  0.109E-01    1.66       1.0  T
   6   -459.2693791 -0.417056E-03  0.463E-02    1.69       1.0  T
   7   -459.2695698 -0.190724E-03  0.194E-02    1.72       1.0  T
   8   -459.2695899 -0.200530E-04  0.937E-03    1.74       1.0  T
   9   -459.2695954 -0.553052E-05  0.383E-03    1.75       1.5  T
  10   -459.2695963 -0.917037E-06  0.173E-03    1.75       3.3  T
  11   -459.2695965 -0.167253E-06  0.723E-04    1.75       8.0  T
  12   -459.2695965 -0.257597E-07  0.301E-04    1.76      19.2  T
  13   -459.2695965 -0.673504E-08  0.150E-04    1.76      38.4  T
  14   -459.2695966 -0.161583E-08  0.695E-05    1.76      83.1  T
  15   -459.2695966 -0.354817E-09  0.269E-05    1.76     214.3  T
speedup  1.00
cpu  time for SCC    3.08 s
wall time for SCC    3.09 s

   *** convergence criteria satisfied after 15 iterations ***

          eigenvalues
 #    :         389        390        391        392        393        394        395        396
 occ. :        2.000      2.000      2.000      2.000      2.000      2.000      2.000      2.000
 eps  :       -10.722    -10.705    -10.601    -10.571    -10.514    -10.468    -10.468    -10.433
 #    :         397        398        399        400        401        402        403        404
 occ. :        2.000      2.000      2.000      2.000      2.000      0.000      0.000      0.000
 eps  :       -10.296    -10.289    -10.141    -10.006     -9.789     -8.034     -7.726     -7.672
 #    :         405        406        407        408        409        410        411        412
 occ. :        0.000      0.000      0.000      0.000      0.000      0.000      0.000      0.000
 eps  :        -7.065     -6.887     -6.809     -6.771     -6.640     -6.580     -6.522     -6.441


   #   Z            q   n(s)   n(p)   n(d)      C6AA      α(0)
   1   7 N     -0.386  1.318  4.068  0.000    29.993     8.134
   2   6 C      0.035  1.053  2.912  0.000    20.003     6.370
   3   6 C      0.198  1.088  2.714  0.000    23.776     7.987
   4   8 O     -0.398  1.763  4.634  0.000    21.636     6.236
   5   6 C     -0.043  1.048  2.995  0.000    21.317     6.570
   6   6 C     -0.104  1.068  3.037  0.000    22.490     6.752
   7   6 C      0.370  1.022  2.607  0.000    20.721     7.450
   8   8 O     -0.606  1.776  4.830  0.000    26.271     6.872
   9   8 O     -0.593  1.756  4.836  0.000    25.923     6.827
  10   1 H      0.162  0.838  0.000  0.000     1.322     1.801
  11   1 H      0.077  0.923  0.000  0.000     2.010     2.217
  12   1 H      0.031  0.969  0.000  0.000     2.572     2.508
  13   1 H      0.025  0.975  0.000  0.000     2.652     2.547
  14   1 H      0.050  0.950  0.000  0.000     2.317     2.381
  15   1 H      0.052  0.948  0.000  0.000     2.301     2.372
  16   7 N     -0.389  1.311  4.078  0.000    30.081     8.146
  17   6 C      0.039  1.055  2.906  0.000    19.929     6.359
  18   6 C      0.200  1.092  2.708  0.000    23.735     7.979
  19   8 O     -0.383  1.757  4.626  0.000    21.338     6.193
  20   6 C     -0.068  1.055  3.013  0.000    21.787     6.644
  21   6 C      0.003  1.079  2.918  0.000    27.966     8.674
  22   6 C     -0.042  1.083  2.958  0.000    29.038     8.837
  23   6 C     -0.043  1.079  2.965  0.000    29.075     8.843
  24   6 C     -0.058  1.075  2.983  0.000    29.449     8.899
  25   6 C     -0.078  1.079  2.999  0.000    29.950     8.974
  26   6 C      0.144  1.045  2.811  0.000    24.863     8.172
  27   8 O     -0.440  1.722  4.717  0.000    21.632     6.279
  28   1 H      0.168  0.832  0.000  0.000     1.288     1.778
  29   1 H      0.058  0.942  0.000  0.000     2.217     2.328
  30   1 H      0.056  0.944  0.000  0.000     2.249     2.345
  31   1 H      0.053  0.947  0.000  0.000     2.283     2.363
  32   1 H      0.036  0.964  0.000  0.000     2.496     2.471
  33   1 H      0.046  0.954  0.000  0.000     2.370     2.408
  34   1 H      0.044  0.956  0.000  0.000     2.400     2.423
  35   1 H      0.045  0.955  0.000  0.000     2.385     2.415
  36   1 H      0.351  0.649  0.000  0.000     0.586     1.202
  37   7 N     -0.390  1.299  4.091  0.000    30.090     8.147
  38   6 C      0.031  1.055  2.914  0.000    20.064     6.380
  39   6 C      0.256  1.056  2.688  0.000    22.693     7.802
  40   8 O     -0.521  1.753  4.767  0.000    24.250     6.602
  41   6 C     -0.070  1.057  3.013  0.000    21.829     6.650
  42   6 C     -0.010  1.056  2.953  0.000    20.715     6.474
  43   6 C     -0.113  1.040  3.073  0.000    22.709     6.794
  44   6 C     -0.107  1.036  3.071  0.000    22.602     6.779
  45   1 H      0.172  0.828  0.000  0.000     1.263     1.761
  46   1 H      0.039  0.961  0.000  0.000     2.460     2.453
  47   1 H      0.052  0.948  0.000  0.000     2.300     2.372
  48   1 H      0.036  0.964  0.000  0.000     2.502     2.473
  49   1 H      0.043  0.957  0.000  0.000     2.407     2.426
  50   1 H      0.041  0.959  0.000  0.000     2.433     2.439
  51   1 H      0.043  0.957  0.000  0.000     2.416     2.430
  52   1 H      0.029  0.971  0.000  0.000     2.596     2.519
  53   1 H      0.040  0.960  0.000  0.000     2.455     2.450
  54   1 H      0.030  0.970  0.000  0.000     2.593     2.518
  55   1 H      0.033  0.967  0.000  0.000     2.544     2.494
  56   7 N     -0.162  1.241  3.920  0.000    24.496     7.351
  57   6 C      0.001  1.071  2.929  0.000    20.561     6.454
  58   6 C      0.268  1.045  2.687  0.000    22.472     7.763
  59   8 O     -0.486  1.737  4.749  0.000    23.476     6.496
  60   6 C     -0.029  1.066  2.962  0.000    21.054     6.526
  61   6 C     -0.068  1.049  3.019  0.000    21.809     6.648
  62   6 C     -0.128  1.040  3.088  0.000    23.012     6.840
  63   6 C     -0.117  1.036  3.081  0.000    22.803     6.810
  64   1 H      0.229  0.771  0.000  0.000     0.970     1.543
  65   1 H      0.087  0.913  0.000  0.000     1.912     2.162
  66   1 H      0.068  0.932  0.000  0.000     2.112     2.273
  67   1 H      0.043  0.957  0.000  0.000     2.416     2.431
  68   1 H      0.037  0.963  0.000  0.000     2.484     2.464
  69   1 H      0.070  0.930  0.000  0.000     2.085     2.258
  70   1 H      0.051  0.949  0.000  0.000     2.304     2.374
  71   1 H      0.052  0.948  0.000  0.000     2.290     2.367
  72   1 H      0.044  0.956  0.000  0.000     2.403     2.424
  73   1 H      0.043  0.957  0.000  0.000     2.403     2.424
  74   1 H      0.054  0.946  0.000  0.000     2.268     2.355
  75   7 N     -0.178  1.243  3.935  0.000    24.849     7.403
  76   6 C      0.020  1.060  2.920  0.000    20.253     6.409
  77   6 C      0.269  1.045  2.686  0.000    22.465     7.761
  78   8 O     -0.479  1.749  4.730  0.000    23.318     6.474
  79   6 C     -0.136  1.044  3.092  0.000    23.159     6.861
  80   1 H      0.222  0.778  0.000  0.000     0.999     1.566
  81   1 H      0.086  0.914  0.000  0.000     1.920     2.167
  82   1 H      0.081  0.919  0.000  0.000     1.970     2.195
  83   1 H      0.086  0.914  0.000  0.000     1.916     2.164
  84   1 H      0.063  0.937  0.000  0.000     2.169     2.303
  85   7 N     -0.190  1.243  3.947  0.000    25.117     7.443
  86   6 C      0.018  1.060  2.922  0.000    20.279     6.413
  87   6 C      0.272  1.047  2.681  0.000    22.398     7.750
  88   8 O     -0.518  1.766  4.752  0.000    24.190     6.594
  89   6 C     -0.057  1.046  3.011  0.000    21.593     6.614
  90   6 C     -0.099  1.058  3.041  0.000    22.383     6.735
  91   6 C      0.290  1.036  2.674  0.000    22.076     7.693
  92   8 O     -0.502  1.762  4.740  0.000    23.819     6.543
  93   7 N     -0.293  1.266  4.027  0.000    27.565     7.798
  94   1 H      0.213  0.787  0.000  0.000     1.041     1.598
  95   1 H      0.077  0.923  0.000  0.000     2.008     2.216
  96   1 H      0.069  0.931  0.000  0.000     2.093     2.263
  97   1 H      0.045  0.955  0.000  0.000     2.390     2.417
  98   1 H      0.073  0.927  0.000  0.000     2.050     2.239
  99   1 H      0.074  0.926  0.000  0.000     2.042     2.235
 100   1 H      0.236  0.764  0.000  0.000     0.939     1.518
 101   1 H      0.230  0.770  0.000  0.000     0.963     1.538
 102   7 N     -0.189  1.247  3.942  0.000    25.100     7.441
 103   6 C      0.024  1.059  2.917  0.000    20.179     6.397
 104   6 C      0.270  1.048  2.681  0.000    22.430     7.756
 105   8 O     -0.526  1.745  4.781  0.000    24.376     6.619
 106   6 C     -0.083  1.055  3.028  0.000    22.087     6.691
 107   6 C     -0.087  1.052  3.034  0.000    22.155     6.702
 108   6 C     -0.097  1.056  3.041  0.000    22.346     6.730
 109   6 C     -0.037  1.052  2.985  0.000    21.334     6.593
 110   7 N     -0.186  1.254  3.933  0.000    25.026     7.430
 111   1 H      0.237  0.763  0.000  0.000     0.934     1.514
 112   1 H      0.061  0.939  0.000  0.000     2.185     2.312
 113   1 H      0.072  0.928  0.000  0.000     2.065     2.247
 114   1 H      0.065  0.935  0.000  0.000     2.146     2.291
 115   1 H      0.055  0.945  0.000  0.000     2.264     2.353
 116   1 H      0.077  0.923  0.000  0.000     2.011     2.218
 117   1 H      0.092  0.908  0.000  0.000     1.863     2.134
 118   1 H      0.090  0.910  0.000  0.000     1.882     2.145
 119   1 H      0.111  0.889  0.000  0.000     1.692     2.034
 120   1 H      0.091  0.909  0.000  0.000     1.870     2.138
 121   1 H      0.293  0.707  0.000  0.000     0.734     1.342
 122   1 H      0.251  0.749  0.000  0.000     0.881     1.470
 123   1 H      0.268  0.732  0.000  0.000     0.819     1.417
 124   7 N     -0.176  1.254  3.922  0.000    24.820     7.399
 125   6 C      0.018  1.067  2.915  0.000    20.279     6.412
 126   6 C      0.263  1.050  2.687  0.000    22.558     7.778
 127   8 O     -0.500  1.743  4.757  0.000    23.777     6.538
 128   6 C     -0.019  1.064  2.955  0.000    20.869     6.497
 129   6 C     -0.119  1.039  3.080  0.000    22.833     6.813
 130   6 C     -0.132  1.044  3.088  0.000    23.088     6.850
 131   1 H      0.245  0.755  0.000  0.000     0.903     1.489
 132   1 H      0.085  0.915  0.000  0.000     1.931     2.173
 133   1 H      0.048  0.952  0.000  0.000     2.342     2.393
 134   1 H      0.069  0.931  0.000  0.000     2.096     2.264
 135   1 H      0.031  0.969  0.000  0.000     2.576     2.510
 136   1 H      0.052  0.948  0.000  0.000     2.292     2.367
 137   1 H      0.069  0.931  0.000  0.000     2.093     2.262
 138   1 H      0.056  0.944  0.000  0.000     2.241     2.341
 139   1 H      0.066  0.934  0.000  0.000     2.134     2.285
 140   7 N     -0.095  1.240  3.855  0.000    23.090     7.137
 141   6 C      0.018  1.065  2.917  0.000    20.246     6.402
 142   6 C      0.276  1.042  2.682  0.000    22.332     7.739
 143   8 O     -0.489  1.740  4.748  0.000    23.542     6.505
 144   6 C     -0.078  1.056  3.022  0.000    21.967     6.670
 145   6 C     -0.075  1.050  3.025  0.000    21.916     6.663
 146   6 C      0.001  1.047  2.953  0.000    20.614     6.472
 147   1 H      0.093  0.907  0.000  0.000     1.849     2.127
 148   1 H      0.061  0.939  0.000  0.000     2.192     2.315
 149   1 H      0.093  0.907  0.000  0.000     1.853     2.129
 150   1 H      0.040  0.960  0.000  0.000     2.453     2.449
 151   1 H      0.099  0.901  0.000  0.000     1.797     2.096
 152   1 H      0.036  0.964  0.000  0.000     2.502     2.474
 153   1 H      0.070  0.930  0.000  0.000     2.082     2.257
 154   7 N     -0.172  1.242  3.931  0.000    24.727     7.385
 155   6 C      0.031  1.061  2.908  0.000    20.047     6.375
 156   6 C      0.281  1.040  2.679  0.000    22.242     7.723
 157   8 O     -0.497  1.746  4.750  0.000    23.708     6.528
 158   6 C     -0.049  1.048  3.001  0.000    21.443     6.592
 159   6 C     -0.092  1.066  3.026  0.000    22.264     6.719
 160   6 C      0.375  1.024  2.601  0.000    20.648     7.436
 161   8 O     -0.641  1.770  4.871  0.000    27.140     6.985
 162   8 O     -0.651  1.774  4.877  0.000    27.401     7.018
 163   1 H      0.212  0.788  0.000  0.000     1.047     1.603
 164   1 H      0.056  0.944  0.000  0.000     2.243     2.342
 165   1 H      0.047  0.953  0.000  0.000     2.353     2.399
 166   1 H      0.039  0.961  0.000  0.000     2.458     2.452
 167   1 H      0.019  0.981  0.000  0.000     2.747     2.592
 168   1 H      0.035  0.965  0.000  0.000     2.520     2.482
 169   7 N     -0.196  1.251  3.945  0.000    25.256     7.464
 170   6 C      0.013  1.068  2.918  0.000    20.353     6.424
 171   6 C      0.278  1.039  2.682  0.000    22.288     7.731
 172   8 O     -0.491  1.739  4.752  0.000    23.588     6.512
 173   6 C      0.115  1.046  2.840  0.000    18.801     6.191
 174   8 O     -0.464  1.709  4.755  0.000    22.126     6.350
 175   6 C     -0.131  1.042  3.088  0.000    23.067     6.849
 176   1 H      0.224  0.776  0.000  0.000     0.993     1.561
 177   1 H      0.062  0.938  0.000  0.000     2.175     2.306
 178   1 H      0.033  0.967  0.000  0.000     2.547     2.496
 179   1 H      0.324  0.676  0.000  0.000     0.652     1.268
 180   1 H      0.088  0.912  0.000  0.000     1.897     2.154
 181   1 H      0.046  0.954  0.000  0.000     2.376     2.410
 182   1 H      0.068  0.932  0.000  0.000     2.110     2.272
 183   7 N     -0.196  1.255  3.941  0.000    25.254     7.464
 184   6 C      0.017  1.065  2.918  0.000    20.305     6.417
 185   6 C      0.287  1.034  2.679  0.000    22.129     7.703
 186   8 O     -0.480  1.752  4.728  0.000    23.344     6.478
 187   6 C      0.066  1.040  2.894  0.000    19.692     6.357
 188   8 O     -0.475  1.713  4.762  0.000    22.355     6.383
 189   1 H      0.228  0.772  0.000  0.000     0.976     1.547
 190   1 H      0.065  0.935  0.000  0.000     2.138     2.287
 191   1 H      0.071  0.929  0.000  0.000     2.075     2.253
 192   1 H      0.060  0.940  0.000  0.000     2.204     2.322
 193   1 H      0.320  0.680  0.000  0.000     0.664     1.280
 194   7 N     -0.193  1.246  3.947  0.000    25.179     7.452
 195   6 C      0.033  1.058  2.909  0.000    20.032     6.373
 196   6 C      0.281  1.043  2.677  0.000    22.244     7.723
 197   8 O     -0.506  1.749  4.756  0.000    23.915     6.557
 198   6 C     -0.064  1.056  3.008  0.000    21.718     6.634
 199   6 C     -0.011  1.056  2.955  0.000    20.740     6.478
 200   6 C     -0.113  1.042  3.071  0.000    22.717     6.796
 201   6 C     -0.115  1.040  3.074  0.000    22.750     6.801
 202   1 H      0.220  0.780  0.000  0.000     1.010     1.574
 203   1 H      0.068  0.932  0.000  0.000     2.105     2.269
 204   1 H      0.032  0.968  0.000  0.000     2.556     2.500
 205   1 H      0.050  0.950  0.000  0.000     2.325     2.384
 206   1 H      0.040  0.960  0.000  0.000     2.451     2.448
 207   1 H      0.056  0.944  0.000  0.000     2.249     2.345
 208   1 H      0.022  0.978  0.000  0.000     2.706     2.572
 209   1 H      0.046  0.954  0.000  0.000     2.366     2.406
 210   1 H      0.057  0.943  0.000  0.000     2.229     2.334
 211   1 H      0.045  0.955  0.000  0.000     2.378     2.412
 212   1 H      0.033  0.967  0.000  0.000     2.538     2.491
 213   7 N     -0.188  1.249  3.939  0.000    25.074     7.437
 214   6 C      0.039  1.054  2.907  0.000    19.933     6.358
 215   6 C      0.276  1.043  2.681  0.000    22.324     7.737
 216   8 O     -0.504  1.743  4.761  0.000    23.874     6.551
 217   6 C     -0.103  1.063  3.040  0.000    22.462     6.746
 218   6 C      0.301  1.036  2.664  0.000    21.899     7.662
 219   8 O     -0.490  1.751  4.739  0.000    23.570     6.509
 220   7 N     -0.286  1.265  4.021  0.000    27.379     7.771
 221   1 H      0.214  0.786  0.000  0.000     1.037     1.596
 222   1 H      0.068  0.932  0.000  0.000     2.108     2.270
 223   1 H      0.080  0.920  0.000  0.000     1.976     2.199
 224   1 H      0.090  0.910  0.000  0.000     1.883     2.146
 225   1 H      0.218  0.782  0.000  0.000     1.020     1.582
 226   1 H      0.223  0.777  0.000  0.000     0.997     1.564
 227   7 N     -0.150  1.232  3.918  0.000    24.244     7.313
 228   6 C      0.022  1.067  2.912  0.000    20.221     6.404
 229   6 C      0.264  1.048  2.688  0.000    22.548     7.776
 230   8 O     -0.519  1.768  4.751  0.000    24.203     6.596
 231   6 C     -0.026  1.063  2.963  0.000    20.995     6.517
 232   6 C     -0.120  1.042  3.078  0.000    22.856     6.817
 233   6 C     -0.122  1.038  3.083  0.000    22.885     6.821
 234   1 H      0.207  0.793  0.000  0.000     1.071     1.621
 235   1 H      0.073  0.927  0.000  0.000     2.055     2.242
 236   1 H      0.061  0.939  0.000  0.000     2.186     2.312
 237   1 H      0.068  0.932  0.000  0.000     2.113     2.273
 238   1 H      0.044  0.956  0.000  0.000     2.392     2.419
 239   1 H      0.036  0.964  0.000  0.000     2.507     2.476
 240   1 H      0.060  0.940  0.000  0.000     2.204     2.322
 241   1 H      0.049  0.951  0.000  0.000     2.327     2.386
 242   1 H      0.035  0.965  0.000  0.000     2.522     2.483
 243   7 N     -0.081  1.226  3.856  0.000    22.824     7.095
 244   6 C      0.020  1.064  2.916  0.000    20.216     6.396
 245   6 C      0.281  1.042  2.676  0.000    22.235     7.722
 246   8 O     -0.477  1.745  4.732  0.000    23.281     6.469
 247   6 C     -0.075  1.055  3.020  0.000    21.918     6.662
 248   6 C     -0.073  1.052  3.020  0.000    21.862     6.653
 249   6 C     -0.015  1.057  2.958  0.000    20.888     6.515
 250   1 H      0.060  0.940  0.000  0.000     2.198     2.318
 251   1 H      0.067  0.933  0.000  0.000     2.116     2.275
 252   1 H      0.071  0.929  0.000  0.000     2.079     2.255
 253   1 H      0.066  0.934  0.000  0.000     2.128     2.281
 254   1 H      0.083  0.917  0.000  0.000     1.946     2.181
 255   1 H      0.077  0.923  0.000  0.000     2.006     2.215
 256   1 H      0.065  0.935  0.000  0.000     2.147     2.291
 257   7 N     -0.182  1.246  3.936  0.000    24.946     7.418
 258   6 C      0.016  1.063  2.921  0.000    20.307     6.417
 259   6 C      0.272  1.044  2.685  0.000    22.411     7.752
 260   8 O     -0.458  1.740  4.718  0.000    22.874     6.412
 261   6 C     -0.071  1.061  3.010  0.000    21.851     6.653
 262   6 C     -0.004  1.053  2.951  0.000    20.624     6.459
 263   6 C     -0.110  1.041  3.069  0.000    22.653     6.786
 264   6 C     -0.107  1.039  3.068  0.000    22.608     6.779
 265   1 H      0.202  0.798  0.000  0.000     1.098     1.641
 266   1 H      0.070  0.930  0.000  0.000     2.088     2.260
 267   1 H      0.058  0.942  0.000  0.000     2.218     2.329
 268   1 H      0.057  0.943  0.000  0.000     2.231     2.336
 269   1 H      0.021  0.979  0.000  0.000     2.718     2.578
 270   1 H      0.030  0.970  0.000  0.000     2.588     2.516
 271   1 H      0.041  0.959  0.000  0.000     2.439     2.442
 272   1 H      0.051  0.949  0.000  0.000     2.309     2.377
 273   1 H      0.037  0.963  0.000  0.000     2.484     2.465
 274   1 H      0.044  0.956  0.000  0.000     2.399     2.422
 275   1 H      0.029  0.971  0.000  0.000     2.604     2.523
 276   7 N     -0.165  1.241  3.924  0.000    24.571     7.362
 277   6 C      0.017  1.066  2.917  0.000    20.303     6.417
 278   6 C      0.198  1.088  2.714  0.000    23.781     7.986
 279   8 O     -0.349  1.754  4.596  0.000    20.697     6.099
 280   6 C     -0.017  1.067  2.950  0.000    20.840     6.493
 281   6 C     -0.065  1.048  3.018  0.000    21.750     6.640
 282   6 C     -0.113  1.039  3.075  0.000    22.725     6.797
 283   6 C     -0.111  1.038  3.074  0.000    22.689     6.793
 284   1 H      0.200  0.800  0.000  0.000     1.108     1.649
 285   1 H      0.087  0.913  0.000  0.000     1.909     2.161
 286   1 H      0.051  0.949  0.000  0.000     2.302     2.373
 287   1 H      0.034  0.966  0.000  0.000     2.528     2.487
 288   1 H      0.054  0.946  0.000  0.000     2.275     2.359
 289   1 H      0.058  0.942  0.000  0.000     2.217     2.329
 290   1 H      0.051  0.949  0.000  0.000     2.311     2.377
 291   1 H      0.035  0.965  0.000  0.000     2.521     2.483
 292   1 H      0.041  0.959  0.000  0.000     2.429     2.437
 293   1 H      0.041  0.959  0.000  0.000     2.442     2.444
 294   1 H      0.044  0.956  0.000  0.000     2.394     2.420
 295   1 H      0.196  0.804  0.000  0.000     1.128     1.663
 296   1 H      0.073  0.927  0.000  0.000     2.053     2.241
 297   1 H      0.183  0.817  0.000  0.000     1.197     1.714
 298   1 H      0.075  0.925  0.000  0.000     2.035     2.231
 299   1 H      0.177  0.823  0.000  0.000     1.230     1.737
 300   1 H      0.084  0.916  0.000  0.000     1.941     2.178

 Mol. C6AA /au·bohr⁶  :     808686.625415
 Mol. C8AA /au·bohr⁸  :   17869914.896680
 Mol. α(0) /au        :       1339.699156

 
molecular dipole:
                 x           y           z       tot (Debye)
 q only:      -83.548     -76.546    -113.705
   full:      -81.061     -76.474    -115.638     408.203
molecular quadrupole (traceless):
                xx          xy          yy          xz          yz          zz
 q only:     2410.107   -9674.426    3730.749  -13599.794  -12896.991   -6140.856
  q+dip:     2895.778   -9375.568    3747.023  -13448.820  -13108.223   -6642.801
   full:     2897.341   -9378.470    3749.631  -13449.034  -13109.118   -6646.972
speedup  1.00
cpu  time for grad    3.99 s
wall time for grad    3.99 s

SCC energy    :    -459.2816037
rep           :       5.4355033
ES            :       1.4426704
AES           :      -0.0361422
AXC           :       0.1372059
disp          :      -0.3793561
XB            :       0.0000000
fix           :       0.0000000
Gborn         :       0.0000000
Gsasa         :       0.0000000
Ghb           :       0.0000000
Gshift        :       0.0000000
Gsolv         :      -0.3680170     -230.93
Etot ala COSMO:    -459.2816037
grad norm     :       0.3833078
total E       :    -453.8184460
atomizationE  :      84.2768891    52884.55
(atE without considering molecular charge,
 total energy contains solvation terms)
H-L gap (eV)  :          1.7554

------------------------------------------------------------------------
 * finished run on 2019/03/14 at 15:08:23.278     
------------------------------------------------------------------------
 total:
 * wall-time:     0 d,  0 h,  0 min,  4.520 sec
 *  cpu-time:     0 d,  0 h,  0 min,  4.317 sec
 * ratio c/w:     0.955 speedup
 SCF:
 * wall-time:     0 d,  0 h,  0 min,  4.232 sec
 *  cpu-time:     0 d,  0 h,  0 min,  4.227 sec
 * ratio c/w:     0.999 speedup

