      -----------------------------------------------------------      
     |                   =====================                   |     
     |                           x T B                           |     
     |                   =====================                   |     
     |                         S. Grimme                         |     
     |          Mulliken Center for Theoretical Chemistry        |     
     |                    University of Bonn                     |     
     |                Version 6.1 RC1 (SAW190329)                |     
      -----------------------------------------------------------      

   This program is distributed in the hope that it will be useful,
   but WITHOUT ANY WARRANTY; without even the implied warranty of
   MERCHANTABILITY or FITNESS FOR A PARTICULAR PURPOSE.
   
   FOR NON-COMMERCIAL, ACADEMIA USE ONLY.
   
   Cite this work as:
   S. Grimme, C. Bannwarth, P. Shushkov, J. Comput. Theory Chem., 2017,
   13, 1989-2009. DOI: 10.1021/acs.jctc.7b00118
   C. Bannwarth, S. Ehlert and S. Grimme., J. Comput. Theory Chem., 2019,
   just accepted. DOI: 10.1021/acs.jctc.8b01176
   
   for sTDA-xTB:
   S. Grimme and C. Bannwarth, J. Chem. Phys., 2016, 145, 054103.
   DOI: 10.1063/1.4959605
   
   in the mass-spec context:
   V. Asgeirsson, C. Bauer and S. Grimme, Chem. Sci., 2017, 8, 4879.
   DOI: 10.1039/c7sc00601b
   
   for metadynamics refer to:
   S. Grimme, ChemRxiv, Preprint. DOI: 10.26434/chemrxiv.7660532.v1
   
   with help from (in alphabetical order)
   C. Bannwarth, F. Bohle, G. Brandenburg, E. Caldeweyher, M. Checinski,
   S. Dohm, S. Ehlert, S. Ehrlich, F. März, H. Neugebauer, J. Pisarek,
   P. Pracht, P. Shushkov, and S. Spicher.
   
 * started run on 2019/05/31 at 05:35:25.500     

           -------------------------------------------------
          |                Calculation Setup                |
           -------------------------------------------------

          program call               : /home/lum/install/xtb/xtb-190329/bin/xtb xtb_tmp.xyz --chrg 0 --grad --gfn 2 --etemp 500 --acc 0.1 --gbsa h2o --parallel 2
          hostname                   : cpu02
          coordinate file            : xtb_tmp.xyz
          omp threads                :                     2
          number of atoms            :                   105
          number of electrons        :                   280
          charge                     :                     0
          spin                       :                   0.0
          first test random number   :      0.42248278060511


molecular fragmentation (1/2 indicates fragments):
111111111111111111111222222222222222222222222222222222222222222222222222
222222222222222222222222222221122
# atoms in fragment 1/2:    23    82
 fragment masses (1/2) :      165.19      540.66
CMA distance (Bohr)    :  11.578
constraining FC (au)   :  0.0500

########################################################################
# WARNING! Please study the warnings concerning your input carefully
#  - XTBPATH is not set, using XTBHOME instead
#  - Process number higher than OMP_NUM_THREADS, I hope you know what you are doing.
########################################################################

           ------------------------------------------------- 
          |                 G F N 2 - x T B                 |
          | Geometry, Frequencies, Noncovalent interactions |
          |            JCTC 2018 parametrisation            |
           ------------------------------------------------- 
 
             k(s)              :                1.8500
             k(p)              :                2.2300
             k(d)              :                2.2300
             k(f)              :                2.0000
             kEN (H0ij)        :               -2.0000
             D4 a1             :                0.5200
             D4 a2             :                5.0000
             D4 s6             :                1.0000
             D4 s8             :                2.7000
             D4 s9             :                5.0000
             alphaj            :                2.0000

  Z AO/shell   Hii/eV     exponent
  1     Wed Apr 25 08:07:45 CEST 2018   EN: 2.200 GM2: 0.406  GM3: 0.0800  RAES: 1.40
     1s    -10.707211    1.230000
  6     Wed Apr 25 08:07:45 CEST 2018   EN: 2.550 GM2: 0.538  GM3: 0.1500  RAES: 3.00
     2s    -13.970922    2.096432
     2p    -10.063292    1.800000
  7     Wed Apr 25 08:07:45 CEST 2018   EN: 3.040 GM2: 0.461  GM3:-0.0640  RAES: 1.90
     2s    -16.686243    2.339881
     2p    -12.523956    2.014332
  8     Wed Apr 25 08:07:45 CEST 2018   EN: 3.440 GM2: 0.452  GM3:-0.0517  RAES: 1.80
     2s    -20.229985    2.439742
     2p    -15.503117    2.137023

 Solvent             : h2o
 Using internal parameter file: .param_gbsa2_h2o
 Gsolv ref. state (COSMO-RS): gsolv [1 M gas/solution]
 temperature (mdtemp)       :    298.150000000000     
 dielectric constant        :    80.2000000000000     
 rho                        :    1.00000000000000     
 mass                       :    18.0000000000000     
 surface tension            :    15.5689454083859     
 probe radius               :   0.975313790000000     
 vdW radii scaling          :    1.00000000000000     
 Gshift (Eh)                :   1.857443126794793E-003
 c1                         :    1.55243817000000     
 soset                      :   0.130326360000000     
 HB correction              :  T
 Number of grid points      :          230

            Z     q(EN)     CN     RAES       Cart. coordinates
     1  N   5.0   -0.68    3.00    1.93   424.23991   148.09612   217.93403
     2  C   4.0    0.07    3.98    3.59   422.15396   146.46085   217.28910
     3  C   4.0    0.06    3.00    3.02   423.04238   144.29508   215.59900
     4  O   6.0   -0.42    1.00    1.80   424.78047   144.50818   214.08563
     5  C   4.0   -0.13    3.99    3.60   420.01012   147.88837   215.92717
     6  C   4.0   -0.04    3.03    3.02   418.86807   149.87795   217.59402
     7  C   4.0   -0.11    3.03    3.02   420.10197   152.16182   218.00527
     8  C   4.0   -0.12    3.03    3.02   416.56500   149.46797   218.77804
     9  C   4.0   -0.08    3.03    3.02   419.09676   153.96147   219.60204
    10  C   4.0   -0.11    3.03    3.02   415.50639   151.28484   220.33243
    11  C   4.0    0.10    3.03    3.02   416.78764   153.53470   220.78626
    12  O   6.0   -0.47    1.99    1.83   415.89977   155.32066   222.39237
    13  H   1.0    0.28    1.00    1.43   425.33790   148.69394   216.49365
    14  H   1.0    0.12    0.99    1.43   421.43280   145.68862   219.06442
    15  H   1.0    0.14    0.99    1.43   420.75896   148.71359   214.19445
    16  H   1.0    0.10    0.99    1.43   418.58026   146.50096   215.39751
    17  H   1.0    0.11    1.00    1.43   421.86532   152.53665   217.05067
    18  H   1.0    0.10    1.00    1.43   415.59476   147.70093   218.46679
    19  H   1.0    0.13    1.00    1.43   420.06230   155.72504   219.92871
    20  H   1.0    0.11    1.00    1.43   413.67299   150.95220   221.16290
    21  H   1.0    0.25    0.99    1.43   414.16462   154.96860   222.85696
    22  N   5.0   -0.68    3.00    1.93   428.42179   145.68690   208.81794
    23  C   4.0    0.07    3.98    3.59   427.54096   146.26904   206.29377
    24  C   4.0    0.29    3.01    3.02   428.17365   149.00607   205.61203
    25  O   6.0   -0.42    1.00    1.80   427.94587   150.71595   207.16575
    26  C   4.0   -0.13    3.99    3.60   424.66662   145.93826   206.15474
    27  C   4.0   -0.10    3.98    3.58   423.74249   143.31063   206.96135
    28  C   4.0   -0.22    3.98    3.59   420.85711   143.29288   206.95405
    29  C   4.0   -0.23    3.98    3.59   424.77990   141.23565   205.24714
    30  H   1.0    0.29    1.00    1.43   427.13407   145.54958   210.22076
    31  H   1.0    0.10    0.99    1.43   428.51221   145.00423   204.97432
    32  H   1.0    0.15    0.99    1.43   423.78112   147.34178   207.38378
    33  H   1.0    0.11    0.99    1.43   424.05218   146.31583   204.22227
    34  H   1.0    0.13    0.99    1.43   424.37435   142.94567   208.89777
    35  H   1.0    0.10    0.99    1.43   420.15433   141.51885   207.71849
    36  H   1.0    0.13    0.99    1.43   420.12248   144.83676   208.09361
    37  H   1.0    0.10    0.99    1.43   420.14015   143.50009   205.03880
    38  H   1.0    0.10    0.99    1.43   423.88385   139.43854   205.68499
    39  H   1.0    0.10    0.99    1.43   424.39066   141.67173   203.27668
    40  H   1.0    0.10    0.99    1.43   426.80765   141.01499   205.49594
    41  N   5.0   -0.48    3.01    1.93   428.86490   149.45521   203.22540
    42  C   4.0    0.10    4.00    3.61   429.27094   152.02081   202.33580
    43  C   4.0    0.27    3.01    3.02   426.73443   153.42246   202.52460
    44  O   6.0   -0.41    1.00    1.80   424.95592   152.86405   201.16569
    45  C   4.0    0.04    3.98    3.58   430.17357   151.97033   199.57923
    46  O   6.0   -0.48    1.99    1.82   432.16983   150.20437   199.44910
    47  C   4.0   -0.22    3.98    3.59   430.97902   154.61106   198.74932
    48  H   1.0    0.25    1.00    1.43   429.19986   148.04334   201.99099
    49  H   1.0    0.13    0.99    1.43   430.70283   152.92255   203.53140
    50  H   1.0    0.13    0.99    1.43   428.57853   151.32405   198.40447
    51  H   1.0    0.25    0.99    1.43   433.01842   150.38290   197.84441
    52  H   1.0    0.10    0.99    1.43   431.54769   154.59804   196.77543
    53  H   1.0    0.11    0.99    1.43   429.40761   155.91400   198.96429
    54  H   1.0    0.11    0.99    1.43   432.55674   155.25884   199.89600
    55  N   5.0   -0.50    3.00    1.93   426.63786   155.27402   204.25903
    56  C   4.0    0.03    3.99    3.61   424.34598   156.65284   204.78165
    57  C   4.0    0.28    3.01    3.02   422.94272   155.87279   207.18295
    58  O   6.0   -0.41    1.00    1.80   421.18416   157.14737   207.99179
    59  H   1.0    0.25    1.00    1.43   428.10164   155.51169   205.45902
    60  H   1.0    0.11    0.99    1.43   424.74135   158.67468   204.91398
    61  H   1.0    0.15    0.99    1.43   423.05733   156.34224   203.19266
    62  N   5.0   -0.47    3.00    1.93   423.75224   153.76940   208.31479
    63  C   4.0    0.02    3.99    3.61   422.62855   152.88555   210.64300
    64  C   4.0    0.27    3.00    3.02   420.02800   151.65626   210.23605
    65  O   6.0   -0.45    1.00    1.80   419.80445   149.39557   209.81420
    66  H   1.0    0.31    1.00    1.43   425.23381   152.75245   207.62734
    67  H   1.0    0.12    0.99    1.43   423.90058   151.47295   211.43941
    68  H   1.0    0.12    0.99    1.43   422.40973   154.48279   211.93869
    69  N   5.0   -0.48    3.01    1.93   418.07658   153.23672   210.53635
    70  C   4.0    0.07    3.99    3.60   415.46752   152.38897   210.61202
    71  C   4.0    0.26    3.02    3.02   414.02038   153.37858   208.31432
    72  O   6.0   -0.39    1.00    1.80   413.81550   155.65987   207.93609
    73  C   4.0   -0.13    3.99    3.60   414.22551   153.44257   213.01557
    74  C   4.0   -0.10    3.98    3.58   411.48667   152.57802   213.41069
    75  C   4.0   -0.23    3.98    3.59   411.34496   149.79298   214.14321
    76  C   4.0   -0.22    3.99    3.59   410.25799   154.16481   215.48746
    77  H   1.0    0.28    1.00    1.43   418.38995   155.12400   210.44649
    78  H   1.0    0.12    0.99    1.43   415.53676   150.33039   210.62093
    79  H   1.0    0.12    0.99    1.43   415.37298   152.88916   214.63821
    80  H   1.0    0.13    0.99    1.43   414.25897   155.49996   212.85462
    81  H   1.0    0.15    0.99    1.43   410.43230   152.87172   211.65124
    82  H   1.0    0.10    0.99    1.43   409.38651   149.26746   214.46142
    83  H   1.0    0.10    0.99    1.43   412.08891   148.58951   212.65630
    84  H   1.0    0.10    0.99    1.43   412.42491   149.47577   215.85827
    85  H   1.0    0.11    0.99    1.43   408.30033   153.58877   215.73245
    86  H   1.0    0.11    0.99    1.43   411.28092   153.91186   217.24887
    87  H   1.0    0.11    0.99    1.43   410.28037   156.15704   214.98773
    88  N   5.0   -0.32    3.03    1.93   412.99651   151.69967   206.71706
    89  C   4.0    0.06    4.03    3.67   411.50559   152.66444   204.61312
    90  C   4.0    0.08    3.00    3.02   409.09382   153.88359   205.65005
    91  O   6.0   -0.41    1.00    1.80   407.88803   152.96771   207.39829
    92  C   4.0   -0.14    4.01    3.63   410.93239   150.33150   202.99929
    93  C   4.0   -0.14    4.01    3.63   410.93579   148.19140   204.93289
    94  C   4.0   -0.05    4.01    3.64   412.99926   148.95497   206.80262
    95  H   1.0    0.12    0.99    1.43   412.60489   154.09489   203.60194
    96  H   1.0    0.10    0.99    1.43   409.13136   150.47329   202.01458
    97  H   1.0    0.10    0.99    1.43   412.43514   150.06272   201.61848
    98  H   1.0    0.12    0.99    1.43   409.10976   148.12137   205.88268
    99  H   1.0    0.09    0.99    1.43   411.28855   146.35223   204.08836
   100  H   1.0    0.10    0.99    1.43   412.57018   148.24380   208.68556
   101  H   1.0    0.11    0.99    1.43   414.85043   148.24256   206.21170
   102  H   1.0    0.30    1.00    1.43   423.64705   149.50620   218.67750
   103  H   1.0    0.11    1.00    1.43   422.19468   142.60916   215.69966
   104  H   1.0    0.29    1.00    1.43   429.21698   144.18352   208.80912
   105  H   1.0    0.13    1.00    1.43   408.44782   155.49103   204.89514

           ------------------------------------------------- 
          |        Self-Consistent Charge Iterations        |
           ------------------------------------------------- 

          ...................................................
          :                      SETUP                      :
          :.................................................:
          :  # basis functions                 255          :
          :  # atomic orbitals                 255          :
          :  # shells                          155          :
          :  # electrons                       280          :
          :  max. iterations                   250          :
          :  Hamiltonian                  GFN2-xTB          :
          :  restarted?                      false          :
          :  GBSA solvation                   true          :
          :  PC potential                    false          :
          :  electronic temp.          500.0000000     K    :
          :  accuracy                    0.1000000          :
          :  -> integral cutoff          0.3500000E+02      :
          :  -> integral neglect         0.1000000E-08      :
          :  -> SCF convergence          0.1000000E-06 Eh   :
          :  -> wf. convergence          0.1000000E-04 e    :
          :  Broyden damping             0.4000000          :
          ...................................................

 iter      E             dE          RMSdq      gap      omega  full diag
   1   -159.5845651 -0.159585E+03  0.405E+00    2.68       0.0  T
   2   -159.9511250 -0.366560E+00  0.214E+00    1.75       1.0  T
   3   -159.9630452 -0.119203E-01  0.113E+00    2.18       1.0  T
   4   -159.9693834 -0.633822E-02  0.254E-01    1.76       1.0  T
   5   -159.9734546 -0.407118E-02  0.893E-02    1.86       1.0  T
   6   -159.9735243 -0.697283E-04  0.422E-02    1.86       1.0  T
   7   -159.9735445 -0.202008E-04  0.179E-02    1.86       1.0  T
   8   -159.9735543 -0.974856E-05  0.582E-03    1.86       1.7  T
   9   -159.9735549 -0.589023E-06  0.269E-03    1.86       3.6  T
  10   -159.9735550 -0.100369E-06  0.111E-03    1.86       8.8  T
  11   -159.9735550 -0.155666E-07  0.426E-04    1.86      22.9  T
  12   -159.9735550 -0.741232E-08  0.182E-04    1.86      53.6  T
  13   -159.9735550 -0.941554E-09  0.881E-05    1.86     110.8  T
  14   -159.9735550 -0.161236E-09  0.443E-05    1.86     220.1  T

   *** convergence criteria satisfied after 14 iterations ***

         #    Occupation            Energy/Eh            Energy/eV
      -------------------------------------------------------------
         1        2.0000           -0.7332395             -19.9525
       ...           ...                  ...                  ...
       134        2.0000           -0.4064133             -11.0591
       135        2.0000           -0.4023508             -10.9485
       136        2.0000           -0.3990626             -10.8590
       137        2.0000           -0.3960176             -10.7762
       138        2.0000           -0.3860570             -10.5051
       139        2.0000           -0.3682995             -10.0219
       140        2.0000           -0.3595755              -9.7845 (HOMO)
       141                         -0.2910699              -7.9204 (LUMO)
       142                         -0.2838400              -7.7237
       143                         -0.2384566              -6.4887
       144                         -0.2351648              -6.3992
       145                         -0.2289250              -6.2294
       ...                                ...                  ...
       255                          0.6587443              17.9253
      -------------------------------------------------------------
                  HL-Gap            0.0685056 Eh            1.8641 eV
             Fermi-level           -0.3253277 Eh           -8.8526 eV

 SCC (total)                   0 d,  0 h,  0 min,  0.282 sec
 SCC setup                      ...        0 min,  0.008 sec (  2.792%)
 Dispersion                     ...        0 min,  0.003 sec (  1.161%)
 integral evaluation            ...        0 min,  0.022 sec (  7.859%)
 zeroth order Hamiltonian       ...        0 min,  0.001 sec (  0.215%)
 iterations                     ...        0 min,  0.188 sec ( 66.905%)
 molecular gradient             ...        0 min,  0.058 sec ( 20.444%)
 printout                       ...        0 min,  0.002 sec (  0.602%)

         :::::::::::::::::::::::::::::::::::::::::::::::::::::
         ::                     SUMMARY                     ::
         :::::::::::::::::::::::::::::::::::::::::::::::::::::
         :: total energy             -157.975715338137 Eh   ::
         :: total w/o Gsasa/hb       -157.953576371601 Eh   ::
         :: gradient norm               0.313179535726 Eh/α ::
         :: HOMO-LUMO gap               1.864131403084 eV   ::
         ::.................................................::
         :: SCC energy               -159.979049696047 Eh   ::
         :: -> isotropic ES             0.366271883374 Eh   ::
         :: -> anisotropic ES           0.005279628908 Eh   ::
         :: -> anisotropic XC           0.052923052710 Eh   ::
         :: -> dispersion              -0.116244543344 Eh   ::
         :: -> Gsolv                   -0.060698930796 Eh   ::
         ::    -> Gborn                -0.038559964261 Eh   ::
         ::    -> Gsasa                -0.007352139244 Eh   ::
         ::    -> Ghb                  -0.016644270418 Eh   ::
         ::    -> Gshift                0.001857443127 Eh   ::
         :: repulsion energy            1.998194085922 Eh   ::
         :: add. restraining            0.000000000000 Eh   ::
         :::::::::::::::::::::::::::::::::::::::::::::::::::::

           -------------------------------------------------
          |                Property Printout                |
           -------------------------------------------------

    * Orbital Energies and Occupations

         #    Occupation            Energy/Eh            Energy/eV
      -------------------------------------------------------------
         1        2.0000           -0.7332395             -19.9525
       ...           ...                  ...                  ...
       128        2.0000           -0.4242268             -11.5438
       129        2.0000           -0.4233665             -11.5204
       130        2.0000           -0.4131028             -11.2411
       131        2.0000           -0.4116811             -11.2024
       132        2.0000           -0.4090781             -11.1316
       133        2.0000           -0.4064987             -11.0614
       134        2.0000           -0.4064133             -11.0591
       135        2.0000           -0.4023508             -10.9485
       136        2.0000           -0.3990626             -10.8590
       137        2.0000           -0.3960176             -10.7762
       138        2.0000           -0.3860570             -10.5051
       139        2.0000           -0.3682995             -10.0219
       140        2.0000           -0.3595755              -9.7845 (HOMO)
       141                         -0.2910699              -7.9204 (LUMO)
       142                         -0.2838400              -7.7237
       143                         -0.2384566              -6.4887
       144                         -0.2351648              -6.3992
       145                         -0.2289250              -6.2294
       146                         -0.2262770              -6.1573
       147                         -0.2242320              -6.1017
       148                         -0.2232797              -6.0758
       149                         -0.2176340              -5.9221
       150                         -0.0960480              -2.6136
       151                         -0.0285327              -0.7764
       ...                                ...                  ...
       255                          0.6587443              17.9253
      -------------------------------------------------------------
                  HL-Gap            0.0685056 Eh            1.8641 eV
             Fermi-level           -0.3253277 Eh           -8.8526 eV

   #   Z        covCN         q      C6AA      α(0)
   1   7 N      2.635    -0.382    29.882     8.119
   2   6 C      3.784     0.040    19.914     6.357
   3   6 C      2.767     0.199    23.762     7.983
   4   8 O      0.856    -0.376    21.205     6.174
   5   6 C      3.812    -0.066    21.754     6.639
   6   6 C      2.969    -0.001    28.058     8.689
   7   6 C      2.925    -0.045    29.114     8.849
   8   6 C      2.925    -0.041    29.029     8.836
   9   6 C      2.918    -0.061    29.505     8.907
  10   6 C      2.917    -0.074    29.839     8.958
  11   6 C      2.846     0.147    24.805     8.162
  12   8 O      1.660    -0.434    21.509     6.261
  13   1 H      0.860     0.158     1.349     1.820
  14   1 H      0.924     0.065     2.146     2.291
  15   1 H      0.925     0.045     2.389     2.417
  16   1 H      0.924     0.048     2.351     2.398
  17   1 H      0.926     0.036     2.501     2.473
  18   1 H      0.926     0.047     2.355     2.400
  19   1 H      0.926     0.048     2.339     2.391
  20   1 H      0.926     0.047     2.356     2.401
  21   1 H      0.805     0.349     0.591     1.208
  22   7 N      2.636    -0.384    29.921     8.124
  23   6 C      3.785     0.037    19.960     6.364
  24   6 C      2.760     0.266    22.505     7.769
  25   8 O      0.859    -0.492    23.618     6.516
  26   6 C      3.812    -0.062    21.688     6.629
  27   6 C      3.849    -0.006    20.654     6.464
  28   6 C      3.757    -0.115    22.744     6.800
  29   6 C      3.755    -0.113    22.711     6.795
  30   1 H      0.860     0.164     1.309     1.792
  31   1 H      0.924     0.032     2.561     2.503
  32   1 H      0.924     0.040     2.447     2.447
  33   1 H      0.924     0.027     2.622     2.532
  34   1 H      0.924     0.034     2.536     2.490
  35   1 H      0.925     0.041     2.439     2.442
  36   1 H      0.925     0.043     2.409     2.427
  37   1 H      0.925     0.038     2.480     2.463
  38   1 H      0.925     0.044     2.395     2.420
  39   1 H      0.925     0.039     2.456     2.451
  40   1 H      0.925     0.034     2.536     2.490
  41   7 N      2.692    -0.170    24.671     7.377
  42   6 C      3.799     0.017    20.294     6.414
  43   6 C      2.758     0.273    22.384     7.748
  44   8 O      0.858    -0.478    23.295     6.471
  45   6 C      3.728     0.117    18.761     6.184
  46   8 O      1.656    -0.486    22.597     6.417
  47   6 C      3.753    -0.140    23.259     6.877
  48   1 H      0.860     0.218     1.019     1.582
  49   1 H      0.924     0.070     2.086     2.259
  50   1 H      0.923     0.036     2.509     2.477
  51   1 H      0.805     0.349     0.591     1.208
  52   1 H      0.925     0.068     2.103     2.268
  53   1 H      0.925     0.050     2.314     2.379
  54   1 H      0.925     0.068     2.112     2.272
  55   7 N      2.685    -0.171    24.697     7.381
  56   6 C      3.745    -0.039    21.341     6.590
  57   6 C      2.753     0.271    22.415     7.753
  58   8 O      0.859    -0.501    23.805     6.541
  59   1 H      0.860     0.221     1.005     1.570
  60   1 H      0.924     0.101     1.772     2.082
  61   1 H      0.924     0.104     1.751     2.069
  62   7 N      2.685    -0.177    24.843     7.403
  63   6 C      3.747    -0.023    21.042     6.543
  64   6 C      2.749     0.274    22.363     7.743
  65   8 O      0.858    -0.477    23.284     6.470
  66   1 H      0.860     0.227     0.977     1.548
  67   1 H      0.924     0.083     1.944     2.180
  68   1 H      0.924     0.074     2.044     2.236
  69   7 N      2.691    -0.173    24.738     7.387
  70   6 C      3.792     0.023    20.201     6.401
  71   6 C      2.767     0.262    22.580     7.782
  72   8 O      0.860    -0.510    23.997     6.568
  73   6 C      3.812    -0.071    21.842     6.652
  74   6 C      3.849    -0.008    20.680     6.468
  75   6 C      3.757    -0.117    22.801     6.808
  76   6 C      3.758    -0.114    22.734     6.798
  77   1 H      0.860     0.214     1.035     1.594
  78   1 H      0.925     0.072     2.061     2.245
  79   1 H      0.924     0.052     2.295     2.369
  80   1 H      0.924     0.051     2.314     2.379
  81   1 H      0.924     0.025     2.663     2.552
  82   1 H      0.925     0.051     2.310     2.377
  83   1 H      0.925     0.030     2.581     2.513
  84   1 H      0.925     0.051     2.305     2.374
  85   1 H      0.925     0.048     2.340     2.392
  86   1 H      0.925     0.046     2.373     2.409
  87   1 H      0.925     0.034     2.533     2.489
  88   7 N      2.757    -0.079    22.785     7.089
  89   6 C      3.830     0.028    20.087     6.377
  90   6 C      2.765     0.208    23.580     7.953
  91   8 O      0.856    -0.358    20.867     6.125
  92   6 C      3.827    -0.067    21.770     6.639
  93   6 C      3.830    -0.071    21.833     6.648
  94   6 C      3.763    -0.005    20.719     6.488
  95   1 H      0.924     0.072     2.062     2.246
  96   1 H      0.925     0.071     2.077     2.253
  97   1 H      0.925     0.076     2.022     2.224
  98   1 H      0.925     0.070     2.082     2.256
  99   1 H      0.925     0.077     2.010     2.217
 100   1 H      0.925     0.066     2.131     2.283
 101   1 H      0.924     0.064     2.148     2.292
 102   1 H      0.862     0.187     1.177     1.699
 103   1 H      0.930     0.068     2.112     2.272
 104   1 H      0.862     0.179     1.219     1.729
 105   1 H      0.930     0.072     2.063     2.246

 Mol. C6AA /au·bohr⁶  :     100972.939679
 Mol. C8AA /au·bohr⁸  :    2248245.742029
 Mol. α(0) /au        :        477.283174


Wiberg/Mayer (AO) data.
largest (>0.10) Wiberg bond orders for each atom
          total WBO             WBO to atom ...
     1  N   3.005        C    2 1.028    H   13 0.956    H  102 0.941
     2  C   3.986        N    1 1.028    C    3 0.989    H   14 0.951    C    5 0.925
     3  C   3.899        O    4 1.882    C    2 0.989    H  103 0.956
     4  O   2.032        C    3 1.882
     5  C   3.992        C    6 1.012    H   16 0.972    H   15 0.965    C    2 0.925
     6  C   3.988        C    8 1.407    C    7 1.394    C    5 1.012
     7  C   3.992        C    9 1.460    C    6 1.394    H   17 0.964    C   10 0.104
     8  C   3.989        C   10 1.449    C    6 1.407    H   18 0.965    C    9 0.107
     9  C   3.988        C    7 1.460    C   11 1.361    H   19 0.968    C    8 0.107
    10  C   3.986        C    8 1.449    C   11 1.369    H   20 0.965    C    7 0.104
    11  C   3.937        C   10 1.369    C    9 1.361    O   12 1.078
    12  O   2.094        C   11 1.078    H   21 0.857
    13  H   0.975        N    1 0.956
    14  H   0.996        C    2 0.951
    15  H   0.997        C    5 0.965
    16  H   0.997        C    5 0.972
    17  H   0.999        C    7 0.964
    18  H   0.998        C    8 0.965
    19  H   0.997        C    9 0.968
    20  H   0.997        C   10 0.965
    21  H   0.878        O   12 0.857
    22  N   2.999        C   23 1.020    H  104 0.957    H   30 0.949
    23  C   3.988        N   22 1.020    C   26 0.968    H   31 0.962    C   24 0.943
    24  C   3.938        O   25 1.599    N   41 1.306    C   23 0.943
    25  O   1.950        C   24 1.599    N   41 0.185
    26  C   3.993        C   27 0.991    H   33 0.975    H   32 0.973    C   23 0.968
    27  C   3.994        C   29 1.010    C   28 1.007    C   26 0.991    H   34 0.964
    28  C   3.994        C   27 1.007    H   37 0.987    H   35 0.986    H   36 0.984
    29  C   3.996        C   27 1.010    H   39 0.986    H   38 0.985    H   40 0.985
    30  H   0.973        N   22 0.949
    31  H   0.999        C   23 0.962
    32  H   0.998        C   26 0.973
    33  H   0.999        C   26 0.975
    34  H   0.999        C   27 0.964
    35  H   0.997        C   28 0.986
    36  H   0.998        C   28 0.984
    37  H   0.999        C   28 0.987
    38  H   0.998        C   29 0.985
    39  H   0.998        C   29 0.986
    40  H   0.999        C   29 0.985
    41  N   3.473        C   24 1.306    C   42 0.975    H   48 0.919    O   25 0.185
    42  C   3.967        N   41 0.975    C   45 0.970    H   49 0.953    C   43 0.930
    43  C   3.949        O   44 1.653    N   55 1.288    C   42 0.930
    44  O   1.971        C   43 1.653    N   55 0.199
    45  C   3.956        C   47 1.002    O   46 0.992    C   42 0.970    H   50 0.957
    46  O   1.930        C   45 0.992    H   51 0.861
    47  C   3.989        C   45 1.002    H   54 0.983    H   53 0.983    H   52 0.981
    48  H   0.952        N   41 0.919
    49  H   0.995        C   42 0.953
    50  H   0.999        C   45 0.957
    51  H   0.878        O   46 0.861
    52  H   0.995        C   47 0.981
    53  H   0.997        C   47 0.983
    54  H   0.995        C   47 0.983
    55  N   3.470        C   43 1.288    C   56 1.002    H   59 0.920    O   44 0.199
    56  C   3.961        N   55 1.002    C   57 0.951    H   60 0.950    H   61 0.943
    57  C   3.953        O   58 1.614    N   62 1.317    C   56 0.951
    58  O   1.943        C   57 1.614    N   62 0.197
    59  H   0.951        N   55 0.920
    60  H   0.989        C   56 0.950
    61  H   0.989        C   56 0.943
    62  N   3.478        C   57 1.317    C   63 0.992    H   66 0.876    O   58 0.197
    63  C   3.966        N   62 0.992    H   67 0.967    H   68 0.962    C   64 0.936
    64  C   3.951        O   65 1.637    N   69 1.310    C   63 0.936
    65  O   1.964        C   64 1.637    N   69 0.203
    66  H   0.948        N   62 0.876
    67  H   0.993        C   63 0.967
    68  H   0.994        C   63 0.962
    69  N   3.480        C   64 1.310    C   70 0.974    H   77 0.912    O   65 0.203
    70  C   3.962        N   69 0.974    C   73 0.972    H   78 0.954    C   71 0.937
    71  C   3.950        O   72 1.611    N   88 1.302    C   70 0.937
    72  O   1.939        C   71 1.611    N   88 0.199
    73  C   3.988        C   74 0.993    H   80 0.972    C   70 0.972    H   79 0.971
    74  C   3.994        C   75 1.010    C   76 1.007    C   73 0.993    H   81 0.966
    75  C   3.995        C   74 1.010    H   82 0.985    H   84 0.980    H   83 0.979
    76  C   3.995        C   74 1.007    H   87 0.987    H   86 0.985    H   85 0.985
    77  H   0.954        N   69 0.912
    78  H   0.995        C   70 0.954
    79  H   0.997        C   73 0.971
    80  H   0.997        C   73 0.972
    81  H   0.999        C   74 0.966
    82  H   0.997        C   75 0.985
    83  H   0.999        C   75 0.979
    84  H   0.997        C   75 0.980
    85  H   0.997        C   76 0.985
    86  H   0.998        C   76 0.985
    87  H   0.999        C   76 0.987
    88  N   3.528        C   71 1.302    C   94 0.972    C   89 0.965    O   72 0.199
    89  C   3.969        C   90 0.973    N   88 0.965    C   92 0.965    H   95 0.956
    90  C   3.902        O   91 1.902    C   89 0.973    H  105 0.954
    91  O   2.047        C   90 1.902
    92  C   3.985        C   93 1.005    H   96 0.973    H   97 0.972    C   89 0.965
    93  C   3.989        C   92 1.005    C   94 1.004    H   98 0.976    H   99 0.972
    94  C   3.961        C   93 1.004    N   88 0.972    H  101 0.965    H  100 0.960
    95  H   0.995        C   89 0.956
    96  H   0.994        C   92 0.973
    97  H   0.994        C   92 0.972
    98  H   0.995        C   93 0.976
    99  H   0.993        C   93 0.972
   100  H   0.996        C   94 0.960
   101  H   0.996        C   94 0.965
   102  H   0.965        N    1 0.941
   103  H   0.995        C    3 0.956
   104  H   0.968        N   22 0.957
   105  H   0.995        C   90 0.954
 
molecular dipole:
                 x           y           z       tot (Debye)
 q only:        0.182      -1.597      -1.066
   full:        0.314      -1.564      -1.595       5.735
molecular quadrupole (traceless):
                xx          xy          yy          xz          yz          zz
 q only:      622.522    -927.661    -368.625    -656.641    -745.038    -253.897
  q+dip:      835.636    -876.581    -299.909    -960.226    -853.378    -535.727
   full:      835.864    -877.438    -301.404    -958.656    -854.545    -534.460


           -------------------------------------------------
          | TOTAL ENERGY             -157.975715338137 Eh   |
          | GRADIENT NORM               0.313179535726 Eh/α |
          | HOMO-LUMO GAP               1.864131403084 eV   |
           -------------------------------------------------

------------------------------------------------------------------------
 * finished run on 2019/05/31 at 05:35:26.149     
------------------------------------------------------------------------
 total:
 * wall-time:     0 d,  0 h,  0 min,  0.649 sec
 *  cpu-time:     0 d,  0 h,  0 min,  0.854 sec
 * ratio c/w:     1.315 speedup
 SCF:
 * wall-time:     0 d,  0 h,  0 min,  0.282 sec
 *  cpu-time:     0 d,  0 h,  0 min,  0.560 sec
 * ratio c/w:     1.984 speedup

