      -----------------------------------------------------------      
     |                   =====================                   |     
     |                           x T B                           |     
     |                   =====================                   |     
     |                         S. Grimme                         |     
     |          Mulliken Center for Theoretical Chemistry        |     
     |                    University of Bonn                     |     
     |                Version 6.1 RC1 (SAW190329)                |     
      -----------------------------------------------------------      

   This program is distributed in the hope that it will be useful,
   but WITHOUT ANY WARRANTY; without even the implied warranty of
   MERCHANTABILITY or FITNESS FOR A PARTICULAR PURPOSE.
   
   FOR NON-COMMERCIAL, ACADEMIA USE ONLY.
   
   Cite this work as:
   S. Grimme, C. Bannwarth, P. Shushkov, J. Comput. Theory Chem., 2017,
   13, 1989-2009. DOI: 10.1021/acs.jctc.7b00118
   C. Bannwarth, S. Ehlert and S. Grimme., J. Comput. Theory Chem., 2019,
   just accepted. DOI: 10.1021/acs.jctc.8b01176
   
   for sTDA-xTB:
   S. Grimme and C. Bannwarth, J. Chem. Phys., 2016, 145, 054103.
   DOI: 10.1063/1.4959605
   
   in the mass-spec context:
   V. Asgeirsson, C. Bauer and S. Grimme, Chem. Sci., 2017, 8, 4879.
   DOI: 10.1039/c7sc00601b
   
   for metadynamics refer to:
   S. Grimme, ChemRxiv, Preprint. DOI: 10.26434/chemrxiv.7660532.v1
   
   with help from (in alphabetical order)
   C. Bannwarth, F. Bohle, G. Brandenburg, E. Caldeweyher, M. Checinski,
   S. Dohm, S. Ehlert, S. Ehrlich, F. März, H. Neugebauer, J. Pisarek,
   P. Pracht, P. Shushkov, and S. Spicher.
   
 * started run on 2019/05/31 at 05:35:05.346     

           -------------------------------------------------
          |                Calculation Setup                |
           -------------------------------------------------

          program call               : /home/lum/install/xtb/xtb-190329/bin/xtb xtb_tmp.xyz --chrg 1 --grad --gfn 2 --etemp 500 --acc 0.1 --gbsa h2o --parallel 2
          hostname                   : cpu02
          coordinate file            : xtb_tmp.xyz
          omp threads                :                     2
          number of atoms            :                   297
          number of electrons        :                   826
          charge                     :                     1
          spin                       :                   0.0
          first test random number   :      0.51150086032114


molecular fragmentation (1/2 indicates fragments):
111111111111111111111111111111111111111111111111111111111111111111111111
111111111111111111111111111111111111111111111111111111111111111111111111
111111111111111222222222222222222222222222222222222222222222222222222222
222222222222222222222222222222222222222222222222222222222222222222222222
211222222
# atoms in fragment 1/2:   161   136
 fragment masses (1/2) :     1170.24      929.11
CMA distance (Bohr)    :  13.100
constraining FC (au)   :  0.0500

########################################################################
# WARNING! Please study the warnings concerning your input carefully
#  - XTBPATH is not set, using XTBHOME instead
#  - Process number higher than OMP_NUM_THREADS, I hope you know what you are doing.
########################################################################

           ------------------------------------------------- 
          |                 G F N 2 - x T B                 |
          | Geometry, Frequencies, Noncovalent interactions |
          |            JCTC 2018 parametrisation            |
           ------------------------------------------------- 
 
             k(s)              :                1.8500
             k(p)              :                2.2300
             k(d)              :                2.2300
             k(f)              :                2.0000
             kEN (H0ij)        :               -2.0000
             D4 a1             :                0.5200
             D4 a2             :                5.0000
             D4 s6             :                1.0000
             D4 s8             :                2.7000
             D4 s9             :                5.0000
             alphaj            :                2.0000

  Z AO/shell   Hii/eV     exponent
  1     Wed Apr 25 08:07:45 CEST 2018   EN: 2.200 GM2: 0.406  GM3: 0.0800  RAES: 1.40
     1s    -10.707211    1.230000
  6     Wed Apr 25 08:07:45 CEST 2018   EN: 2.550 GM2: 0.538  GM3: 0.1500  RAES: 3.00
     2s    -13.970922    2.096432
     2p    -10.063292    1.800000
  7     Wed Apr 25 08:07:45 CEST 2018   EN: 3.040 GM2: 0.461  GM3:-0.0640  RAES: 1.90
     2s    -16.686243    2.339881
     2p    -12.523956    2.014332
  8     Wed Apr 25 08:07:45 CEST 2018   EN: 3.440 GM2: 0.452  GM3:-0.0517  RAES: 1.80
     2s    -20.229985    2.439742
     2p    -15.503117    2.137023

 Solvent             : h2o
 Using internal parameter file: .param_gbsa2_h2o
 Gsolv ref. state (COSMO-RS): gsolv [1 M gas/solution]
 temperature (mdtemp)       :    298.150000000000     
 dielectric constant        :    80.2000000000000     
 rho                        :    1.00000000000000     
 mass                       :    18.0000000000000     
 surface tension            :    15.5689454083859     
 probe radius               :   0.975313790000000     
 vdW radii scaling          :    1.00000000000000     
 Gshift (Eh)                :   1.857443126794793E-003
 c1                         :    1.55243817000000     
 soset                      :   0.130326360000000     
 HB correction              :  T
 Number of grid points      :          230

            Z     q(EN)     CN     RAES       Cart. coordinates
     1  N   5.0   -0.71    3.00    1.93   335.83414   121.85534   219.15869
     2  C   4.0    0.07    3.98    3.59   335.55429   121.86363   221.90597
     3  C   4.0    0.28    3.00    3.02   332.76222   121.38664   222.63024
     4  O   6.0   -0.44    1.00    1.80   331.38511   123.03533   223.48358
     5  C   4.0   -0.12    3.98    3.59   336.51118   124.36269   223.01996
     6  C   4.0   -0.16    3.98    3.58   337.30068   124.14292   225.79156
     7  C   4.0   -0.15    3.98    3.58   339.63285   122.50946   226.31711
     8  C   4.0   -0.05    3.98    3.58   342.11921   123.49978   225.22228
     9  N   5.0   -0.73    3.98    2.81   342.72664   122.38808   222.70275
    10  H   1.0    0.25    1.00    1.43   337.61078   122.08898   218.47810
    11  H   1.0    0.11    0.99    1.43   336.65298   120.26075   222.62447
    12  H   1.0    0.11    0.99    1.43   338.04791   125.09321   221.85610
    13  H   1.0    0.14    0.99    1.43   334.96724   125.72877   222.87124
    14  H   1.0    0.11    0.99    1.43   337.62386   126.04842   226.50673
    15  H   1.0    0.13    0.99    1.43   335.70036   123.36957   226.83819
    16  H   1.0    0.11    0.99    1.43   339.82775   122.43244   228.36468
    17  H   1.0    0.13    0.99    1.43   339.29910   120.58732   225.66805
    18  H   1.0    0.11    0.99    1.43   342.05756   125.55295   225.07235
    19  H   1.0    0.12    0.99    1.43   343.65624   122.97391   226.48863
    20  H   1.0    0.24    1.00    1.43   344.55609   122.82466   222.21696
    21  H   1.0    0.29    0.99    1.43   342.52295   120.41329   222.76737
    22  H   1.0    0.24    1.00    1.43   341.58029   123.06331   221.28131
    23  N   5.0   -0.48    3.01    1.93   332.04523   118.96804   222.36656
    24  C   4.0    0.08    3.99    3.60   329.56735   118.06031   223.07642
    25  C   4.0    0.29    3.01    3.02   329.71972   116.95461   225.75150
    26  O   6.0   -0.36    1.00    1.80   331.70161   116.93190   226.92678
    27  C   4.0   -0.13    3.99    3.60   328.50600   116.22834   221.08945
    28  C   4.0   -0.03    3.02    3.02   329.96732   113.81255   220.80084
    29  C   4.0   -0.08    3.03    3.02   329.22398   111.64532   222.08695
    30  C   4.0   -0.10    3.03    3.02   332.00733   113.65553   219.15339
    31  C   4.0   -0.07    3.03    3.02   330.43184   109.36829   221.69051
    32  C   4.0   -0.09    3.03    3.02   333.24054   111.38541   218.75084
    33  C   4.0    0.10    3.03    3.02   332.42748   109.21620   219.98492
    34  O   6.0   -0.50    1.99    1.83   333.50633   106.92246   219.57838
    35  H   1.0    0.25    1.00    1.43   333.31278   117.61542   221.91741
    36  H   1.0    0.13    0.99    1.43   328.31275   119.70380   223.15974
    37  H   1.0    0.11    0.99    1.43   326.55224   115.80795   221.59510
    38  H   1.0    0.10    0.99    1.43   328.46989   117.26192   219.30335
    39  H   1.0    0.15    0.99    1.43   327.64206   111.73024   223.37469
    40  H   1.0    0.11    0.99    1.43   332.59192   115.32075   218.12380
    41  H   1.0    0.14    1.00    1.43   329.79033   107.68266   222.63968
    42  H   1.0    0.11    0.99    1.43   334.79951   111.28769   217.43497
    43  H   1.0    0.26    0.99    1.43   334.84943   107.06303   218.34807
    44  N   5.0   -0.48    3.01    1.93   327.54525   116.02696   226.67116
    45  C   4.0    0.10    4.00    3.62   327.31208   115.32852   229.30433
    46  C   4.0    0.28    3.00    3.02   326.29942   112.61496   229.51963
    47  O   6.0   -0.42    1.00    1.80   324.08770   112.14388   229.96736
    48  C   4.0    0.05    3.98    3.58   325.62939   117.24680   230.70725
    49  O   6.0   -0.45    1.99    1.82   326.76931   119.64116   230.33973
    50  C   4.0   -0.21    3.98    3.59   325.43583   116.58209   233.50893
    51  H   1.0    0.29    1.00    1.43   325.89592   116.14855   225.70687
    52  H   1.0    0.15    0.99    1.43   329.22748   115.43547   230.08718
    53  H   1.0    0.15    0.99    1.43   323.74320   117.23762   229.82650
    54  H   1.0    0.26    0.99    1.43   325.76940   120.89550   231.20564
    55  H   1.0    0.11    0.99    1.43   324.32571   118.00522   234.48769
    56  H   1.0    0.13    0.99    1.43   324.53112   114.75563   233.71551
    57  H   1.0    0.12    0.99    1.43   327.31892   116.52853   234.32576
    58  N   5.0   -0.48    3.01    1.93   328.14297   110.88071   229.30972
    59  C   4.0    0.08    3.99    3.60   327.83479   108.15317   229.42864
    60  C   4.0    0.28    3.01    3.02   326.53561   107.02340   227.10239
    61  O   6.0   -0.42    1.00    1.80   324.95906   108.16069   225.86836
    62  C   4.0   -0.18    3.98    3.59   326.29145   107.33935   231.75004
    63  H   1.0    0.25    1.00    1.43   329.85758   111.52799   228.77054
    64  H   1.0    0.13    0.99    1.43   329.71572   107.31463   229.57149
    65  H   1.0    0.13    0.99    1.43   325.99576   105.30760   231.66627
    66  H   1.0    0.12    0.99    1.43   327.33754   107.84454   233.44073
    67  H   1.0    0.15    0.99    1.43   324.46940   108.28484   231.71914
    68  N   5.0   -0.50    3.01    1.93   327.29920   104.63112   226.61064
    69  C   4.0    0.08    3.99    3.61   325.70729   102.83479   225.25575
    70  C   4.0    0.29    3.01    3.02   324.86849   100.87910   227.20656
    71  O   6.0   -0.44    1.00    1.80   323.64171   101.61009   229.05328
    72  C   4.0   -0.11    3.97    3.58   326.80170   101.76412   222.83563
    73  C   4.0    0.32    2.99    3.02   324.63576   100.41576   221.29670
    74  O   6.0   -0.35    1.00    1.80   322.62125    99.99566   222.45586
    75  O   6.0   -0.36    1.00    1.80   325.11855    99.95267   219.04386
    76  H   1.0    0.26    1.00    1.43   328.60597   103.86715   227.78025
    77  H   1.0    0.15    0.99    1.43   323.98487   103.85478   224.72164
    78  H   1.0    0.12    0.99    1.43   327.52842   103.27031   221.63261
    79  H   1.0    0.12    0.99    1.43   328.28219   100.36449   223.12462
    80  N   5.0   -0.47    3.00    1.93   325.84662    98.55982   227.06308
    81  C   4.0    0.07    3.99    3.60   324.85057    96.50094   228.60721
    82  C   4.0    0.29    3.01    3.02   326.37740    96.40975   231.10354
    83  O   6.0   -0.39    1.00    1.80   327.69532    94.62476   231.72439
    84  C   4.0   -0.09    3.98    3.58   325.00019    93.95854   227.23957
    85  C   4.0    0.33    2.99    3.02   325.09502    94.08404   224.29688
    86  O   6.0   -0.33    1.00    1.80   323.50207    92.83316   223.11734
    87  O   6.0   -0.40    1.00    1.80   326.88300    95.35033   223.37422
    88  H   1.0    0.29    1.00    1.43   326.47854    97.89071   225.35433
    89  H   1.0    0.14    0.99    1.43   322.87231    96.94501   229.06499
    90  H   1.0    0.15    0.99    1.43   326.74268    93.00442   227.81435
    91  H   1.0    0.13    0.99    1.43   323.40094    92.77402   227.76822
    92  N   5.0   -0.47    3.00    1.93   326.07457    98.48600   232.52302
    93  C   4.0    0.02    3.99    3.61   327.64155    98.97263   234.70525
    94  C   4.0    0.29    3.00    3.02   330.20404   100.08974   233.92805
    95  O   6.0   -0.42    1.00    1.80   331.17051    99.52814   231.90184
    96  H   1.0    0.29    1.00    1.43   325.05863    99.91863   231.73348
    97  H   1.0    0.09    0.99    1.43   326.61453   100.19140   236.00560
    98  H   1.0    0.14    0.99    1.43   328.01798    97.14123   235.59915
    99  N   5.0   -0.50    3.00    1.93   331.24001   101.58785   235.68678
   100  C   4.0    0.07    3.98    3.59   333.57853   103.05242   235.54731
   101  C   4.0    0.29    3.01    3.02   333.41524   105.00329   233.40523
   102  O   6.0   -0.42    1.00    1.80   332.11291   104.68366   231.53380
   103  C   4.0    0.05    3.97    3.58   336.00083   101.40406   235.23044
   104  O   6.0   -0.46    1.99    1.82   336.23592   100.44006   232.77625
   105  C   4.0   -0.20    3.98    3.59   336.05112    99.31912   237.23211
   106  H   1.0    0.22    1.00    1.43   330.28367   101.77230   237.32765
   107  H   1.0    0.09    0.99    1.43   333.75259   104.04371   237.34758
   108  H   1.0    0.13    0.99    1.43   337.64502   102.63898   235.47615
   109  H   1.0    0.31    0.99    1.43   334.66923    99.55836   232.39117
   110  H   1.0    0.12    0.99    1.43   337.78372    98.23660   237.02731
   111  H   1.0    0.10    0.99    1.43   335.99695   100.12487   239.11735
   112  H   1.0    0.13    0.99    1.43   334.46356    98.03569   236.99028
   113  N   5.0   -0.51    3.01    1.93   334.69882   107.15913   233.84668
   114  C   4.0    0.10    4.00    3.62   334.79912   109.07830   231.90422
   115  C   4.0    0.28    3.01    3.02   336.97730   108.54718   230.06051
   116  O   6.0   -0.40    1.00    1.80   338.82861   107.32801   230.69461
   117  C   4.0   -0.02    3.98    3.58   334.98065   111.76970   232.97638
   118  O   6.0   -0.48    1.99    1.83   333.95991   113.36768   231.10362
   119  H   1.0    0.24    1.00    1.43   336.08255   107.19952   235.15996
   120  H   1.0    0.14    0.99    1.43   333.02244   108.96854   230.85515
   121  H   1.0    0.11    0.99    1.43   333.86581   111.88423   234.72252
   122  H   1.0    0.12    0.99    1.43   336.95166   112.24327   233.39993
   123  H   1.0    0.28    0.99    1.43   334.41831   115.10162   231.42504
   124  N   5.0   -0.48    3.01    1.93   336.60181   109.50392   227.75199
   125  C   4.0    0.07    3.99    3.61   338.31172   109.13067   225.65608
   126  C   4.0    0.26    3.01    3.02   338.25560   111.49295   223.99550
   127  O   6.0   -0.39    1.00    1.80   336.64066   113.12398   224.17476
   128  C   4.0   -0.13    3.98    3.59   337.50779   106.83677   224.05575
   129  C   4.0   -0.15    3.98    3.59   337.93955   104.29158   225.38716
   130  C   4.0   -0.13    3.98    3.58   335.47083   102.90043   225.96925
   131  C   4.0   -0.04    3.98    3.59   336.06515   100.22607   226.85194
   132  N   5.0   -0.72    3.98    2.82   333.71055    98.75229   227.29557
   133  H   1.0    0.28    1.00    1.43   335.16305   110.72490   227.42564
   134  H   1.0    0.13    0.99    1.43   340.21272   108.81940   226.41540
   135  H   1.0    0.14    0.99    1.43   335.51212   107.04888   223.59492
   136  H   1.0    0.12    0.99    1.43   338.56209   106.86795   222.28729
   137  H   1.0    0.11    0.99    1.43   339.09143   103.09066   224.17481
   138  H   1.0    0.15    0.99    1.43   338.97281   104.57594   227.14422
   139  H   1.0    0.15    0.99    1.43   334.42551   103.90196   227.43729
   140  H   1.0    0.12    0.99    1.43   334.30470   102.83426   224.26699
   141  H   1.0    0.12    0.99    1.43   337.17560    99.25391   225.41406
   142  H   1.0    0.15    0.99    1.43   337.13021   100.29510   228.61655
   143  H   1.0    0.31    0.99    1.43   332.67401    99.47286   228.80439
   144  H   1.0    0.26    1.00    1.43   332.57881    98.76932   225.71780
   145  H   1.0    0.27    1.00    1.43   334.12515    96.90170   227.71118
   146  N   5.0   -0.49    3.01    1.93   340.18490   111.62118   222.34755
   147  C   4.0    0.07    3.98    3.59   340.44505   113.57928   220.45216
   148  C   4.0    0.04    3.00    3.02   340.90590   112.28016   217.90186
   149  O   6.0   -0.40    1.00    1.80   342.03560   110.27317   217.79224
   150  C   4.0    0.05    3.98    3.58   342.67824   115.32569   221.21874
   151  O   6.0   -0.54    1.99    1.82   341.81269   117.18663   222.93465
   152  C   4.0   -0.20    3.98    3.59   343.89538   116.67302   218.99236
   153  H   1.0    0.25    1.00    1.43   341.38768   110.14916   222.13039
   154  H   1.0    0.13    0.99    1.43   338.69073   114.67575   220.41170
   155  H   1.0    0.13    0.99    1.43   344.10547   114.13867   222.14493
   156  H   1.0    0.28    0.99    1.43   341.06650   116.38221   224.39307
   157  H   1.0    0.12    0.99    1.43   345.44171   117.84145   219.66383
   158  H   1.0    0.12    0.99    1.43   344.65802   115.30226   217.67025
   159  H   1.0    0.11    0.99    1.43   342.52281   117.84408   218.01803
   160  N   5.0   -0.68    3.00    1.93   330.39846   105.06008   208.58605
   161  C   4.0    0.07    3.99    3.60   330.16567   104.23436   211.18839
   162  C   4.0    0.29    3.02    3.02   328.95685   101.60922   211.07742
   163  O   6.0   -0.38    1.00    1.80   326.90625   101.26481   210.06682
   164  C   4.0   -0.09    3.98    3.58   328.53087   106.06052   212.77570
   165  C   4.0   -0.16    3.98    3.59   329.63542   108.73578   212.63490
   166  C   4.0   -0.21    3.98    3.59   328.34590   105.10948   215.49256
   167  C   4.0   -0.23    3.98    3.58   328.14392   110.68786   214.14300
   168  H   1.0    0.29    1.00    1.43   328.87369   104.77621   207.45709
   169  H   1.0    0.12    0.99    1.43   332.07648   104.15837   211.97392
   170  H   1.0    0.13    0.99    1.43   326.64646   106.08007   211.92721
   171  H   1.0    0.11    0.99    1.43   331.58641   108.70284   213.30206
   172  H   1.0    0.10    0.99    1.43   329.67111   109.31366   210.65261
   173  H   1.0    0.12    0.99    1.43   327.10090   106.32371   216.58493
   174  H   1.0    0.14    0.99    1.43   327.57304   103.20588   215.57441
   175  H   1.0    0.12    0.99    1.43   330.19278   105.11119   216.38884
   176  H   1.0    0.10    0.99    1.43   328.81630   112.57893   213.69756
   177  H   1.0    0.11    0.99    1.43   326.14245   110.59314   213.69287
   178  H   1.0    0.11    0.99    1.43   328.35671   110.40743   216.16500
   179  N   5.0   -0.48    3.01    1.93   330.30128    99.72340   212.09736
   180  C   4.0    0.03    3.99    3.60   329.43617    97.12571   211.95488
   181  C   4.0    0.11    3.00    3.02   329.40920    96.31102   209.17027
   182  O   6.0   -0.34    1.00    1.80   331.35973    95.92752   208.00341
   183  H   1.0    0.24    1.00    1.43   332.04503   100.06151   212.77087
   184  H   1.0    0.13    0.99    1.43   330.75553    95.93928   212.99659
   185  H   1.0    0.14    0.99    1.43   327.55808    96.99512   212.80581
   186  N   5.0   -0.70    3.00    1.92   326.03690   123.98585   222.42877
   187  C   4.0    0.03    3.98    3.59   325.11500   123.71975   224.98328
   188  C   4.0    0.27    3.01    3.02   322.78605   122.04027   225.27236
   189  O   6.0   -0.40    1.00    1.80   321.57587   122.06559   227.24929
   190  H   1.0    0.31    1.00    1.43   327.93411   123.85001   222.19127
   191  H   1.0    0.14    0.99    1.43   326.62957   122.92507   226.14079
   192  H   1.0    0.14    0.99    1.43   324.60304   125.56632   225.77351
   193  N   5.0   -0.48    3.01    1.93   322.19733   120.54160   223.33629
   194  C   4.0    0.08    4.01    3.63   319.92266   119.03233   223.41925
   195  C   4.0    0.29    3.01    3.02   320.40041   116.74072   225.10023
   196  O   6.0   -0.44    1.00    1.80   322.39398   115.56957   225.04688
   197  C   4.0   -0.13    3.99    3.60   319.12248   118.09819   220.79748
   198  C   4.0    0.12    3.34    3.06   316.71145   116.65100   221.01258
   199  N   5.0   -0.37    2.10    1.90   314.43342   117.81964   221.34428
   200  C   4.0    0.05    3.23    3.04   316.37238   114.08626   221.07940
   201  C   4.0    0.19    3.41    3.08   312.77338   116.00583   221.57861
   202  N   5.0   -0.46    3.13    1.94   313.84798   113.69708   221.43349
   203  H   1.0    0.22    1.00    1.43   323.26636   120.46384   221.74787
   204  H   1.0    0.15    0.99    1.43   318.41516   120.19365   224.23670
   205  H   1.0    0.12    0.99    1.43   318.86247   119.71623   219.54947
   206  H   1.0    0.11    0.99    1.43   320.59735   116.87560   220.03459
   207  H   1.0    0.13    1.00    1.43   317.68381   112.56256   220.88716
   208  H   1.0    0.13    1.00    1.43   310.79722   116.29955   221.89940
   209  H   1.0    0.24    1.00    1.43   312.99608   111.98973   221.60025
   210  N   5.0   -0.49    3.01    1.93   318.50444   116.16863   226.67281
   211  C   4.0    0.09    4.00    3.61   318.63873   114.10472   228.46178
   212  C   4.0    0.29    3.01    3.02   317.26350   111.80366   227.36676
   213  O   6.0   -0.41    1.00    1.80   314.98135   111.49920   227.62338
   214  C   4.0   -0.09    3.99    3.60   317.46253   114.92735   230.96773
   215  C   4.0    0.27    3.00    3.02   317.97792   112.98376   233.00320
   216  O   6.0   -0.46    1.00    1.80   317.92977   110.69923   232.59210
   217  N   5.0   -0.66    3.00    1.93   318.43881   113.91744   235.29409
   218  H   1.0    0.25    1.00    1.43   316.82164   117.04352   226.46197
   219  H   1.0    0.17    0.99    1.43   320.64140   113.63703   228.70670
   220  H   1.0    0.11    0.99    1.43   318.20522   116.77737   231.48027
   221  H   1.0    0.12    0.99    1.43   315.41556   115.06857   230.70371
   222  H   1.0    0.27    1.00    1.43   318.70421   112.74032   236.77013
   223  H   1.0    0.26    1.00    1.43   318.45843   115.79110   235.60800
   224  N   5.0   -0.49    3.01    1.93   318.76213   110.20058   226.11539
   225  C   4.0    0.08    3.99    3.60   317.81754   107.94687   224.89624
   226  C   4.0    0.28    3.01    3.02   317.10924   105.86197   226.78457
   227  O   6.0   -0.43    1.00    1.80   316.12356   103.90701   226.03672
   228  C   4.0   -0.11    3.99    3.61   319.78737   106.87194   223.06414
   229  C   4.0   -0.03    3.03    3.02   320.07137   108.37966   220.67995
   230  C   4.0   -0.08    3.03    3.02   322.01335   110.13399   220.44424
   231  C   4.0   -0.08    3.03    3.02   318.41421   108.03518   218.66982
   232  C   4.0   -0.11    3.03    3.02   322.29096   111.53236   218.25041
   233  C   4.0   -0.08    3.03    3.02   318.70207   109.42463   216.47345
   234  C   4.0   -0.10    3.03    3.02   320.62981   111.18345   216.26008
   235  H   1.0    0.28    1.00    1.43   320.64185   110.52748   225.99878
   236  H   1.0    0.13    0.99    1.43   316.06598   108.39992   223.86969
   237  H   1.0    0.15    0.99    1.43   321.59360   106.83357   224.05583
   238  H   1.0    0.14    0.99    1.43   319.24560   104.93051   222.60435
   239  H   1.0    0.14    1.00    1.43   323.31886   110.39162   221.99125
   240  H   1.0    0.15    0.99    1.43   316.89452   106.67419   218.82678
   241  H   1.0    0.11    1.00    1.43   323.81097   112.88740   218.10840
   242  H   1.0    0.14    1.00    1.43   317.40459   109.11643   214.93048
   243  H   1.0    0.12    1.00    1.43   320.82450   112.27068   214.54603
   244  N   5.0   -0.46    3.01    1.93   317.66272   106.26316   229.21729
   245  C   4.0    0.08    4.00    3.62   316.77049   104.51190   231.13499
   246  C   4.0    0.28    3.01    3.02   313.95052   105.03441   231.60976
   247  O   6.0   -0.40    1.00    1.80   312.31651   103.40959   231.44061
   248  C   4.0   -0.14    3.98    3.59   318.35028   104.76531   233.54305
   249  C   4.0   -0.16    3.98    3.58   317.81673   102.54982   235.33073
   250  C   4.0   -0.15    3.98    3.58   318.70661   102.95125   238.05507
   251  C   4.0   -0.06    3.98    3.58   321.53594   103.47960   238.31436
   252  N   5.0   -0.73    3.98    2.81   322.06347   106.25237   238.30259
   253  H   1.0    0.29    1.00    1.43   318.26431   107.97791   229.82893
   254  H   1.0    0.15    0.99    1.43   316.91738   102.60378   230.34239
   255  H   1.0    0.13    0.99    1.43   320.32176   104.76099   232.93470
   256  H   1.0    0.14    0.99    1.43   317.85182   106.56930   234.40661
   257  H   1.0    0.13    0.99    1.43   315.78314   102.20685   235.35451
   258  H   1.0    0.12    0.99    1.43   318.68803   100.85343   234.54646
   259  H   1.0    0.12    0.99    1.43   317.60784   104.46993   238.90778
   260  H   1.0    0.11    0.99    1.43   318.25861   101.22844   239.08746
   261  H   1.0    0.11    0.99    1.43   322.22328   102.71287   240.09863
   262  H   1.0    0.11    0.99    1.43   322.53745   102.58574   236.75207
   263  H   1.0    0.24    1.00    1.43   323.96393   106.60602   238.54571
   264  H   1.0    0.24    1.00    1.43   321.48348   107.03674   236.61460
   265  H   1.0    0.24    1.00    1.43   321.08152   107.09130   239.76434
   266  N   5.0   -0.48    3.01    1.93   313.45941   107.43013   232.28888
   267  C   4.0    0.07    3.99    3.60   310.90256   108.29998   232.73994
   268  C   4.0    0.09    3.00    3.02   309.19340   108.04462   230.41464
   269  O   6.0   -0.39    1.00    1.80   307.01742   107.29230   230.59485
   270  C   4.0   -0.20    3.99    3.60   310.94413   111.05613   233.57547
   271  H   1.0    0.29    1.00    1.43   314.84605   108.75389   232.16561
   272  H   1.0    0.15    0.99    1.43   310.05151   107.09306   234.19538
   273  H   1.0    0.12    0.99    1.43   309.02831   111.69256   233.94602
   274  H   1.0    0.12    0.99    1.43   312.05917   111.25494   235.28567
   275  H   1.0    0.13    0.99    1.43   311.74953   112.21320   232.07912
   276  N   5.0   -0.53    3.02    1.93   310.10043   104.98088   223.94390
   277  C   4.0    0.07    4.01    3.63   311.74668   103.41287   222.40332
   278  C   4.0    0.07    3.00    3.02   311.18489   103.56391   219.58544
   279  O   6.0   -0.39    1.00    1.80   312.89114   103.74282   218.02101
   280  C   4.0   -0.11    4.01    3.64   311.34697   100.73320   223.41942
   281  C   4.0   -0.13    4.01    3.63   308.69595   100.81183   224.54865
   282  C   4.0   -0.01    4.01    3.64   308.52534   103.48013   225.62376
   283  H   1.0    0.15    0.99    1.43   313.70915   104.02617   222.64279
   284  H   1.0    0.13    0.99    1.43   311.55787    99.32489   221.93734
   285  H   1.0    0.14    0.99    1.43   312.75257   100.38828   224.88406
   286  H   1.0    0.12    0.99    1.43   307.26856   100.55435   223.08584
   287  H   1.0    0.12    0.99    1.43   308.43347    99.38880   226.00501
   288  H   1.0    0.14    0.99    1.43   306.58309   104.17366   225.63621
   289  H   1.0    0.15    0.99    1.43   309.28478   103.54807   227.54904
   290  H   1.0    0.30    1.00    1.43   335.29160   120.36806   218.53724
   291  H   1.0    0.12    1.00    1.43   340.27822   113.07800   216.30796
   292  H   1.0    0.29    1.00    1.43   330.69954   106.73350   208.54618
   293  H   1.0    0.16    1.00    1.43   327.76428    96.08235   208.26860
   294  H   1.0    0.29    1.00    1.43   325.35602   122.77282   221.45023
   295  H   1.0    0.15    1.00    1.43   309.85299   108.49809   228.70281
   296  H   1.0    0.29    1.00    1.43   311.03495   106.11435   224.80092
   297  H   1.0    0.15    1.00    1.43   309.39719   103.51819   218.97461

           ------------------------------------------------- 
          |        Self-Consistent Charge Iterations        |
           ------------------------------------------------- 

          ...................................................
          :                      SETUP                      :
          :.................................................:
          :  # basis functions                 741          :
          :  # atomic orbitals                 741          :
          :  # shells                          445          :
          :  # electrons                       826          :
          :  max. iterations                   250          :
          :  Hamiltonian                  GFN2-xTB          :
          :  restarted?                      false          :
          :  GBSA solvation                   true          :
          :  PC potential                    false          :
          :  electronic temp.          500.0000000     K    :
          :  accuracy                    0.1000000          :
          :  -> integral cutoff          0.3500000E+02      :
          :  -> integral neglect         0.1000000E-08      :
          :  -> SCF convergence          0.1000000E-06 Eh   :
          :  -> wf. convergence          0.1000000E-04 e    :
          :  Broyden damping             0.4000000          :
          ...................................................

 iter      E             dE          RMSdq      gap      omega  full diag
   1   -475.1025919 -0.475103E+03  0.442E+00    1.86       0.0  T
   2   -476.5106488 -0.140806E+01  0.231E+00    1.67       1.0  T
   3   -476.5590356 -0.483869E-01  0.125E+00    1.93       1.0  T
   4   -476.5700289 -0.109933E-01  0.324E-01    1.21       1.0  T
   5   -476.5864086 -0.163797E-01  0.125E-01    1.42       1.0  T
   6   -476.5871208 -0.712207E-03  0.661E-02    1.51       1.0  T
   7   -476.5872939 -0.173078E-03  0.328E-02    1.56       1.0  T
   8   -476.5873881 -0.941916E-04  0.108E-02    1.60       1.0  T
   9   -476.5873927 -0.458692E-05  0.584E-03    1.61       1.0  T
  10   -476.5873947 -0.195551E-05  0.220E-03    1.61       2.6  T
  11   -476.5873950 -0.342412E-06  0.101E-03    1.61       5.8  T
  12   -476.5873951 -0.781347E-07  0.491E-04    1.61      11.8  T
  13   -476.5873951 -0.156427E-07  0.229E-04    1.61      25.4  T
  14   -476.5873951 -0.294608E-08  0.900E-05    1.61      64.5  T
  15   -476.5873951 -0.599357E-09  0.429E-05    1.61     135.3  T

   *** convergence criteria satisfied after 15 iterations ***

         #    Occupation            Energy/Eh            Energy/eV
      -------------------------------------------------------------
         1        2.0000           -0.7496735             -20.3997
       ...           ...                  ...                  ...
       407        2.0000           -0.3839252             -10.4471
       408        2.0000           -0.3741720             -10.1817
       409        2.0000           -0.3704972             -10.0817
       410        2.0000           -0.3669378              -9.9849
       411        2.0000           -0.3650748              -9.9342
       412        2.0000           -0.3649676              -9.9313
       413        2.0000           -0.3646377              -9.9223 (HOMO)
       414                         -0.3055118              -8.3134 (LUMO)
       415                         -0.2971030              -8.0846
       416                         -0.2938742              -7.9967
       417                         -0.2906947              -7.9102
       418                         -0.2510062              -6.8302
       ...                                ...                  ...
       741                          0.6545068              17.8100
      -------------------------------------------------------------
                  HL-Gap            0.0591260 Eh            1.6089 eV
             Fermi-level           -0.3342551 Eh           -9.0955 eV

 SCC (total)                   0 d,  0 h,  0 min,  4.234 sec
 SCC setup                      ...        0 min,  0.045 sec (  1.067%)
 Dispersion                     ...        0 min,  0.042 sec (  0.981%)
 integral evaluation            ...        0 min,  0.130 sec (  3.080%)
 zeroth order Hamiltonian       ...        0 min,  0.003 sec (  0.070%)
 iterations                     ...        0 min,  3.367 sec ( 79.528%)
 molecular gradient             ...        0 min,  0.631 sec ( 14.909%)
 printout                       ...        0 min,  0.015 sec (  0.362%)

         :::::::::::::::::::::::::::::::::::::::::::::::::::::
         ::                     SUMMARY                     ::
         :::::::::::::::::::::::::::::::::::::::::::::::::::::
         :: total energy             -470.966346903125 Eh   ::
         :: total w/o Gsasa/hb       -470.906793778678 Eh   ::
         :: gradient norm               0.443361853979 Eh/α ::
         :: HOMO-LUMO gap               1.608900178658 eV   ::
         ::.................................................::
         :: SCC energy               -476.599798733152 Eh   ::
         :: -> isotropic ES             1.807197480183 Eh   ::
         :: -> anisotropic ES          -0.119040770729 Eh   ::
         :: -> anisotropic XC           0.147628627265 Eh   ::
         :: -> dispersion              -0.387024624944 Eh   ::
         :: -> Gsolv                   -0.609772249249 Eh   ::
         ::    -> Gborn                -0.550219124803 Eh   ::
         ::    -> Gsasa                -0.014261080304 Eh   ::
         ::    -> Ghb                  -0.047149487269 Eh   ::
         ::    -> Gshift                0.001857443127 Eh   ::
         :: repulsion energy            5.596083727997 Eh   ::
         :: add. restraining            0.000000000000 Eh   ::
         :::::::::::::::::::::::::::::::::::::::::::::::::::::

           -------------------------------------------------
          |                Property Printout                |
           -------------------------------------------------

    * Orbital Energies and Occupations

         #    Occupation            Energy/Eh            Energy/eV
      -------------------------------------------------------------
         1        2.0000           -0.7496735             -20.3997
       ...           ...                  ...                  ...
       401        2.0000           -0.3979372             -10.8284
       402        2.0000           -0.3979123             -10.8277
       403        2.0000           -0.3970766             -10.8050
       404        2.0000           -0.3964415             -10.7877
       405        2.0000           -0.3921888             -10.6720
       406        2.0000           -0.3907691             -10.6334
       407        2.0000           -0.3839252             -10.4471
       408        2.0000           -0.3741720             -10.1817
       409        2.0000           -0.3704972             -10.0817
       410        2.0000           -0.3669378              -9.9849
       411        2.0000           -0.3650748              -9.9342
       412        2.0000           -0.3649676              -9.9313
       413        2.0000           -0.3646377              -9.9223 (HOMO)
       414                         -0.3055118              -8.3134 (LUMO)
       415                         -0.2971030              -8.0846
       416                         -0.2938742              -7.9967
       417                         -0.2906947              -7.9102
       418                         -0.2510062              -6.8302
       419                         -0.2501044              -6.8057
       420                         -0.2488864              -6.7725
       421                         -0.2400262              -6.5314
       422                         -0.2397550              -6.5241
       423                         -0.2376883              -6.4678
       424                         -0.2375328              -6.4636
       ...                                ...                  ...
       741                          0.6545068              17.8100
      -------------------------------------------------------------
                  HL-Gap            0.0591260 Eh            1.6089 eV
             Fermi-level           -0.3342551 Eh           -9.0955 eV

   #   Z        covCN         q      C6AA      α(0)
   1   7 N      2.633    -0.400    30.386     8.187
   2   6 C      3.784     0.024    20.196     6.401
   3   6 C      2.751     0.276    22.331     7.738
   4   8 O      0.858    -0.482    23.387     6.484
   5   6 C      3.802    -0.079    22.003     6.678
   6   6 C      3.800    -0.073    21.897     6.662
   7   6 C      3.800    -0.094    22.290     6.722
   8   6 C      3.729    -0.050    21.567     6.630
   9   7 N      3.480    -0.149    24.208     7.308
  10   1 H      0.860     0.177     1.233     1.739
  11   1 H      0.924     0.039     2.461     2.453
  12   1 H      0.924     0.065     2.140     2.287
  13   1 H      0.924     0.056     2.242     2.341
  14   1 H      0.924     0.054     2.265     2.354
  15   1 H      0.924     0.040     2.452     2.449
  16   1 H      0.925     0.080     1.980     2.200
  17   1 H      0.925     0.079     1.988     2.205
  18   1 H      0.925     0.114     1.661     2.016
  19   1 H      0.925     0.117     1.636     2.000
  20   1 H      0.859     0.289     0.748     1.355
  21   1 H      0.857     0.300     0.715     1.324
  22   1 H      0.859     0.268     0.816     1.415
  23   7 N      2.691    -0.167    24.618     7.369
  24   6 C      3.793     0.021    20.228     6.405
  25   6 C      2.757     0.274    22.375     7.746
  26   8 O      0.858    -0.457    22.860     6.410
  27   6 C      3.809    -0.081    22.040     6.683
  28   6 C      2.967    -0.001    28.042     8.686
  29   6 C      2.925    -0.038    28.939     8.822
  30   6 C      2.925    -0.043    29.079     8.843
  31   6 C      2.918    -0.056    29.380     8.889
  32   6 C      2.917    -0.074    29.834     8.957
  33   6 C      2.847     0.143    24.875     8.174
  34   8 O      1.660    -0.425    21.342     6.236
  35   1 H      0.860     0.206     1.076     1.625
  36   1 H      0.924     0.066     2.125     2.280
  37   1 H      0.924     0.050     2.321     2.382
  38   1 H      0.924     0.068     2.106     2.270
  39   1 H      0.926     0.029     2.606     2.524
  40   1 H      0.925     0.060     2.194     2.317
  41   1 H      0.926     0.026     2.648     2.545
  42   1 H      0.926     0.051     2.302     2.373
  43   1 H      0.805     0.341     0.611     1.228
  44   7 N      2.690    -0.186    25.041     7.432
  45   6 C      3.801     0.006    20.474     6.442
  46   6 C      2.748     0.273    22.377     7.746
  47   8 O      0.858    -0.459    22.905     6.417
  48   6 C      3.725     0.122    18.684     6.172
  49   8 O      1.656    -0.489    22.654     6.425
  50   6 C      3.753    -0.149    23.435     6.903
  51   1 H      0.860     0.203     1.091     1.636
  52   1 H      0.924     0.099     1.794     2.095
  53   1 H      0.923     0.014     2.830     2.631
  54   1 H      0.805     0.328     0.642     1.259
  55   1 H      0.925     0.065     2.140     2.288
  56   1 H      0.925     0.071     2.077     2.254
  57   1 H      0.925     0.072     2.061     2.245
  58   7 N      2.689    -0.160    24.463     7.346
  59   6 C      3.790     0.010    20.424     6.436
  60   6 C      2.754     0.282    22.217     7.718
  61   8 O      0.858    -0.473    23.189     6.456
  62   6 C      3.757    -0.141    23.262     6.877
  63   1 H      0.860     0.205     1.082     1.629
  64   1 H      0.924     0.091     1.868     2.137
  65   1 H      0.925     0.061     2.182     2.310
  66   1 H      0.925     0.100     1.786     2.090
  67   1 H      0.925     0.084     1.936     2.176
  68   7 N      2.693    -0.199    25.312     7.472
  69   6 C      3.795     0.048    19.771     6.332
  70   6 C      2.760     0.277    22.320     7.737
  71   8 O      0.859    -0.492    23.615     6.515
  72   6 C      3.797    -0.105    22.504     6.755
  73   6 C      2.682     0.379    20.589     7.426
  74   8 O      0.856    -0.668    27.849     7.075
  75   8 O      0.856    -0.641    27.136     6.984
  76   1 H      0.860     0.210     1.056     1.609
  77   1 H      0.924     0.055     2.256     2.349
  78   1 H      0.925     0.046     2.372     2.409
  79   1 H      0.925     0.037     2.492     2.469
  80   7 N      2.686    -0.211    25.601     7.515
  81   6 C      3.794     0.038    19.940     6.359
  82   6 C      2.755     0.273    22.385     7.748
  83   8 O      0.858    -0.469    23.119     6.447
  84   6 C      3.800    -0.103    22.472     6.749
  85   6 C      2.683     0.375    20.654     7.437
  86   8 O      0.856    -0.640    27.120     6.982
  87   8 O      0.856    -0.632    26.913     6.955
  88   1 H      0.859     0.222     1.002     1.568
  89   1 H      0.923     0.034     2.528     2.486
  90   1 H      0.924     0.062     2.172     2.305
  91   1 H      0.925     0.023     2.689     2.564
  92   7 N      2.687    -0.172    24.731     7.386
  93   6 C      3.747    -0.049    21.517     6.617
  94   6 C      2.745     0.279    22.285     7.730
  95   8 O      0.858    -0.477    23.279     6.469
  96   1 H      0.860     0.219     1.013     1.577
  97   1 H      0.925     0.112     1.683     2.029
  98   1 H      0.924     0.117     1.636     2.001
  99   7 N      2.687    -0.160    24.466     7.346
 100   6 C      3.786    -0.018    20.909     6.513
 101   6 C      2.758     0.279    22.282     7.730
 102   8 O      0.858    -0.460    22.920     6.419
 103   6 C      3.723     0.112    18.840     6.198
 104   8 O      1.655    -0.479    22.453     6.397
 105   6 C      3.752    -0.143    23.325     6.887
 106   1 H      0.860     0.243     0.913     1.497
 107   1 H      0.924     0.100     1.784     2.089
 108   1 H      0.924     0.059     2.207     2.323
 109   1 H      0.804     0.328     0.641     1.258
 110   1 H      0.925     0.063     2.160     2.298
 111   1 H      0.925     0.066     2.125     2.280
 112   1 H      0.925     0.053     2.280     2.361
 113   7 N      2.689    -0.172    24.714     7.383
 114   6 C      3.801     0.004    20.514     6.448
 115   6 C      2.753     0.272    22.403     7.751
 116   8 O      0.858    -0.471    23.158     6.452
 117   6 C      3.675     0.063    19.746     6.367
 118   8 O      1.656    -0.474    22.346     6.381
 119   1 H      0.860     0.219     1.013     1.577
 120   1 H      0.924     0.086     1.915     2.164
 121   1 H      0.923     0.068     2.106     2.269
 122   1 H      0.924     0.048     2.342     2.393
 123   1 H      0.805     0.345     0.600     1.217
 124   7 N      2.693    -0.161    24.485     7.349
 125   6 C      3.795     0.005    20.493     6.446
 126   6 C      2.756     0.264    22.539     7.774
 127   8 O      0.858    -0.458    22.868     6.412
 128   6 C      3.805    -0.080    22.027     6.681
 129   6 C      3.803    -0.079    22.009     6.679
 130   6 C      3.802    -0.084    22.100     6.693
 131   6 C      3.733    -0.050    21.567     6.628
 132   7 N      3.482    -0.140    24.030     7.281
 133   1 H      0.860     0.210     1.058     1.611
 134   1 H      0.924     0.090     1.881     2.145
 135   1 H      0.925     0.064     2.155     2.296
 136   1 H      0.925     0.058     2.226     2.333
 137   1 H      0.925     0.061     2.190     2.314
 138   1 H      0.925     0.076     2.016     2.220
 139   1 H      0.924     0.067     2.119     2.276
 140   1 H      0.924     0.056     2.249     2.345
 141   1 H      0.924     0.110     1.693     2.035
 142   1 H      0.924     0.136     1.491     1.909
 143   1 H      0.858     0.292     0.739     1.346
 144   1 H      0.859     0.254     0.869     1.461
 145   1 H      0.859     0.289     0.748     1.355
 146   7 N      2.695    -0.179    24.866     7.406
 147   6 C      3.786     0.003    20.552     6.457
 148   6 C      2.766     0.195    23.836     7.996
 149   8 O      0.856    -0.357    20.834     6.120
 150   6 C      3.725     0.104    18.975     6.220
 151   8 O      1.655    -0.439    21.612     6.276
 152   6 C      3.753    -0.149    23.435     6.903
 153   1 H      0.860     0.215     1.035     1.594
 154   1 H      0.924     0.106     1.735     2.060
 155   1 H      0.924     0.059     2.210     2.325
 156   1 H      0.805     0.338     0.618     1.234
 157   1 H      0.925     0.093     1.850     2.127
 158   1 H      0.925     0.055     2.263     2.353
 159   1 H      0.925     0.081     1.973     2.196
 160   7 N      2.640    -0.389    30.078     8.145
 161   6 C      3.789     0.025    20.163     6.395
 162   6 C      2.762     0.278    22.303     7.734
 163   8 O      0.859    -0.504    23.883     6.552
 164   6 C      3.852    -0.018    20.855     6.495
 165   6 C      3.803    -0.061    21.679     6.629
 166   6 C      3.755    -0.104    22.534     6.769
 167   6 C      3.751    -0.109    22.638     6.785
 168   1 H      0.860     0.150     1.400     1.854
 169   1 H      0.924     0.050     2.322     2.383
 170   1 H      0.924     0.020     2.734     2.586
 171   1 H      0.924     0.049     2.337     2.391
 172   1 H      0.924     0.039     2.459     2.452
 173   1 H      0.925     0.033     2.548     2.496
 174   1 H      0.925     0.011     2.879     2.653
 175   1 H      0.925     0.054     2.266     2.354
 176   1 H      0.925     0.057     2.236     2.338
 177   1 H      0.925     0.029     2.606     2.525
 178   1 H      0.925     0.037     2.483     2.464
 179   7 N      2.688    -0.174    24.765     7.391
 180   6 C      3.742    -0.019    20.990     6.536
 181   6 C      2.763     0.214    23.478     7.935
 182   8 O      0.856    -0.345    20.617     6.088
 183   1 H      0.860     0.228     0.973     1.545
 184   1 H      0.925     0.108     1.716     2.049
 185   1 H      0.924     0.069     2.097     2.264
 186   7 N      2.631    -0.401    30.414     8.191
 187   6 C      3.734    -0.014    20.914     6.527
 188   6 C      2.757     0.270    22.431     7.756
 189   8 O      0.859    -0.503    23.857     6.549
 190   1 H      0.860     0.186     1.178     1.700
 191   1 H      0.924     0.065     2.144     2.290
 192   1 H      0.924     0.071     2.079     2.255
 193   7 N      2.691    -0.172    24.723     7.385
 194   6 C      3.808     0.025    20.143     6.389
 195   6 C      2.760     0.275    22.355     7.743
 196   8 O      0.858    -0.475    23.233     6.462
 197   6 C      3.810    -0.080    22.010     6.678
 198   6 C      3.195     0.049    26.403     8.377
 199   7 N      1.917    -0.291    28.391     7.900
 200   6 C      3.047    -0.029    28.688     8.784
 201   6 C      3.157     0.088    25.752     8.297
 202   7 N      2.805    -0.093    23.059     7.132
 203   1 H      0.860     0.197     1.120     1.658
 204   1 H      0.924     0.078     2.002     2.213
 205   1 H      0.925     0.088     1.900     2.156
 206   1 H      0.924     0.057     2.235     2.338
 207   1 H      0.927     0.027     2.623     2.532
 208   1 H      0.926     0.054     2.266     2.354
 209   1 H      0.860     0.182     1.202     1.718
 210   7 N      2.693    -0.174    24.764     7.391
 211   6 C      3.799     0.018    20.282     6.412
 212   6 C      2.756     0.273    22.378     7.746
 213   8 O      0.858    -0.484    23.433     6.490
 214   6 C      3.812    -0.111    22.618     6.769
 215   6 C      2.745     0.286    22.150     7.706
 216   8 O      0.859    -0.499    23.758     6.535
 217   7 N      2.640    -0.260    26.759     7.683
 218   1 H      0.860     0.203     1.091     1.636
 219   1 H      0.924     0.108     1.711     2.045
 220   1 H      0.925     0.089     1.888     2.149
 221   1 H      0.924     0.093     1.852     2.128
 222   1 H      0.860     0.260     0.846     1.441
 223   1 H      0.860     0.238     0.930     1.511
 224   7 N      2.690    -0.183    24.975     7.422
 225   6 C      3.794     0.044    19.838     6.343
 226   6 C      2.760     0.275    22.350     7.742
 227   8 O      0.859    -0.516    24.132     6.586
 228   6 C      3.814    -0.057    21.593     6.614
 229   6 C      2.969     0.009    27.816     8.651
 230   6 C      2.924    -0.042    29.033     8.836
 231   6 C      2.922    -0.037    28.925     8.820
 232   6 C      2.918    -0.035    28.862     8.810
 233   6 C      2.920    -0.032    28.791     8.799
 234   6 C      2.919    -0.037    28.917     8.818
 235   1 H      0.860     0.220     1.010     1.574
 236   1 H      0.923     0.044     2.394     2.420
 237   1 H      0.924     0.064     2.156     2.296
 238   1 H      0.924     0.023     2.686     2.563
 239   1 H      0.926     0.050     2.321     2.382
 240   1 H      0.925     0.013     2.845     2.638
 241   1 H      0.926     0.054     2.270     2.356
 242   1 H      0.926     0.032     2.559     2.502
 243   1 H      0.926     0.051     2.305     2.374
 244   7 N      2.690    -0.187    25.058     7.435
 245   6 C      3.801     0.023    20.188     6.397
 246   6 C      2.755     0.274    22.360     7.743
 247   8 O      0.858    -0.503    23.853     6.548
 248   6 C      3.803    -0.102    22.449     6.745
 249   6 C      3.802    -0.073    21.891     6.661
 250   6 C      3.801    -0.099    22.395     6.738
 251   6 C      3.729    -0.060    21.759     6.659
 252   7 N      3.482    -0.140    24.028     7.280
 253   1 H      0.860     0.230     0.965     1.539
 254   1 H      0.924     0.059     2.206     2.323
 255   1 H      0.924     0.081     1.970     2.195
 256   1 H      0.924     0.095     1.828     2.114
 257   1 H      0.924     0.042     2.417     2.431
 258   1 H      0.924     0.047     2.352     2.398
 259   1 H      0.925     0.096     1.825     2.113
 260   1 H      0.925     0.091     1.871     2.139
 261   1 H      0.925     0.139     1.471     1.897
 262   1 H      0.925     0.111     1.687     2.031
 263   1 H      0.859     0.308     0.691     1.302
 264   1 H      0.859     0.276     0.790     1.392
 265   1 H      0.859     0.306     0.696     1.307
 266   7 N      2.690    -0.182    24.940     7.417
 267   6 C      3.791     0.031    20.070     6.380
 268   6 C      2.765     0.210    23.553     7.948
 269   8 O      0.856    -0.368    21.061     6.153
 270   6 C      3.758    -0.135    23.155     6.860
 271   1 H      0.860     0.234     0.947     1.525
 272   1 H      0.924     0.093     1.853     2.129
 273   1 H      0.925     0.076     2.017     2.221
 274   1 H      0.925     0.102     1.764     2.077
 275   1 H      0.925     0.067     2.114     2.274
 276   7 N      2.702    -0.281    27.253     7.753
 277   6 C      3.811     0.040    19.900     6.350
 278   6 C      2.764     0.199    23.764     7.983
 279   8 O      0.856    -0.398    21.636     6.236
 280   6 C      3.832    -0.049    21.424     6.585
 281   6 C      3.828    -0.065    21.723     6.632
 282   6 C      3.764     0.017    20.333     6.427
 283   1 H      0.924     0.040     2.443     2.444
 284   1 H      0.925     0.026     2.644     2.543
 285   1 H      0.925     0.050     2.322     2.383
 286   1 H      0.925     0.052     2.295     2.369
 287   1 H      0.925     0.052     2.292     2.368
 288   1 H      0.924     0.052     2.294     2.368
 289   1 H      0.924     0.022     2.703     2.571
 290   1 H      0.862     0.166     1.297     1.784
 291   1 H      0.930     0.092     1.863     2.134
 292   1 H      0.862     0.196     1.127     1.663
 293   1 H      0.930     0.074     2.045     2.236
 294   1 H      0.862     0.167     1.291     1.780
 295   1 H      0.930     0.054     2.270     2.356
 296   1 H      0.862     0.155     1.366     1.830
 297   1 H      0.930     0.080     1.977     2.199

 Mol. C6AA /au·bohr⁶  :     829084.284124
 Mol. C8AA /au·bohr⁸  :   18516405.260173
 Mol. α(0) /au        :       1364.490921


Wiberg/Mayer (AO) data.
largest (>0.10) Wiberg bond orders for each atom
          total WBO             WBO to atom ...
     1  N   2.973        C    2 1.003    H  290 0.960    H   10 0.949
     2  C   3.981        N    1 1.003    C    5 0.995    H   11 0.948    C    3 0.930
     3  C   3.930        O    4 1.647    N   23 1.284    C    2 0.930
     4  O   1.983        C    3 1.647    N   23 0.191
     5  C   3.989        C    6 1.007    C    2 0.995    H   13 0.971    H   12 0.965
     6  C   3.993        C    7 1.008    C    5 1.007    H   15 0.975    H   14 0.974
     7  C   3.988        C    8 1.010    C    6 1.008    H   16 0.968    H   17 0.961
     8  C   3.918        C    7 1.010    H   19 0.966    H   18 0.965    N    9 0.956
     9  N   3.659        C    8 0.956    H   22 0.905    H   20 0.903    H   21 0.836
    10  H   0.968        N    1 0.949
    11  H   0.998        C    2 0.948
    12  H   0.995        C    5 0.965
    13  H   0.997        C    5 0.971
    14  H   0.997        C    6 0.974
    15  H   0.998        C    6 0.975
    16  H   0.993        C    7 0.968
    17  H   0.994        C    7 0.961
    18  H   0.987        C    8 0.965
    19  H   0.986        C    8 0.966
    20  H   0.917        N    9 0.903
    21  H   0.910        N    9 0.836
    22  H   0.928        N    9 0.905
    23  N   3.464        C    3 1.284    C   24 0.995    H   35 0.921    O    4 0.191
    24  C   3.973        N   23 0.995    C   27 0.964    H   36 0.938    C   25 0.931
    25  C   3.950        O   26 1.658    N   44 1.281    C   24 0.931
    26  O   1.979        C   25 1.658    N   44 0.196
    27  C   3.991        C   28 1.013    H   38 0.966    H   37 0.966    C   24 0.964
    28  C   3.988        C   30 1.410    C   29 1.400    C   27 1.013
    29  C   3.991        C   31 1.462    C   28 1.400    H   39 0.966    C   32 0.105
    30  C   3.989        C   32 1.446    C   28 1.410    H   40 0.965    C   31 0.107
    31  C   3.990        C   29 1.462    C   33 1.362    H   41 0.968    C   30 0.107
    32  C   3.985        C   30 1.446    C   33 1.372    H   42 0.964    C   29 0.105
    33  C   3.938        C   32 1.372    C   31 1.362    O   34 1.072
    34  O   2.103        C   33 1.072    H   43 0.862
    35  H   0.957        N   23 0.921
    36  H   0.995        C   24 0.938
    37  H   0.996        C   27 0.966
    38  H   0.995        C   27 0.966
    39  H   0.999        C   29 0.966
    40  H   0.996        C   30 0.965
    41  H   0.999        C   31 0.968
    42  H   0.997        C   32 0.964
    43  H   0.884        O   34 0.862
    44  N   3.459        C   25 1.281    C   45 0.979    H   51 0.901    O   26 0.196
    45  C   3.960        N   44 0.979    C   48 0.966    H   52 0.943    C   46 0.930
    46  C   3.949        O   47 1.651    N   58 1.290    C   45 0.930
    47  O   1.988        C   46 1.651    N   58 0.196
    48  C   3.951        C   50 0.999    O   49 0.984    C   45 0.966    H   53 0.960
    49  O   1.929        C   48 0.984    H   54 0.876
    50  C   3.987        C   48 0.999    H   57 0.983    H   55 0.982    H   56 0.980
    51  H   0.959        N   44 0.901
    52  H   0.990        C   45 0.943
    53  H   1.000        C   48 0.960
    54  H   0.892        O   49 0.876
    55  H   0.995        C   50 0.982
    56  H   0.995        C   50 0.980
    57  H   0.995        C   50 0.983
    58  N   3.468        C   46 1.290    C   59 0.985    H   63 0.926    O   47 0.196
    59  C   3.961        N   58 0.985    C   62 0.975    H   64 0.936    C   60 0.935
    60  C   3.930        O   61 1.661    N   68 1.249    C   59 0.935
    61  O   1.995        C   60 1.661    N   68 0.182
    62  C   3.974        H   65 0.980    H   67 0.977    H   66 0.976    C   59 0.975
    63  H   0.958        N   58 0.926
    64  H   0.991        C   59 0.936
    65  H   0.996        C   62 0.980
    66  H   0.990        C   62 0.976
    67  H   0.993        C   62 0.977
    68  N   3.423        C   60 1.249    C   69 0.971    H   76 0.924    O   61 0.182
    69  C   3.970        C   72 0.999    N   68 0.971    H   77 0.939    C   70 0.938
    70  C   3.945        O   71 1.579    N   80 1.328    C   69 0.938
    71  O   1.935        C   70 1.579    N   80 0.180
    72  C   3.990        C   69 0.999    H   78 0.970    H   79 0.962    C   73 0.898
    73  C   3.925        O   75 1.515    O   74 1.489    C   72 0.898
    74  O   1.788        C   73 1.489    O   75 0.213
    75  O   1.807        C   73 1.515    O   74 0.213
    76  H   0.956        N   68 0.924
    77  H   0.996        C   69 0.939
    78  H   0.998        C   72 0.970
    79  H   0.998        C   72 0.962
    80  N   3.440        C   70 1.328    C   81 0.968    H   88 0.846    O   71 0.180
    81  C   3.963        C   84 0.994    N   80 0.968    H   89 0.953    C   82 0.917
    82  C   3.957        O   83 1.656    N   92 1.306    C   81 0.917
    83  O   1.979        C   82 1.656    N   92 0.202
    84  C   3.990        C   81 0.994    H   91 0.981    H   90 0.959    C   85 0.920
    85  C   3.926        O   86 1.534    O   87 1.443    C   84 0.920
    86  O   1.821        C   85 1.534    O   87 0.205
    87  O   1.821        C   85 1.443    O   86 0.205
    88  H   0.951        N   80 0.846
    89  H   0.999        C   81 0.953
    90  H   0.996        C   84 0.959
    91  H   0.999        C   84 0.981
    92  N   3.462        C   82 1.306    C   93 0.992    H   96 0.885    O   83 0.202
    93  C   3.950        N   92 0.992    H   97 0.957    C   94 0.945    H   98 0.938
    94  C   3.951        O   95 1.604    N   99 1.317    C   93 0.945
    95  O   2.008        C   94 1.604    N   99 0.194
    96  H   0.952        N   92 0.885
    97  H   0.987        C   93 0.957
    98  H   0.986        C   93 0.938
    99  N   3.478        C   94 1.317    C  100 0.980    H  106 0.915    O   95 0.194
   100  C   3.960        N   99 0.980    H  107 0.954    C  101 0.939    C  103 0.936
   101  C   3.950        O  102 1.657    N  113 1.275    C  100 0.939
   102  O   1.994        C  101 1.657    N  113 0.193
   103  C   3.958        O  104 1.006    C  105 0.996    H  108 0.959    C  100 0.936
   104  O   1.953        C  103 1.006    H  109 0.841
   105  C   3.989        C  103 0.996    H  112 0.983    H  111 0.983    H  110 0.982
   106  H   0.941        N   99 0.915
   107  H   0.989        C  100 0.954
   108  H   0.996        C  103 0.959
   109  H   0.892        O  104 0.841
   110  H   0.995        C  105 0.982
   111  H   0.995        C  105 0.983
   112  H   0.997        C  105 0.983
   113  N   3.450        C  101 1.275    C  114 0.993    H  119 0.919    O  102 0.193
   114  C   3.966        N  113 0.993    C  117 0.971    H  120 0.940    C  115 0.927
   115  C   3.953        O  116 1.649    N  124 1.300    C  114 0.927
   116  O   1.973        C  115 1.649    N  124 0.203
   117  C   3.954        O  118 1.004    H  122 0.971    C  114 0.971    H  121 0.962
   118  O   1.935        C  117 1.004    H  123 0.866
   119  H   0.952        N  113 0.919
   120  H   0.992        C  114 0.940
   121  H   0.995        C  117 0.962
   122  H   0.997        C  117 0.971
   123  H   0.880        O  118 0.866
   124  N   3.478        C  115 1.300    C  125 0.989    H  133 0.915    O  116 0.203
   125  C   3.967        N  124 0.989    C  128 0.965    H  134 0.945    C  126 0.943
   126  C   3.953        O  127 1.662    N  146 1.277    C  125 0.943
   127  O   1.992        C  126 1.662    N  146 0.198
   128  C   3.987        C  129 1.000    H  136 0.972    H  135 0.970    C  125 0.965
   129  C   3.989        C  130 1.004    C  128 1.000    H  137 0.976    H  138 0.970
   130  C   3.988        C  131 1.010    C  129 1.004    H  140 0.973    H  139 0.971
   131  C   3.896        C  130 1.010    H  141 0.966    H  142 0.954    N  132 0.942
   132  N   3.663        C  131 0.942    H  144 0.917    H  145 0.902    H  143 0.859
   133  H   0.956        N  124 0.915
   134  H   0.992        C  125 0.945
   135  H   0.996        C  128 0.970
   136  H   0.996        C  128 0.972
   137  H   0.996        C  129 0.976
   138  H   0.994        C  129 0.970
   139  H   0.995        C  130 0.971
   140  H   0.997        C  130 0.973
   141  H   0.987        C  131 0.966
   142  H   0.981        C  131 0.954
   143  H   0.915        N  132 0.859
   144  H   0.936        N  132 0.917
   145  H   0.916        N  132 0.902
   146  N   3.452        C  126 1.277    C  147 0.985    H  153 0.916    O  127 0.198
   147  C   3.960        N  146 0.985    C  148 0.975    H  154 0.945    C  150 0.925
   148  C   3.899        O  149 1.906    C  147 0.975    H  291 0.951
   149  O   2.060        C  148 1.906
   150  C   3.950        C  152 1.007    O  151 0.988    H  155 0.957    C  147 0.925
   151  O   2.012        C  150 0.988    H  156 0.865
   152  C   3.982        C  150 1.007    H  159 0.981    H  158 0.977    H  157 0.976
   153  H   0.954        N  146 0.916
   154  H   0.989        C  147 0.945
   155  H   0.996        C  150 0.957
   156  H   0.886        O  151 0.865
   157  H   0.991        C  152 0.976
   158  H   0.997        C  152 0.977
   159  H   0.993        C  152 0.981
   160  N   2.993        C  161 1.014    H  168 0.959    H  292 0.936
   161  C   3.984        N  160 1.014    H  169 0.959    C  164 0.956    C  162 0.942
   162  C   3.934        O  163 1.642    N  179 1.283    C  161 0.942
   163  O   1.953        C  162 1.642    N  179 0.191
   164  C   3.992        C  166 1.008    C  165 0.995    H  170 0.968    C  161 0.956
   165  C   3.995        C  167 1.018    C  164 0.995    H  171 0.976    H  172 0.967
   166  C   3.994        C  164 1.008    H  174 0.985    H  173 0.983    H  175 0.983
   167  C   3.994        C  165 1.018    H  177 0.987    H  176 0.985    H  178 0.984
   168  H   0.977        N  160 0.959
   169  H   0.998        C  161 0.959
   170  H   1.000        C  164 0.968
   171  H   0.998        C  165 0.976
   172  H   0.998        C  165 0.967
   173  H   0.999        C  166 0.983
   174  H   1.000        C  166 0.985
   175  H   0.997        C  166 0.983
   176  H   0.996        C  167 0.985
   177  H   0.999        C  167 0.987
   178  H   0.999        C  167 0.984
   179  N   3.457        C  162 1.283    C  180 0.984    H  183 0.920    O  163 0.191
   180  C   3.968        N  179 0.984    C  181 0.973    H  185 0.969    H  184 0.954
   181  C   3.901        O  182 1.919    C  180 0.973    H  293 0.955
   182  O   2.053        C  181 1.919
   183  H   0.948        N  179 0.920
   184  H   0.988        C  180 0.954
   185  H   0.995        C  180 0.969
   186  N   2.985        C  187 1.029    H  294 0.940    H  190 0.928
   187  C   3.985        N  186 1.029    C  188 0.966    H  192 0.954    H  191 0.946
   188  C   3.942        O  189 1.627    N  193 1.280    C  187 0.966
   189  O   1.932        C  188 1.627    N  193 0.184
   190  H   0.965        N  186 0.928
   191  H   0.996        C  187 0.946
   192  H   0.995        C  187 0.954
   193  N   3.454        C  188 1.280    C  194 0.983    H  203 0.910    O  189 0.184
   194  C   3.971        N  193 0.983    C  197 0.964    H  204 0.951    C  195 0.938
   195  C   3.947        O  196 1.623    N  210 1.297    C  194 0.938
   196  O   1.969        C  195 1.623    N  210 0.190
   197  C   3.989        C  198 1.012    H  206 0.971    C  194 0.964    H  205 0.961
   198  C   3.972        C  200 1.553    N  199 1.273    C  197 1.012
   199  N   3.012        C  201 1.544    C  198 1.273    N  202 0.104
   200  C   3.940        C  198 1.553    N  202 1.218    H  207 0.964    C  201 0.116
   201  C   3.953        N  199 1.544    N  202 1.270    H  208 0.964    C  200 0.116
   202  N   3.601        C  201 1.270    C  200 1.218    H  209 0.937    N  199 0.104
   203  H   0.961        N  193 0.910
   204  H   0.994        C  194 0.951
   205  H   0.992        C  197 0.961
   206  H   0.997        C  197 0.971
   207  H   0.999        C  200 0.964
   208  H   0.997        C  201 0.964
   209  H   0.967        N  202 0.937
   210  N   3.472        C  195 1.297    C  211 0.971    H  218 0.925    O  196 0.190
   211  C   3.952        C  214 0.982    N  210 0.971    H  219 0.934    C  212 0.927
   212  C   3.942        O  213 1.636    N  224 1.290    C  211 0.927
   213  O   1.954        C  212 1.636    N  224 0.197
   214  C   3.985        C  211 0.982    C  215 0.975    H  220 0.965    H  221 0.943
   215  C   3.953        O  216 1.587    N  217 1.355    C  214 0.975
   216  O   1.956        C  215 1.587    N  217 0.197
   217  N   3.429        C  215 1.355    H  223 0.925    H  222 0.911    O  216 0.197
   218  H   0.959        N  210 0.925
   219  H   0.988        C  211 0.934
   220  H   0.991        C  214 0.965
   221  H   0.991        C  214 0.943
   222  H   0.932        N  217 0.911
   223  H   0.943        N  217 0.925
   224  N   3.474        C  212 1.290    C  225 0.992    H  235 0.914    O  213 0.197
   225  C   3.974        N  224 0.992    C  228 0.967    H  236 0.945    C  226 0.929
   226  C   3.947        O  227 1.622    N  244 1.313    C  225 0.929
   227  O   1.950        C  226 1.622    N  244 0.195
   228  C   3.987        C  229 1.007    C  225 0.967    H  238 0.966    H  237 0.949
   229  C   3.986        C  230 1.410    C  231 1.409    C  228 1.007    C  234 0.110
   230  C   3.988        C  232 1.441    C  229 1.410    H  239 0.963    C  233 0.111
   231  C   3.991        C  233 1.446    C  229 1.409    H  240 0.969    C  232 0.112
   232  C   3.990        C  230 1.441    C  234 1.440    H  241 0.968    C  231 0.112
   233  C   3.991        C  231 1.446    C  234 1.435    H  242 0.971    C  230 0.111
   234  C   3.989        C  232 1.440    C  233 1.435    H  243 0.969    C  229 0.110
   235  H   0.952        N  224 0.914
   236  H   0.998        C  225 0.945
   237  H   0.996        C  228 0.949
   238  H   0.999        C  228 0.966
   239  H   0.997        C  230 0.963
   240  H   1.000        C  231 0.969
   241  H   0.997        C  232 0.968
   242  H   0.999        C  233 0.971
   243  H   0.997        C  234 0.969
   244  N   3.459        C  226 1.313    C  245 0.966    H  253 0.891    O  227 0.195
   245  C   3.947        C  248 0.976    N  244 0.966    H  254 0.959    C  246 0.926
   246  C   3.943        O  247 1.644    N  266 1.296    C  245 0.926
   247  O   1.961        C  246 1.644    N  266 0.198
   248  C   3.974        C  249 1.002    C  245 0.976    H  255 0.968    H  256 0.960
   249  C   3.988        C  250 1.007    C  248 1.002    H  258 0.976    H  257 0.974
   250  C   3.983        C  251 1.012    C  249 1.007    H  260 0.966    H  259 0.964
   251  C   3.916        C  250 1.012    H  262 0.964    H  261 0.961    N  252 0.957
   252  N   3.668        C  251 0.957    H  264 0.901    H  263 0.892    H  265 0.891
   253  H   0.947        N  244 0.891
   254  H   0.996        C  245 0.959
   255  H   0.993        C  248 0.968
   256  H   0.991        C  248 0.960
   257  H   0.998        C  249 0.974
   258  H   0.998        C  249 0.976
   259  H   0.991        C  250 0.964
   260  H   0.991        C  250 0.966
   261  H   0.981        C  251 0.961
   262  H   0.988        C  251 0.964
   263  H   0.905        N  252 0.892
   264  H   0.924        N  252 0.901
   265  H   0.906        N  252 0.891
   266  N   3.457        C  246 1.296    C  267 0.982    H  271 0.883    O  247 0.198
   267  C   3.965        N  266 0.982    C  270 0.979    C  268 0.968    H  272 0.948
   268  C   3.896        O  269 1.900    C  267 0.968    H  295 0.955
   269  O   2.041        C  268 1.900
   270  C   3.976        H  275 0.981    H  273 0.980    C  267 0.979    H  274 0.972
   271  H   0.945        N  266 0.883
   272  H   0.991        C  267 0.948
   273  H   0.994        C  270 0.980
   274  H   0.990        C  270 0.972
   275  H   0.995        C  270 0.981
   276  N   3.058        C  282 1.000    C  277 0.998    H  296 0.959
   277  C   3.986        N  276 0.998    C  278 0.987    H  283 0.955    C  280 0.952
   278  C   3.888        O  279 1.876    C  277 0.987    H  297 0.952
   279  O   2.017        C  278 1.876
   280  C   3.994        C  281 1.006    H  284 0.978    H  285 0.973    C  277 0.952
   281  C   3.995        C  282 1.006    C  280 1.006    H  286 0.979    H  287 0.976
   282  C   3.983        C  281 1.006    N  276 1.000    H  289 0.974    H  288 0.972
   283  H   0.998        C  277 0.955
   284  H   0.999        C  280 0.978
   285  H   0.997        C  280 0.973
   286  H   0.997        C  281 0.979
   287  H   0.996        C  281 0.976
   288  H   0.997        C  282 0.972
   289  H   0.999        C  282 0.974
   290  H   0.972        N    1 0.960
   291  H   0.991        C  148 0.951
   292  H   0.961        N  160 0.936
   293  H   0.995        C  181 0.955
   294  H   0.972        N  186 0.940
   295  H   0.997        C  268 0.955
   296  H   0.976        N  276 0.959
   297  H   0.993        C  278 0.952
 
molecular dipole:
                 x           y           z       tot (Debye)
 q only:      356.715     137.384     251.614
   full:      355.839     135.718     250.456    1158.596
molecular quadrupole (traceless):
                xx          xy          yy          xz          yz          zz
 q only:    86205.137   72352.971  -76758.716  133247.656   50455.135   -9446.421
  q+dip:    86083.916   71398.585  -76583.777  132409.386   49711.548   -9500.138
   full:    86078.953   71399.659  -76580.606  132407.700   49712.799   -9498.348


           -------------------------------------------------
          | TOTAL ENERGY             -470.966346903125 Eh   |
          | GRADIENT NORM               0.443361853979 Eh/α |
          | HOMO-LUMO GAP               1.608900178658 eV   |
           -------------------------------------------------

------------------------------------------------------------------------
 * finished run on 2019/05/31 at 05:35:10.110     
------------------------------------------------------------------------
 total:
 * wall-time:     0 d,  0 h,  0 min,  4.763 sec
 *  cpu-time:     0 d,  0 h,  0 min,  8.281 sec
 * ratio c/w:     1.739 speedup
 SCF:
 * wall-time:     0 d,  0 h,  0 min,  4.234 sec
 *  cpu-time:     0 d,  0 h,  0 min,  7.692 sec
 * ratio c/w:     1.817 speedup

