      -----------------------------------------------------------      
     |                   =====================                   |     
     |                           x T B                           |     
     |                   =====================                   |     
     |                         S. Grimme                         |     
     |          Mulliken Center for Theoretical Chemistry        |     
     |                    University of Bonn                     |     
     |                Version 6.1 RC1 (SAW190329)                |     
      -----------------------------------------------------------      

   This program is distributed in the hope that it will be useful,
   but WITHOUT ANY WARRANTY; without even the implied warranty of
   MERCHANTABILITY or FITNESS FOR A PARTICULAR PURPOSE.
   
   FOR NON-COMMERCIAL, ACADEMIA USE ONLY.
   
   Cite this work as:
   S. Grimme, C. Bannwarth, P. Shushkov, J. Comput. Theory Chem., 2017,
   13, 1989-2009. DOI: 10.1021/acs.jctc.7b00118
   C. Bannwarth, S. Ehlert and S. Grimme., J. Comput. Theory Chem., 2019,
   just accepted. DOI: 10.1021/acs.jctc.8b01176
   
   for sTDA-xTB:
   S. Grimme and C. Bannwarth, J. Chem. Phys., 2016, 145, 054103.
   DOI: 10.1063/1.4959605
   
   in the mass-spec context:
   V. Asgeirsson, C. Bauer and S. Grimme, Chem. Sci., 2017, 8, 4879.
   DOI: 10.1039/c7sc00601b
   
   for metadynamics refer to:
   S. Grimme, ChemRxiv, Preprint. DOI: 10.26434/chemrxiv.7660532.v1
   
   with help from (in alphabetical order)
   C. Bannwarth, F. Bohle, G. Brandenburg, E. Caldeweyher, M. Checinski,
   S. Dohm, S. Ehlert, S. Ehrlich, F. März, H. Neugebauer, J. Pisarek,
   P. Pracht, P. Shushkov, and S. Spicher.
   
 * started run on 2019/05/31 at 06:33:06.699     

           -------------------------------------------------
          |                Calculation Setup                |
           -------------------------------------------------

          program call               : /home/lum/qr/xtb-190329/bin/xtb xtb_tmp.xyz --chrg 2 --grad --gfn 2 --etemp 500 --acc 0.1 --gbsa h2o --parallel 2
          hostname                   : cu39
          coordinate file            : xtb_tmp.xyz
          omp threads                :                     2
          number of atoms            :                   480
          number of electrons        :                  1270
          charge                     :                     2
          spin                       :                   0.0
          first test random number   :      0.30599167244941


molecular fragmentation (1/2 indicates fragments):
111111111111111111122222222222222222222222222222222222222222222222222222
222222222222222222222222222222222222222222222222222222222222222222222222
222222222222222222222222222222222222222222222222222222222222222222222222
222222222222222222222222222222222222222222222222222222222222222222222222
222222222222222222222222222222222222222222222222222222222222222222222222
222222222222222222222222222222222222222222222222222222222222222222222222
222222222222222222222222222222221122222222222222
# atoms in fragment 1/2:    21   459
 fragment masses (1/2) :      115.17     3077.69
CMA distance (Bohr)    :  17.910
constraining FC (au)   :  0.0500

########################################################################
# WARNING! Please study the warnings concerning your input carefully
#  - XTBPATH is not set, using XTBHOME instead
#  - Process number higher than OMP_NUM_THREADS, I hope you know what you are doing.
########################################################################

           ------------------------------------------------- 
          |                 G F N 2 - x T B                 |
          | Geometry, Frequencies, Noncovalent interactions |
          |            JCTC 2018 parametrisation            |
           ------------------------------------------------- 
 
             k(s)              :                1.8500
             k(p)              :                2.2300
             k(d)              :                2.2300
             k(f)              :                2.0000
             kEN (H0ij)        :               -2.0000
             D4 a1             :                0.5200
             D4 a2             :                5.0000
             D4 s6             :                1.0000
             D4 s8             :                2.7000
             D4 s9             :                5.0000
             alphaj            :                2.0000

  Z AO/shell   Hii/eV     exponent
  1     Wed Apr 25 08:07:45 CEST 2018   EN: 2.200 GM2: 0.406  GM3: 0.0800  RAES: 1.40
     1s    -10.707211    1.230000
  6     Wed Apr 25 08:07:45 CEST 2018   EN: 2.550 GM2: 0.538  GM3: 0.1500  RAES: 3.00
     2s    -13.970922    2.096432
     2p    -10.063292    1.800000
  7     Wed Apr 25 08:07:45 CEST 2018   EN: 3.040 GM2: 0.461  GM3:-0.0640  RAES: 1.90
     2s    -16.686243    2.339881
     2p    -12.523956    2.014332
  8     Wed Apr 25 08:07:45 CEST 2018   EN: 3.440 GM2: 0.452  GM3:-0.0517  RAES: 1.80
     2s    -20.229985    2.439742
     2p    -15.503117    2.137023

 Solvent             : h2o
 Using internal parameter file: .param_gbsa2_h2o
 Gsolv ref. state (COSMO-RS): gsolv [1 M gas/solution]
 temperature (mdtemp)       :    298.150000000000     
 dielectric constant        :    80.2000000000000     
 rho                        :    1.00000000000000     
 mass                       :    18.0000000000000     
 surface tension            :    15.5689454083859     
 probe radius               :   0.975313790000000     
 vdW radii scaling          :    1.00000000000000     
 Gshift (Eh)                :   1.857443126794793E-003
 c1                         :    1.55243817000000     
 soset                      :   0.130326360000000     
 HB correction              :  T
 Number of grid points      :          230

            Z     q(EN)     CN     RAES       Cart. coordinates
     1  N   5.0   -0.67    3.01    1.93    85.26765    92.09961   122.69556
     2  C   4.0    0.07    3.98    3.59    85.24397    89.82084   124.21185
     3  C   4.0    0.09    3.00    3.02    83.54659    90.37182   126.47919
     4  O   6.0   -0.36    1.00    1.80    83.88538    92.29704   127.75512
     5  C   4.0   -0.14    3.99    3.60    87.92833    89.16724   125.07395
     6  C   4.0   -0.10    3.98    3.58    88.10284    86.69584   126.57660
     7  C   4.0   -0.23    3.98    3.59    87.11468    84.46559   125.03302
     8  C   4.0   -0.24    3.98    3.59    90.85599    86.22333   127.32325
     9  H   1.0    0.29    1.00    1.43    86.09640    93.63034   123.49813
    10  H   1.0    0.13    0.99    1.43    84.40824    88.32497   123.06412
    11  H   1.0    0.10    0.99    1.43    89.12419    89.05457   123.39713
    12  H   1.0    0.12    0.99    1.43    88.61223    90.74049   126.22378
    13  H   1.0    0.12    0.99    1.43    86.96154    86.88802   128.29501
    14  H   1.0    0.09    0.99    1.43    87.64287    82.70697   125.94760
    15  H   1.0    0.12    0.99    1.43    85.06734    84.50100   124.88175
    16  H   1.0    0.09    0.99    1.43    87.92544    84.52281   123.14717
    17  H   1.0    0.09    0.99    1.43    91.00715    84.54572   128.49916
    18  H   1.0    0.09    0.99    1.43    92.00498    85.96139   125.64106
    19  H   1.0    0.10    0.99    1.43    91.59950    87.81829   128.38094
    20  N   5.0   -0.70    3.01    1.93   101.17204    81.96744   140.38736
    21  C   4.0    0.07    3.99    3.60   103.37844    83.18807   139.33445
    22  C   4.0    0.28    3.01    3.02   102.71352    83.80449   136.58249
    23  O   6.0   -0.45    1.00    1.80   101.80370    82.18147   135.19582
    24  C   4.0   -0.13    3.99    3.60   105.65635    81.38954   139.43873
    25  C   4.0   -0.04    3.03    3.02   106.34018    80.79891   142.12669
    26  C   4.0   -0.11    3.03    3.02   105.26493    78.77528   143.40417
    27  C   4.0   -0.10    3.03    3.02   108.03303    82.34761   143.40530
    28  C   4.0   -0.10    3.03    3.02   105.91664    78.27833   145.89190
    29  C   4.0   -0.06    3.03    3.02   108.71244    81.85922   145.87136
    30  C   4.0    0.11    3.03    3.02   107.63937    79.82016   147.14611
    31  O   6.0   -0.44    1.99    1.83   108.35441    79.39220   149.56649
    32  H   1.0    0.33    1.00    1.43   100.55369    80.43817   139.40048
    33  H   1.0    0.12    0.99    1.43   103.78484    84.91024   140.39850
    34  H   1.0    0.12    0.99    1.43   105.13208    79.67985   138.41700
    35  H   1.0    0.11    0.99    1.43   107.22787    82.30139   138.47046
    36  H   1.0    0.12    1.00    1.43   103.88842    77.60820   142.45171
    37  H   1.0    0.12    1.00    1.43   108.79737    83.97899   142.45567
    38  H   1.0    0.12    1.00    1.43   105.06017    76.72021   146.89147
    39  H   1.0    0.14    1.00    1.43   110.01651    83.07850   146.85497
    40  H   1.0    0.25    0.99    1.43   107.22940    78.17357   150.37122
    41  N   5.0   -0.49    3.01    1.93   103.10433    86.19952   135.90120
    42  C   4.0    0.07    3.99    3.61   102.32053    87.27077   133.49847
    43  C   4.0    0.27    3.01    3.02   104.51326    88.93496   132.60697
    44  O   6.0   -0.40    1.00    1.80   104.91123    91.00232   133.55992
    45  C   4.0   -0.07    3.98    3.58    99.89191    88.85862   133.84225
    46  C   4.0   -0.15    3.98    3.58    97.68394    87.26875   134.87877
    47  C   4.0   -0.23    3.98    3.59    99.15439    90.10263   131.34837
    48  C   4.0   -0.22    3.98    3.58    96.51514    88.42146   137.24658
    49  H   1.0    0.25    1.00    1.43   104.05941    87.36212   137.07987
    50  H   1.0    0.14    0.99    1.43   101.99228    85.71754   132.17559
    51  H   1.0    0.14    0.99    1.43   100.34587    90.34244   135.20832
    52  H   1.0    0.10    0.99    1.43    96.22660    87.11436   133.42793
    53  H   1.0    0.14    0.99    1.43    98.33476    85.36118   135.30398
    54  H   1.0    0.10    0.99    1.43    97.55742    91.35825   131.64417
    55  H   1.0    0.11    0.99    1.43   100.70998    91.19180   130.57115
    56  H   1.0    0.09    0.99    1.43    98.62004    88.68147   129.96561
    57  H   1.0    0.11    0.99    1.43    94.91636    87.29227   137.87250
    58  H   1.0    0.12    0.99    1.43    97.88812    88.49649   138.77683
    59  H   1.0    0.11    0.99    1.43    95.85130    90.33153   136.87276
    60  N   5.0   -0.48    3.01    1.93   105.93414    87.96102   130.75471
    61  C   4.0    0.10    3.99    3.61   108.18765    89.21898   129.84658
    62  C   4.0    0.25    3.02    3.02   108.26432    89.04179   126.97027
    63  O   6.0   -0.46    1.00    1.80   107.89457    87.00221   125.91691
    64  C   4.0    0.05    3.98    3.58   110.59122    87.97822   130.94802
    65  O   6.0   -0.44    1.99    1.83   110.42058    88.17765   133.59789
    66  C   4.0   -0.20    3.98    3.59   112.95379    89.28397   129.91632
    67  H   1.0    0.28    1.00    1.43   105.61245    86.18447   130.11178
    68  H   1.0    0.15    0.99    1.43   108.08750    91.18555   130.47759
    69  H   1.0    0.13    0.99    1.43   110.59431    85.96674   130.39306
    70  H   1.0    0.25    0.99    1.43   111.86080    87.34628   134.34662
    71  H   1.0    0.12    0.99    1.43   114.64031    88.54730   130.82975
    72  H   1.0    0.13    0.99    1.43   113.11707    88.97011   127.89305
    73  H   1.0    0.13    0.99    1.43   112.84596    91.30779   130.25306
    74  N   5.0   -0.48    3.01    1.93   108.73750    91.17068   125.72091
    75  C   4.0    0.08    3.99    3.61   108.83759    91.21070   122.98815
    76  C   4.0    0.08    3.00    3.02   111.13103    92.67971   122.06625
    77  O   6.0   -0.36    1.00    1.80   112.39895    94.01026   123.47304
    78  C   4.0   -0.12    3.98    3.59   106.37102    92.33015   121.89964
    79  C   4.0   -0.01    3.12    3.03   105.93310    95.01866   122.60760
    80  C   4.0    0.04    3.21    3.04   106.48066    97.11423   121.20445
    81  C   4.0    0.02    3.18    3.03   104.72715    95.89190   124.86056
    82  N   5.0   -0.46    3.11    1.94   105.69731    99.24108   122.44593
    83  C   4.0    0.13    3.22    3.04   104.59040    98.55791   124.67339
    84  C   4.0   -0.10    3.02    3.02   103.71236    94.68315   126.97147
    85  C   4.0   -0.08    3.02    3.02   103.46526   100.01627   126.54497
    86  C   4.0   -0.09    3.03    3.02   102.59691    96.14029   128.81395
    87  C   4.0   -0.09    3.03    3.02   102.47965    98.77057   128.60636
    88  H   1.0    0.26    1.00    1.43   109.06323    92.82995   126.62955
    89  H   1.0    0.15    0.99    1.43   109.03110    89.24987   122.34679
    90  H   1.0    0.14    0.99    1.43   106.42507    92.12717   119.85386
    91  H   1.0    0.11    0.99    1.43   104.82556    91.16391   122.61467
    92  H   1.0    0.13    1.00    1.43   107.37441    97.20707   119.38709
    93  H   1.0    0.25    1.00    1.43   105.82866   101.01680   121.78369
    94  H   1.0    0.12    0.99    1.43   103.79680    92.64551   127.14998
    95  H   1.0    0.13    1.00    1.43   103.34454   102.04461   126.39870
    96  H   1.0    0.13    1.00    1.43   101.80260    95.24059   130.46467
    97  H   1.0    0.13    1.00    1.43   101.58392    99.83583   130.09697
    98  N   5.0   -0.66    3.00    1.93   107.88873    87.54023   112.04537
    99  C   4.0    0.08    3.99    3.60   107.98098    85.71592   114.09054
   100  C   4.0    0.25    3.00    3.02   106.95400    86.85205   116.55762
   101  O   6.0   -0.44    1.00    1.80   107.41712    88.99379   117.25334
   102  C   4.0   -0.08    3.99    3.60   110.65170    84.70960   114.62739
   103  C   4.0    0.31    3.00    3.02   111.86903    83.67358   112.23716
   104  O   6.0   -0.34    1.00    1.80   110.68401    83.22291   110.30905
   105  N   5.0   -0.62    3.00    1.93   114.38016    83.40585   112.38557
   106  H   1.0    0.29    1.00    1.43   106.70765    87.11268   110.61492
   107  H   1.0    0.12    0.99    1.43   106.80246    84.12432   113.49850
   108  H   1.0    0.13    0.99    1.43   111.83881    86.18793   115.44536
   109  H   1.0    0.12    0.99    1.43   110.54126    83.15187   115.98256
   110  H   1.0    0.31    1.00    1.43   115.29447    82.49811   110.98233
   111  H   1.0    0.28    1.00    1.43   115.29639    83.67596   114.02976
   112  N   5.0   -0.49    3.02    1.93   105.51779    85.21649   117.84428
   113  C   4.0    0.07    3.99    3.60   104.38706    85.57789   120.32054
   114  C   4.0    0.27    3.02    3.02   104.28302    82.90615   121.42992
   115  O   6.0   -0.43    1.00    1.80   103.34524    81.16038   120.23532
   116  C   4.0   -0.13    3.98    3.59   101.75705    86.79713   120.05582
   117  C   4.0   -0.11    3.97    3.58   100.00339    86.48086   122.34306
   118  C   4.0   -0.22    3.98    3.59   101.15239    87.44046   124.80808
   119  C   4.0   -0.24    3.99    3.60    97.52529    87.88330   121.84911
   120  H   1.0    0.25    1.00    1.43   105.22310    83.47710   117.11221
   121  H   1.0    0.13    0.99    1.43   105.63493    86.77208   121.44740
   122  H   1.0    0.11    0.99    1.43   102.04087    88.79754   119.64465
   123  H   1.0    0.12    0.99    1.43   100.84779    85.94343   118.41031
   124  H   1.0    0.11    0.99    1.43    99.60512    84.45795   122.53849
   125  H   1.0    0.09    0.99    1.43    99.82705    87.12280   126.34412
   126  H   1.0    0.14    0.99    1.43   102.89169    86.46168   125.27852
   127  H   1.0    0.10    0.99    1.43   101.53022    89.45816   124.69378
   128  H   1.0    0.09    0.99    1.43    96.23119    87.60711   123.42037
   129  H   1.0    0.11    0.99    1.43    97.88717    89.89780   121.66092
   130  H   1.0    0.10    0.99    1.43    96.64662    87.21482   120.11742
   131  N   5.0   -0.48    3.01    1.93   105.35673    82.68620   123.69673
   132  C   4.0    0.10    3.99    3.61   105.54906    80.33901   125.07589
   133  C   4.0    0.26    3.01    3.02   103.98556    80.61849   127.50664
   134  O   6.0   -0.43    1.00    1.80   104.38302    82.36072   128.97801
   135  C   4.0   -0.00    3.98    3.59   108.31002    79.82788   125.77321
   136  O   6.0   -0.45    1.99    1.82   109.72532    79.62492   123.52727
   137  H   1.0    0.29    1.00    1.43   106.23313    84.19393   124.49662
   138  H   1.0    0.15    0.99    1.43   104.82081    78.83401   123.85991
   139  H   1.0    0.13    0.99    1.43   108.97589    81.40596   126.94909
   140  H   1.0    0.11    0.99    1.43   108.39918    78.06967   126.87587
   141  H   1.0    0.26    0.99    1.43   111.47816    79.35776   123.94610
   142  N   5.0   -0.49    3.01    1.93   102.17689    78.89502   127.78899
   143  C   4.0    0.08    4.00    3.62   100.43550    78.85861   129.90375
   144  C   4.0    0.27    3.01    3.02   100.78664    76.36001   131.32315
   145  O   6.0   -0.45    1.00    1.80   100.64886    74.31609   130.23408
   146  C   4.0   -0.08    3.98    3.59    97.70484    79.10715   128.92927
   147  C   4.0   -0.23    3.98    3.59    95.81822    78.81124   131.08836
   148  C   4.0   -0.23    3.98    3.59    97.36034    81.65460   127.62474
   149  H   1.0    0.27    1.00    1.43   102.00005    77.47517   126.51723
   150  H   1.0    0.15    0.99    1.43   100.92510    80.45064   131.12522
   151  H   1.0    0.12    0.99    1.43    97.42222    77.58537   127.55458
   152  H   1.0    0.09    0.99    1.43    93.91534    79.06552   130.36410
   153  H   1.0    0.12    0.99    1.43    95.96098    76.93954   131.92511
   154  H   1.0    0.11    0.99    1.43    96.16931    80.22292   132.54141
   155  H   1.0    0.08    0.99    1.43    95.51587    81.74310   126.73086
   156  H   1.0    0.10    0.99    1.43    97.50624    83.17466   129.00178
   157  H   1.0    0.12    0.99    1.43    98.80753    81.93286   126.19102
   158  N   5.0   -0.49    3.01    1.93   101.24714    76.62432   133.78809
   159  C   4.0    0.07    3.99    3.60   101.54009    74.53413   135.54915
   160  C   4.0    0.26    3.01    3.02    99.65542    75.02466   137.70068
   161  O   6.0   -0.47    1.00    1.80    99.77092    76.94339   138.99081
   162  C   4.0   -0.14    3.98    3.59   104.29759    74.43704   136.47213
   163  C   4.0   -0.17    3.98    3.58   104.75571    72.84391   138.84017
   164  C   4.0   -0.15    3.98    3.59   107.45853    73.28698   139.78785
   165  C   4.0   -0.05    3.98    3.58   107.88449    72.09452   142.37911
   166  N   5.0   -0.72    3.98    2.82   110.52287    72.55768   143.25671
   167  H   1.0    0.28    1.00    1.43   101.34155    78.39296   134.53659
   168  H   1.0    0.14    0.99    1.43   101.03790    72.78905   134.56202
   169  H   1.0    0.12    0.99    1.43   105.45697    73.72884   134.91877
   170  H   1.0    0.12    0.99    1.43   104.87515    76.38126   136.85019
   171  H   1.0    0.12    0.99    1.43   103.40234    73.39510   140.29377
   172  H   1.0    0.11    0.99    1.43   104.45969    70.85117   138.39783
   173  H   1.0    0.12    0.99    1.43   108.75733    72.50189   138.39455
   174  H   1.0    0.11    0.99    1.43   107.77380    75.32209   139.91289
   175  H   1.0    0.11    0.99    1.43   106.58822    72.95703   143.73154
   176  H   1.0    0.11    0.99    1.43   107.55522    70.06282   142.26081
   177  H   1.0    0.27    1.00    1.43   110.79582    71.82139   145.04406
   178  H   1.0    0.25    1.00    1.43   111.79457    71.73444   142.02835
   179  H   1.0    0.25    1.00    1.43   110.87551    74.47648   143.29498
   180  N   5.0   -0.50    3.01    1.93    97.92951    73.21905   138.00688
   181  C   4.0    0.08    3.99    3.61    95.94731    73.22725   139.90500
   182  C   4.0    0.27    3.02    3.02    96.29994    70.75804   141.36465
   183  O   6.0   -0.48    1.00    1.80    95.86600    68.67993   140.41910
   184  C   4.0   -0.08    3.98    3.58    93.32029    73.39538   138.66185
   185  C   4.0   -0.15    3.98    3.59    92.92960    76.05428   137.56973
   186  C   4.0   -0.22    3.98    3.59    91.26613    72.73971   140.58136
   187  C   4.0   -0.24    3.98    3.58    90.86490    76.15406   135.56285
   188  H   1.0    0.29    1.00    1.43    97.83164    71.76304   136.76320
   189  H   1.0    0.13    0.99    1.43    96.25495    74.84330   141.15772
   190  H   1.0    0.13    0.99    1.43    93.28423    72.00373   137.13033
   191  H   1.0    0.11    0.99    1.43    92.44828    77.33892   139.11163
   192  H   1.0    0.13    0.99    1.43    94.69865    76.70470   136.72516
   193  H   1.0    0.10    0.99    1.43    89.41181    72.97846   139.73729
   194  H   1.0    0.12    0.99    1.43    91.43231    70.78877   141.21099
   195  H   1.0    0.12    0.99    1.43    91.39199    73.98101   142.21456
   196  H   1.0    0.10    0.99    1.43    90.68641    78.06833   134.84038
   197  H   1.0    0.10    0.99    1.43    91.33378    74.90387   133.99808
   198  H   1.0    0.10    0.99    1.43    89.04510    75.58953   136.33198
   199  N   5.0   -0.48    3.01    1.93    97.30925    71.04965   143.65757
   200  C   4.0    0.07    3.99    3.60    97.72915    68.93010   145.33593
   201  C   4.0    0.06    3.00    3.02    96.11805    69.26900   147.70665
   202  O   6.0   -0.39    1.00    1.80    95.62530    71.35587   148.57879
   203  C   4.0   -0.14    3.98    3.59   100.55573    68.59435   145.91751
   204  C   4.0   -0.15    3.98    3.58   101.78354    70.74114   147.42279
   205  C   4.0   -0.04    3.99    3.61   104.43589    69.87510   148.17622
   206  N   5.0   -0.48    3.02    1.93   105.78968    71.78583   149.61925
   207  C   4.0    0.37    3.01    3.02   108.16370    71.48263   150.40591
   208  N   5.0   -0.64    3.01    1.93   109.65073    69.70651   149.36253
   209  N   5.0   -0.64    3.02    1.93   109.14852    73.14338   151.99565
   210  H   1.0    0.25    1.00    1.43    97.36995    72.79919   144.45146
   211  H   1.0    0.14    0.99    1.43    97.05552    67.22838   144.36737
   212  H   1.0    0.13    0.99    1.43   100.74562    66.82248   146.95090
   213  H   1.0    0.12    0.99    1.43   101.52060    68.38493   144.10636
   214  H   1.0    0.12    0.99    1.43   101.85938    72.44453   146.26818
   215  H   1.0    0.14    0.99    1.43   100.66292    71.14230   149.10712
   216  H   1.0    0.12    0.99    1.43   104.24112    68.16934   149.32559
   217  H   1.0    0.11    0.99    1.43   105.48713    69.41891   146.45791
   218  H   1.0    0.23    1.00    1.43   104.73652    73.09023   150.55480
   219  H   1.0    0.26    1.00    1.43   108.84651    68.15416   148.59464
   220  H   1.0    0.27    1.00    1.43   111.36778    69.41882   150.15233
   221  H   1.0    0.27    1.00    1.43   108.03771    74.53252   152.70651
   222  H   1.0    0.28    1.00    1.43   110.96621    73.04415   152.55326
   223  N   5.0   -0.70    3.01    1.93   100.45036    61.28180   150.13867
   224  C   4.0    0.07    3.98    3.59    99.81736    59.60216   148.05104
   225  C   4.0    0.28    3.02    3.02    99.38863    61.34683   145.78164
   226  O   6.0   -0.46    1.00    1.80    97.79392    63.02891   145.94678
   227  C   4.0   -0.14    3.98    3.59    97.38081    58.13467   148.67984
   228  C   4.0   -0.15    3.98    3.58    97.13416    55.56702   147.38672
   229  C   4.0   -0.04    3.99    3.59    94.59364    54.36092   148.10209
   230  N   5.0   -0.48    3.02    1.93    94.31721    54.10800   150.82292
   231  C   4.0    0.38    3.00    3.02    95.32854    52.32174   152.28783
   232  N   5.0   -0.62    3.02    1.93    95.23586    52.59299   154.77610
   233  N   5.0   -0.63    3.01    1.93    96.49151    50.30884   151.31121
   234  H   1.0    0.28    1.00    1.43    99.22968    62.74356   150.36399
   235  H   1.0    0.12    0.99    1.43   101.39805    58.30229   147.79098
   236  H   1.0    0.12    0.99    1.43    97.36979    57.83822   150.72180
   237  H   1.0    0.12    0.99    1.43    95.75159    59.31848   148.22165
   238  H   1.0    0.12    0.99    1.43    97.20927    55.77821   145.33926
   239  H   1.0    0.13    0.99    1.43    98.67605    54.34465   148.00213
   240  H   1.0    0.11    0.99    1.43    93.04975    55.56827   147.45947
   241  H   1.0    0.12    0.99    1.43    94.36992    52.52019   147.19941
   242  H   1.0    0.23    1.00    1.43    93.51991    55.59262   151.72720
   243  H   1.0    0.27    1.00    1.43    94.35125    54.10780   155.51025
   244  H   1.0    0.27    1.00    1.43    95.78187    51.20128   156.04537
   245  H   1.0    0.27    1.00    1.43    96.42643    49.95346   149.44244
   246  H   1.0    0.28    1.00    1.43    96.94967    48.88161   152.48646
   247  N   5.0   -0.47    3.01    1.93   100.83600    61.08970   143.72611
   248  C   4.0    0.10    4.00    3.63   100.26772    62.63161   141.52707
   249  C   4.0    0.27    3.01    3.02    97.82817    61.57906   140.35079
   250  O   6.0   -0.39    1.00    1.80    97.67312    59.33428   139.80504
   251  C   4.0    0.04    3.98    3.58   102.45411    62.63200   139.63008
   252  O   6.0   -0.47    1.99    1.83   104.62207    63.43177   140.95098
   253  C   4.0   -0.20    3.98    3.59   101.81592    64.40096   137.43439
   254  H   1.0    0.25    1.00    1.43   102.04618    59.63677   143.51505
   255  H   1.0    0.13    0.99    1.43    99.95870    64.56323   142.19024
   256  H   1.0    0.14    0.99    1.43   102.70926    60.69762   138.89652
   257  H   1.0    0.27    0.99    1.43   106.02909    63.45903   139.79077
   258  H   1.0    0.14    0.99    1.43   103.35420    64.46223   136.06387
   259  H   1.0    0.13    0.99    1.43   100.11998    63.75243   136.46539
   260  H   1.0    0.12    0.99    1.43   101.48390    66.30740   138.13131
   261  N   5.0   -0.49    3.00    1.93    95.91293    63.21715   140.14881
   262  C   4.0    0.09    4.00    3.62    93.39961    62.40424   139.43085
   263  C   4.0    0.27    3.01    3.02    92.72770    63.30592   136.77044
   264  O   6.0   -0.42    1.00    1.80    91.71635    61.89266   135.24705
   265  C   4.0   -0.09    3.98    3.58    91.43443    63.19819   141.42907
   266  C   4.0   -0.22    3.98    3.59    88.76088    62.55089   140.55854
   267  C   4.0   -0.21    3.98    3.59    92.01867    61.86068   143.92186
   268  H   1.0    0.27    1.00    1.43    96.13339    65.07017   140.60890
   269  H   1.0    0.15    0.99    1.43    93.43725    60.33406   139.32579
   270  H   1.0    0.12    0.99    1.43    91.57157    65.24411   141.70826
   271  H   1.0    0.10    0.99    1.43    87.43338    62.88413   142.09166
   272  H   1.0    0.11    0.99    1.43    88.19400    63.68038   138.93761
   273  H   1.0    0.12    0.99    1.43    88.63932    60.56716   140.03413
   274  H   1.0    0.11    0.99    1.43    90.67860    62.43419   145.37305
   275  H   1.0    0.11    0.99    1.43    91.84996    59.82508   143.67449
   276  H   1.0    0.15    0.99    1.43    93.91937    62.30722   144.56488
   277  N   5.0   -0.49    3.01    1.93    93.36872    65.69217   136.19660
   278  C   4.0    0.08    4.00    3.62    93.24370    66.52373   133.59002
   279  C   4.0    0.27    3.01    3.02    95.69087    67.91795   132.97845
   280  O   6.0   -0.46    1.00    1.80    96.66479    69.38713   134.47333
   281  C   4.0   -0.13    3.98    3.59    90.87786    68.15969   133.08471
   282  C   4.0   -0.05    3.03    3.02    89.80025    67.79504   130.47951
   283  C   4.0   -0.11    3.03    3.02    89.35636    69.84281   128.90617
   284  C   4.0   -0.11    3.03    3.02    89.12663    65.39686   129.62893
   285  C   4.0   -0.11    3.03    3.02    88.25115    69.52878   126.56171
   286  C   4.0   -0.07    3.03    3.02    88.05488    65.05397   127.27596
   287  C   4.0    0.10    3.03    3.02    87.58549    67.13009   125.72353
   288  O   6.0   -0.45    1.99    1.83    86.50901    66.74370   123.43603
   289  H   1.0    0.29    1.00    1.43    94.25849    66.85017   137.44591
   290  H   1.0    0.14    0.99    1.43    93.12254    64.81037   132.43553
   291  H   1.0    0.11    0.99    1.43    89.45077    67.58246   134.46169
   292  H   1.0    0.10    0.99    1.43    91.30944    70.14974   133.40395
   293  H   1.0    0.10    1.00    1.43    89.87416    71.71646   129.52094
   294  H   1.0    0.13    0.99    1.43    89.43256    63.77002   130.82785
   295  H   1.0    0.12    1.00    1.43    87.84622    71.13287   125.37073
   296  H   1.0    0.14    1.00    1.43    87.54149    63.19138   126.62056
   297  H   1.0    0.30    0.99    1.43    86.16647    68.38059   122.59616
   298  N   5.0   -0.49    3.01    1.93    96.65758    67.42428   130.70333
   299  C   4.0    0.07    3.99    3.61    99.04787    68.43087   129.81873
   300  C   4.0    0.26    3.02    3.02    98.99645    68.26274   126.95028
   301  O   6.0   -0.42    1.00    1.80    98.50207    66.26547   125.89322
   302  C   4.0   -0.12    3.99    3.60   101.28035    66.82241   130.75183
   303  C   4.0   -0.11    3.97    3.58   103.78598    67.61975   129.58348
   304  C   4.0    0.32    2.99    3.02   105.98405    65.95189   130.64981
   305  O   6.0   -0.41    1.00    1.80   106.20707    65.86358   132.99012
   306  O   6.0   -0.35    1.00    1.80   107.33439    64.84424   129.06812
   307  H   1.0    0.26    1.00    1.43    95.89371    66.07997   129.58191
   308  H   1.0    0.15    0.99    1.43    99.25505    70.38210   130.46069
   309  H   1.0    0.13    0.99    1.43   101.43591    66.95619   132.80164
   310  H   1.0    0.15    0.99    1.43   100.91890    64.84858   130.25391
   311  H   1.0    0.14    0.99    1.43   103.76685    67.38790   127.53177
   312  H   1.0    0.13    0.99    1.43   104.18300    69.59966   130.01694
   313  N   5.0   -0.49    3.01    1.93    99.42617    70.43248   125.73146
   314  C   4.0    0.07    4.00    3.62    99.80122    70.47547   123.02097
   315  C   4.0    0.26    3.01    3.02   101.95084    72.32175   122.45829
   316  O   6.0   -0.43    1.00    1.80   102.37970    74.14480   123.81536
   317  C   4.0   -0.14    3.98    3.58    97.37724    71.22793   121.59408
   318  C   4.0   -0.15    3.98    3.59    95.20646    69.40941   122.21437
   319  C   4.0   -0.15    3.98    3.58    93.01502    69.54331   120.33934
   320  C   4.0   -0.06    3.98    3.58    91.77049    72.14436   120.29869
   321  N   5.0   -0.71    3.97    2.78    89.55490    72.12936   118.56190
   322  H   1.0    0.28    1.00    1.43   100.01384    71.98366   126.69633
   323  H   1.0    0.14    0.99    1.43   100.34861    68.56004   122.45215
   324  H   1.0    0.11    0.99    1.43    96.89208    73.15348   122.13340
   325  H   1.0    0.11    0.99    1.43    97.80314    71.18468   119.57542
   326  H   1.0    0.14    0.99    1.43    95.95285    67.48864   122.22448
   327  H   1.0    0.13    0.99    1.43    94.51619    69.79599   124.11742
   328  H   1.0    0.11    0.99    1.43    93.72928    69.06810   118.46363
   329  H   1.0    0.13    0.99    1.43    91.62984    68.11807   120.89038
   330  H   1.0    0.11    0.99    1.43    91.14593    72.63357   122.20092
   331  H   1.0    0.10    0.99    1.43    93.13237    73.54699   119.65152
   332  H   1.0    0.27    1.00    1.43    89.37300    73.80928   117.61399
   333  H   1.0    0.26    1.00    1.43    89.76377    70.70031   117.26882
   334  H   1.0    0.32    1.00    1.43    87.77413    71.80156   119.59062
   335  N   5.0   -0.48    3.01    1.93   103.30079    71.73677   120.40180
   336  C   4.0    0.10    3.99    3.61   105.29482    73.28274   119.37589
   337  C   4.0    0.30    3.01    3.02   104.37577    74.46598   116.89198
   338  O   6.0   -0.37    1.00    1.80   102.50489    73.64634   115.82003
   339  C   4.0    0.04    3.98    3.58   107.65341    71.66184   118.80906
   340  O   6.0   -0.44    1.99    1.82   106.92409    69.90225   116.93543
   341  C   4.0   -0.19    3.98    3.59   108.62109    70.34244   121.18790
   342  H   1.0    0.27    1.00    1.43   102.76515    70.31959   119.23885
   343  H   1.0    0.13    0.99    1.43   105.76680    74.76778   120.72642
   344  H   1.0    0.13    0.99    1.43   109.12878    72.92907   118.05724
   345  H   1.0    0.27    0.99    1.43   108.33135    68.80122   116.57263
   346  H   1.0    0.12    0.99    1.43   110.37366    69.34767   120.79096
   347  H   1.0    0.12    0.99    1.43   108.96661    71.72132   122.66546
   348  H   1.0    0.14    0.99    1.43   107.23633    68.97994   121.85780
   349  N   5.0   -0.48    3.01    1.93   105.69821    76.49236   116.14727
   350  C   4.0    0.07    3.99    3.61   105.62947    77.40028   113.54584
   351  C   4.0    0.30    3.01    3.02   102.98688    76.97531   112.42971
   352  O   6.0   -0.39    1.00    1.80   102.57529    75.70288   110.54869
   353  C   4.0   -0.07    3.98    3.58   107.71428    76.11850   112.02440
   354  C   4.0    0.32    2.99    3.02   110.40352    76.35800   113.22808
   355  O   6.0   -0.41    1.00    1.80   110.58031    77.25573   115.41278
   356  O   6.0   -0.34    1.00    1.80   112.18608    75.58608   111.91322
   357  H   1.0    0.28    1.00    1.43   107.47628    76.78331   116.85570
   358  H   1.0    0.12    0.99    1.43   106.00338    79.44495   113.58971
   359  H   1.0    0.15    0.99    1.43   107.29788    74.10223   111.84895
   360  H   1.0    0.14    0.99    1.43   107.81756    76.91513   110.12601
   361  N   5.0   -0.46    3.01    1.93   101.18019    78.28661   113.63980
   362  C   4.0    0.07    3.99    3.60    98.51618    77.71610   113.27502
   363  C   4.0    0.27    3.02    3.02    97.45635    79.54500   111.28555
   364  O   6.0   -0.40    1.01    1.80    97.48013    81.86178   111.53601
   365  C   4.0   -0.13    3.98    3.59    97.16347    77.57327   115.85045
   366  C   4.0   -0.09    3.97    3.58    97.22001    79.89426   117.60148
   367  C   4.0   -0.21    3.98    3.59    95.12966    81.78906   116.98188
   368  C   4.0   -0.23    3.98    3.59    96.91750    79.01948   120.34292
   369  H   1.0    0.26    1.00    1.43   101.66114    79.21725   115.23438
   370  H   1.0    0.14    0.99    1.43    98.47574    75.81116   112.46939
   371  H   1.0    0.10    0.99    1.43    95.20527    77.02824   115.51775
   372  H   1.0    0.13    0.99    1.43    98.12382    76.02034   116.82133
   373  H   1.0    0.14    0.99    1.43    99.06096    80.83423   117.45894
   374  H   1.0    0.09    0.99    1.43    95.26643    83.40084   118.24942
   375  H   1.0    0.15    0.99    1.43    95.32353    82.47398   115.05874
   376  H   1.0    0.11    0.99    1.43    93.28837    80.90928   117.22373
   377  H   1.0    0.10    0.99    1.43    96.99814    80.65284   121.58353
   378  H   1.0    0.09    0.99    1.43    95.11704    78.06889   120.61403
   379  H   1.0    0.12    0.99    1.43    98.44711    77.75219   120.87747
   380  N   5.0   -0.33    3.03    1.93    96.46893    78.54872   109.18761
   381  C   4.0    0.07    4.04    3.68    95.68171    80.29596   107.20711
   382  C   4.0    0.10    3.00    3.02    94.17702    82.51820   108.27426
   383  O   6.0   -0.40    1.00    1.80    92.28909    82.19418   109.58313
   384  C   4.0   -0.12    4.01    3.64    94.07146    78.62947   105.49529
   385  C   4.0   -0.14    4.01    3.64    95.48198    76.11412   105.58038
   386  C   4.0   -0.04    4.01    3.63    96.43719    75.94264   108.31183
   387  H   1.0    0.12    0.99    1.43    97.35510    81.02333   106.22209
   388  H   1.0    0.14    0.99    1.43    92.19450    78.45098   106.32248
   389  H   1.0    0.11    0.99    1.43    93.89955    79.41057   103.60212
   390  H   1.0    0.11    0.99    1.43    94.29926    74.50980   105.08319
   391  H   1.0    0.12    0.99    1.43    97.07167    76.15978   104.27071
   392  H   1.0    0.11    0.99    1.43    95.16033    74.82131   109.48734
   393  H   1.0    0.14    0.99    1.43    98.33063    75.11747   108.38907
   394  N   5.0   -0.68    3.00    1.93    79.77740    85.86396   117.45108
   395  C   4.0    0.06    3.98    3.59    80.37875    83.50621   118.70613
   396  C   4.0    0.08    3.00    3.02    79.69868    83.71528   121.50593
   397  O   6.0   -0.43    1.00    1.80    80.83448    85.14924   122.92927
   398  C   4.0   -0.14    3.98    3.59    83.18522    82.84573   118.39932
   399  C   4.0   -0.15    3.98    3.58    83.75220    80.25913   119.55243
   400  C   4.0   -0.05    3.98    3.59    86.52789    79.48084   119.23950
   401  N   5.0   -0.48    3.01    1.93    87.40631    79.54261   116.64061
   402  C   4.0    0.37    3.00    3.02    86.98511    77.78222   114.89051
   403  N   5.0   -0.64    3.01    1.93    85.95041    75.55539   115.48669
   404  N   5.0   -0.64    3.02    1.93    87.88267    78.13868   112.56599
   405  H   1.0    0.29    1.00    1.43    80.41231    87.48776   118.23905
   406  H   1.0    0.12    0.99    1.43    79.19576    82.05512   117.82660
   407  H   1.0    0.12    0.99    1.43    83.59061    82.85604   116.37739
   408  H   1.0    0.12    0.99    1.43    84.29881    84.31772   119.32257
   409  H   1.0    0.10    0.99    1.43    83.33305    80.31957   121.57242
   410  H   1.0    0.13    0.99    1.43    82.50572    78.84511   118.71207
   411  H   1.0    0.09    0.99    1.43    87.71618    80.76864   120.32086
   412  H   1.0    0.12    0.99    1.43    86.76318    77.58372   120.00678
   413  H   1.0    0.23    1.00    1.43    88.10490    81.21936   116.04866
   414  H   1.0    0.31    1.00    1.43    84.80779    75.28283   117.03952
   415  H   1.0    0.28    1.00    1.43    85.54413    74.36616   114.04752
   416  H   1.0    0.29    1.00    1.43    88.88185    79.69630   112.08895
   417  H   1.0    0.27    1.00    1.43    87.55118    76.86347   111.18758
   418  N   5.0   -0.68    3.01    1.93    79.58813    79.40211   127.59459
   419  C   4.0    0.06    3.98    3.59    80.30936    77.15967   129.00140
   420  C   4.0    0.08    3.00    3.02    78.94916    77.36777   131.54497
   421  O   6.0   -0.38    1.00    1.80    79.28860    79.12471   133.01725
   422  C   4.0   -0.09    3.98    3.58    83.19740    76.96334   129.22819
   423  C   4.0   -0.16    3.98    3.59    84.32772    76.38262   126.62111
   424  C   4.0   -0.23    3.98    3.59    83.87287    74.93775   131.16807
   425  C   4.0   -0.24    3.98    3.58    87.15149    76.93169   126.47996
   426  H   1.0    0.29    1.00    1.43    80.02664    81.07616   128.42486
   427  H   1.0    0.11    0.99    1.43    79.56500    75.51353   127.99758
   428  H   1.0    0.12    0.99    1.43    83.88875    78.79656   129.88910
   429  H   1.0    0.11    0.99    1.43    83.95695    74.39909   126.18236
   430  H   1.0    0.10    0.99    1.43    83.34229    77.53048   125.21524
   431  H   1.0    0.09    0.99    1.43    85.90590    74.80759   131.40291
   432  H   1.0    0.12    0.99    1.43    83.03899    75.40559   132.98890
   433  H   1.0    0.10    0.99    1.43    83.14632    73.10780   130.57371
   434  H   1.0    0.10    0.99    1.43    87.83810    76.57722   124.57981
   435  H   1.0    0.09    0.99    1.43    87.49925    78.89687   126.96581
   436  H   1.0    0.09    0.99    1.43    88.18167    75.74132   127.79223
   437  N   5.0   -0.67    3.00    1.93    77.55045    62.51395   135.09363
   438  C   4.0    0.07    3.98    3.59    78.62822    64.55812   133.63256
   439  C   4.0    0.08    3.00    3.02    77.31773    64.68039   131.06373
   440  O   6.0   -0.36    1.00    1.80    76.89845    62.77052   129.82330
   441  C   4.0   -0.08    3.98    3.59    81.48017    64.11953   133.18836
   442  C   4.0   -0.23    3.98    3.59    82.66234    66.42808   131.92538
   443  C   4.0   -0.22    3.98    3.59    82.83292    63.54454   135.66924
   444  H   1.0    0.29    1.00    1.43    77.81288    60.76725   134.37023
   445  H   1.0    0.11    0.99    1.43    78.30364    66.31278   134.67464
   446  H   1.0    0.14    0.99    1.43    81.66813    62.49839   131.91345
   447  H   1.0    0.11    0.99    1.43    84.67962    66.13638   131.65981
   448  H   1.0    0.11    0.99    1.43    81.82337    66.78450   130.08314
   449  H   1.0    0.10    0.99    1.43    82.38092    68.10566   133.07959
   450  H   1.0    0.11    0.99    1.43    84.81759    63.16794   135.30105
   451  H   1.0    0.10    0.99    1.43    82.68162    65.15077   136.94076
   452  H   1.0    0.11    0.99    1.43    82.02059    61.90580   136.60244
   453  N   5.0   -0.70    3.01    1.93    77.33658    69.70959   124.17446
   454  C   4.0    0.06    3.98    3.58    78.75431    71.48379   122.62212
   455  C   4.0    0.10    3.00    3.02    77.04759    72.20632   120.39463
   456  O   6.0   -0.35    1.00    1.80    76.85460    70.87527   118.51223
   457  C   4.0   -0.08    3.98    3.59    81.16945    70.16080   121.76947
   458  C   4.0    0.31    2.99    3.02    83.18073    71.85347   120.55673
   459  O   6.0   -0.44    1.00    1.80    82.60797    73.60777   119.13139
   460  O   6.0   -0.54    1.02    1.80    85.42317    71.22682   121.08744
   461  H   1.0    0.30    1.00    1.43    76.60134    68.21935   123.23761
   462  H   1.0    0.11    0.99    1.43    79.16677    73.15182   123.76818
   463  H   1.0    0.11    0.99    1.43    82.00873    69.21705   123.40169
   464  H   1.0    0.15    0.99    1.43    80.65738    68.72318   120.37417
   465  H   1.0    0.29    1.00    1.43    86.11135    91.80935   121.24764
   466  H   1.0    0.15    1.00    1.43    82.15796    89.17326   126.93332
   467  H   1.0    0.31    1.00    1.43   101.51889    81.42845   141.96271
   468  H   1.0    0.14    1.00    1.43   111.65116    92.57874   120.25233
   469  H   1.0    0.33    1.00    1.43   107.38071    89.04631   112.65053
   470  H   1.0    0.13    1.00    1.43    95.42555    67.75616   148.60267
   471  H   1.0    0.30    1.00    1.43   100.45214    60.40237   151.59441
   472  H   1.0    0.14    1.00    1.43    94.72358    84.29043   107.91157
   473  H   1.0    0.30    1.00    1.43    80.42720    85.85232   115.87940
   474  H   1.0    0.14    1.00    1.43    78.29685    82.66738   122.21857
   475  H   1.0    0.28    1.00    1.43    80.36736    79.39897   126.08285
   476  H   1.0    0.13    1.00    1.43    77.71926    76.03286   132.07075
   477  H   1.0    0.29    1.00    1.43    78.24160    62.50090   136.64757
   478  H   1.0    0.13    1.00    1.43    76.77951    66.34787   130.35600
   479  H   1.0    0.29    1.00    1.43    78.35339    69.07045   125.37868
   480  H   1.0    0.14    1.00    1.43    76.04796    73.80900   120.45127

           ------------------------------------------------- 
          |        Self-Consistent Charge Iterations        |
           ------------------------------------------------- 

          ...................................................
          :                      SETUP                      :
          :.................................................:
          :  # basis functions                1155          :
          :  # atomic orbitals                1155          :
          :  # shells                          705          :
          :  # electrons                      1270          :
          :  max. iterations                   250          :
          :  Hamiltonian                  GFN2-xTB          :
          :  restarted?                      false          :
          :  GBSA solvation                   true          :
          :  PC potential                    false          :
          :  electronic temp.          500.0000000     K    :
          :  accuracy                    0.1000000          :
          :  -> integral cutoff          0.3500000E+02      :
          :  -> integral neglect         0.1000000E-08      :
          :  -> SCF convergence          0.1000000E-06 Eh   :
          :  -> wf. convergence          0.1000000E-04 e    :
          :  Broyden damping             0.4000000          :
          ...................................................

 iter      E             dE          RMSdq      gap      omega  full diag
   1   -724.3162254 -0.724316E+03  0.409E+00    1.93       0.0  T
   2   -726.0643884 -0.174816E+01  0.212E+00    1.57       1.0  T
   3   -726.1341116 -0.697231E-01  0.113E+00    1.95       1.0  T
   4   -726.1639338 -0.298222E-01  0.287E-01    1.44       1.0  T
   5   -726.1835153 -0.195815E-01  0.118E-01    1.58       1.0  T
   6   -726.1843947 -0.879457E-03  0.564E-02    1.58       1.0  T
   7   -726.1845659 -0.171214E-03  0.280E-02    1.56       1.0  T
   8   -726.1846770 -0.111030E-03  0.107E-02    1.57       1.0  T
   9   -726.1846889 -0.119212E-04  0.568E-03    1.56       1.0  T
  10   -726.1846927 -0.385820E-05  0.266E-03    1.56       1.7  T
  11   -726.1846934 -0.636372E-06  0.117E-03    1.56       3.9  T
  12   -726.1846936 -0.229106E-06  0.461E-04    1.56       9.9  T
  13   -726.1846936 -0.181094E-07  0.233E-04    1.56      19.6  T
  14   -726.1846936 -0.429588E-08  0.979E-05    1.56      46.6  T
  15   -726.1846936 -0.143973E-08  0.411E-05    1.56     111.0  T

   *** convergence criteria satisfied after 15 iterations ***

         #    Occupation            Energy/Eh            Energy/eV
      -------------------------------------------------------------
         1        2.0000           -0.7378596             -20.0782
       ...           ...                  ...                  ...
       629        2.0000           -0.3680291             -10.0146
       630        2.0000           -0.3661178              -9.9626
       631        2.0000           -0.3660832              -9.9616
       632        2.0000           -0.3645960              -9.9212
       633        2.0000           -0.3616093              -9.8399
       634        2.0000           -0.3583452              -9.7511
       635        2.0000           -0.3509043              -9.5486 (HOMO)
       636                         -0.2935274              -7.9873 (LUMO)
       637                         -0.2911284              -7.9220
       638                         -0.2863245              -7.7913
       639                         -0.2861814              -7.7874
       640                         -0.2835551              -7.7159
       ...                                ...                  ...
      1155                          0.7183395              19.5470
      -------------------------------------------------------------
                  HL-Gap            0.0573769 Eh            1.5613 eV
             Fermi-level           -0.3223804 Eh           -8.7724 eV

 SCC (total)                   0 d,  0 h,  0 min, 20.803 sec
 SCC setup                      ...        0 min,  0.329 sec (  1.579%)
 Dispersion                     ...        0 min,  0.227 sec (  1.094%)
 integral evaluation            ...        0 min,  0.831 sec (  3.997%)
 zeroth order Hamiltonian       ...        0 min,  0.021 sec (  0.103%)
 iterations                     ...        0 min, 14.743 sec ( 70.871%)
 molecular gradient             ...        0 min,  4.546 sec ( 21.851%)
 printout                       ...        0 min,  0.105 sec (  0.505%)

         :::::::::::::::::::::::::::::::::::::::::::::::::::::
         ::                     SUMMARY                     ::
         :::::::::::::::::::::::::::::::::::::::::::::::::::::
         :: total energy             -717.204146189884 Eh   ::
         :: total w/o Gsasa/hb       -717.100980968962 Eh   ::
         :: gradient norm               0.638706296803 Eh/α ::
         :: HOMO-LUMO gap               1.561305331096 eV   ::
         ::.................................................::
         :: SCC energy               -726.209281772527 Eh   ::
         :: -> isotropic ES             2.326010810180 Eh   ::
         :: -> anisotropic ES          -0.115929314453 Eh   ::
         :: -> anisotropic XC           0.252425225216 Eh   ::
         :: -> dispersion              -0.583911197002 Eh   ::
         :: -> Gsolv                   -0.795618445734 Eh   ::
         ::    -> Gborn                -0.692453224812 Eh   ::
         ::    -> Gsasa                -0.026445584985 Eh   ::
         ::    -> Ghb                  -0.078577079064 Eh   ::
         ::    -> Gshift                0.001857443127 Eh   ::
         :: repulsion energy            8.956833637124 Eh   ::
         :: add. restraining            0.000000000000 Eh   ::
         :::::::::::::::::::::::::::::::::::::::::::::::::::::

           -------------------------------------------------
          |                Property Printout                |
           -------------------------------------------------

    * Orbital Energies and Occupations

         #    Occupation            Energy/Eh            Energy/eV
      -------------------------------------------------------------
         1        2.0000           -0.7378596             -20.0782
       ...           ...                  ...                  ...
       623        2.0000           -0.3780782             -10.2880
       624        2.0000           -0.3742351             -10.1835
       625        2.0000           -0.3740382             -10.1781
       626        2.0000           -0.3731167             -10.1530
       627        2.0000           -0.3727508             -10.1431
       628        2.0000           -0.3689574             -10.0398
       629        2.0000           -0.3680291             -10.0146
       630        2.0000           -0.3661178              -9.9626
       631        2.0000           -0.3660832              -9.9616
       632        2.0000           -0.3645960              -9.9212
       633        2.0000           -0.3616093              -9.8399
       634        2.0000           -0.3583452              -9.7511
       635        2.0000           -0.3509043              -9.5486 (HOMO)
       636                         -0.2935274              -7.9873 (LUMO)
       637                         -0.2911284              -7.9220
       638                         -0.2863245              -7.7913
       639                         -0.2861814              -7.7874
       640                         -0.2835551              -7.7159
       641                         -0.2826424              -7.6911
       642                         -0.2825976              -7.6899
       643                         -0.2792758              -7.5995
       644                         -0.2422891              -6.5930
       645                         -0.2403138              -6.5393
       646                         -0.2390226              -6.5041
       ...                                ...                  ...
      1155                          0.7183395              19.5470
      -------------------------------------------------------------
                  HL-Gap            0.0573769 Eh            1.5613 eV
             Fermi-level           -0.3223804 Eh           -8.7724 eV

   #   Z        covCN         q      C6AA      α(0)
   1   7 N      2.641    -0.393    30.175     8.158
   2   6 C      3.783     0.039    19.944     6.362
   3   6 C      2.771     0.207    23.603     7.957
   4   8 O      0.856    -0.387    21.425     6.206
   5   6 C      3.810    -0.070    21.823     6.650
   6   6 C      3.849    -0.012    20.750     6.479
   7   6 C      3.756    -0.123    22.915     6.825
   8   6 C      3.757    -0.116    22.772     6.804
   9   1 H      0.860     0.154     1.375     1.837
  10   1 H      0.924     0.071     2.080     2.255
  11   1 H      0.924     0.053     2.286     2.365
  12   1 H      0.924     0.034     2.530     2.488
  13   1 H      0.924     0.016     2.801     2.617
  14   1 H      0.925     0.053     2.282     2.362
  15   1 H      0.925     0.042     2.427     2.436
  16   1 H      0.925     0.053     2.286     2.365
  17   1 H      0.925     0.048     2.342     2.393
  18   1 H      0.925     0.048     2.345     2.395
  19   1 H      0.925     0.030     2.582     2.513
  20   7 N      2.641    -0.406    30.531     8.206
  21   6 C      3.789     0.038    19.945     6.361
  22   6 C      2.758     0.273    22.387     7.748
  23   8 O      0.858    -0.489    23.534     6.504
  24   6 C      3.813    -0.071    21.848     6.653
  25   6 C      2.971    -0.003    28.102     8.695
  26   6 C      2.922    -0.051    29.259     8.870
  27   6 C      2.926    -0.040    28.992     8.830
  28   6 C      2.917    -0.089    30.244     9.018
  29   6 C      2.918    -0.059    29.477     8.903
  30   6 C      2.846     0.142    24.901     8.178
  31   8 O      1.659    -0.425    21.349     6.237
  32   1 H      0.860     0.189     1.162     1.689
  33   1 H      0.924     0.023     2.684     2.562
  34   1 H      0.925     0.049     2.334     2.389
  35   1 H      0.925     0.022     2.704     2.572
  36   1 H      0.926     0.067     2.117     2.276
  37   1 H      0.926     0.017     2.781     2.608
  38   1 H      0.926     0.081     1.971     2.195
  39   1 H      0.926     0.037     2.493     2.469
  40   1 H      0.804     0.348     0.592     1.209
  41   7 N      2.694    -0.172    24.720     7.384
  42   6 C      3.794     0.017    20.300     6.416
  43   6 C      2.760     0.278    22.304     7.734
  44   8 O      0.858    -0.477    23.283     6.469
  45   6 C      3.852    -0.021    20.910     6.504
  46   6 C      3.802    -0.065    21.755     6.641
  47   6 C      3.756    -0.113    22.712     6.795
  48   6 C      3.751    -0.111    22.690     6.793
  49   1 H      0.860     0.196     1.125     1.662
  50   1 H      0.924     0.070     2.091     2.261
  51   1 H      0.924     0.052     2.299     2.371
  52   1 H      0.924     0.046     2.368     2.406
  53   1 H      0.925     0.045     2.384     2.415
  54   1 H      0.925     0.055     2.261     2.352
  55   1 H      0.925     0.032     2.559     2.502
  56   1 H      0.925     0.041     2.429     2.437
  57   1 H      0.925     0.047     2.356     2.400
  58   1 H      0.925     0.038     2.478     2.462
  59   1 H      0.925     0.036     2.501     2.473
  60   7 N      2.691    -0.170    24.678     7.378
  61   6 C      3.798     0.017    20.289     6.414
  62   6 C      2.762     0.267    22.494     7.767
  63   8 O      0.859    -0.492    23.600     6.513
  64   6 C      3.726     0.121    18.701     6.174
  65   8 O      1.656    -0.483    22.526     6.407
  66   6 C      3.752    -0.137    23.204     6.869
  67   1 H      0.860     0.215     1.035     1.594
  68   1 H      0.924     0.082     1.963     2.191
  69   1 H      0.923     0.023     2.691     2.565
  70   1 H      0.805     0.348     0.592     1.208
  71   1 H      0.925     0.070     2.088     2.260
  72   1 H      0.925     0.039     2.459     2.452
  73   1 H      0.925     0.061     2.185     2.312
  74   7 N      2.689    -0.145    24.143     7.298
  75   6 C      3.795     0.029    20.098     6.384
  76   6 C      2.766     0.199    23.757     7.982
  77   8 O      0.856    -0.365    20.987     6.142
  78   6 C      3.807    -0.072    21.875     6.658
  79   6 C      3.057    -0.040    28.927     8.820
  80   6 C      3.030    -0.008    28.182     8.708
  81   6 C      3.117    -0.022    28.389     8.727
  82   7 N      2.779    -0.110    23.395     7.184
  83   6 C      3.087     0.045    26.892     8.501
  84   6 C      2.911    -0.042    29.034     8.836
  85   6 C      2.908    -0.055    29.372     8.887
  86   6 C      2.920    -0.043    29.070     8.842
  87   6 C      2.925    -0.040    28.996     8.831
  88   1 H      0.860     0.216     1.028     1.588
  89   1 H      0.924     0.090     1.875     2.141
  90   1 H      0.925     0.082     1.963     2.191
  91   1 H      0.924     0.068     2.105     2.269
  92   1 H      0.926     0.039     2.459     2.452
  93   1 H      0.860     0.196     1.125     1.662
  94   1 H      0.925     0.017     2.780     2.607
  95   1 H      0.926     0.033     2.538     2.491
  96   1 H      0.926     0.031     2.575     2.509
  97   1 H      0.926     0.031     2.566     2.505
  98   7 N      2.633    -0.385    29.955     8.129
  99   6 C      3.790     0.050    19.749     6.329
 100   6 C      2.751     0.263    22.562     7.778
 101   8 O      0.858    -0.465    23.028     6.434
 102   6 C      3.810    -0.098    22.365     6.732
 103   6 C      2.744     0.299    21.918     7.666
 104   8 O      0.859    -0.498    23.749     6.534
 105   7 N      2.640    -0.293    27.556     7.796
 106   1 H      0.860     0.165     1.304     1.789
 107   1 H      0.924     0.012     2.865     2.647
 108   1 H      0.924     0.078     1.997     2.210
 109   1 H      0.924     0.055     2.262     2.352
 110   1 H      0.860     0.226     0.984     1.554
 111   1 H      0.860     0.230     0.965     1.538
 112   7 N      2.702    -0.179    24.874     7.407
 113   6 C      3.790     0.021    20.240     6.407
 114   6 C      2.762     0.276    22.340     7.740
 115   8 O      0.858    -0.491    23.587     6.511
 116   6 C      3.806    -0.071    21.850     6.654
 117   6 C      3.848    -0.010    20.715     6.474
 118   6 C      3.756    -0.115    22.762     6.802
 119   6 C      3.758    -0.120    22.847     6.815
 120   1 H      0.860     0.179     1.219     1.730
 121   1 H      0.924     0.065     2.142     2.289
 122   1 H      0.924     0.058     2.224     2.332
 123   1 H      0.924     0.053     2.284     2.363
 124   1 H      0.924     0.030     2.584     2.514
 125   1 H      0.925     0.052     2.295     2.369
 126   1 H      0.925     0.026     2.651     2.546
 127   1 H      0.925     0.041     2.440     2.443
 128   1 H      0.925     0.059     2.209     2.324
 129   1 H      0.925     0.047     2.363     2.404
 130   1 H      0.925     0.047     2.359     2.402
 131   7 N      2.694    -0.174    24.760     7.390
 132   6 C      3.794     0.020    20.250     6.408
 133   6 C      2.757     0.264    22.539     7.774
 134   8 O      0.858    -0.475    23.241     6.464
 135   6 C      3.679     0.082    19.427     6.314
 136   8 O      1.656    -0.495    22.794     6.445
 137   1 H      0.860     0.233     0.951     1.527
 138   1 H      0.924     0.069     2.100     2.266
 139   1 H      0.923     0.049     2.327     2.385
 140   1 H      0.923     0.034     2.537     2.491
 141   1 H      0.805     0.348     0.592     1.209
 142   7 N      2.692    -0.159    24.438     7.342
 143   6 C      3.800     0.008    20.439     6.437
 144   6 C      2.754     0.272    22.402     7.750
 145   8 O      0.858    -0.504    23.863     6.549
 146   6 C      3.853    -0.017    20.847     6.494
 147   6 C      3.756    -0.119    22.842     6.814
 148   6 C      3.756    -0.118    22.808     6.809
 149   1 H      0.860     0.210     1.058     1.612
 150   1 H      0.924     0.090     1.878     2.143
 151   1 H      0.924     0.051     2.310     2.377
 152   1 H      0.925     0.071     2.076     2.253
 153   1 H      0.925     0.036     2.501     2.473
 154   1 H      0.925     0.052     2.298     2.370
 155   1 H      0.925     0.070     2.090     2.261
 156   1 H      0.925     0.047     2.360     2.402
 157   1 H      0.925     0.029     2.603     2.523
 158   7 N      2.695    -0.178    24.852     7.404
 159   6 C      3.792     0.017    20.294     6.415
 160   6 C      2.754     0.267    22.488     7.765
 161   8 O      0.858    -0.461    22.930     6.420
 162   6 C      3.806    -0.070    21.828     6.651
 163   6 C      3.801    -0.074    21.911     6.664
 164   6 C      3.804    -0.096    22.327     6.727
 165   6 C      3.731    -0.065    21.850     6.673
 166   7 N      3.482    -0.139    24.007     7.277
 167   1 H      0.860     0.228     0.976     1.548
 168   1 H      0.924     0.056     2.249     2.345
 169   1 H      0.924     0.035     2.512     2.479
 170   1 H      0.924     0.060     2.197     2.318
 171   1 H      0.924     0.066     2.127     2.281
 172   1 H      0.924     0.053     2.280     2.362
 173   1 H      0.924     0.069     2.101     2.267
 174   1 H      0.924     0.078     2.005     2.214
 175   1 H      0.924     0.138     1.474     1.899
 176   1 H      0.924     0.132     1.523     1.930
 177   1 H      0.859     0.305     0.699     1.310
 178   1 H      0.859     0.294     0.730     1.339
 179   1 H      0.859     0.293     0.735     1.343
 180   7 N      2.697    -0.174    24.761     7.390
 181   6 C      3.798     0.009    20.430     6.436
 182   6 C      2.763     0.269    22.462     7.761
 183   8 O      0.858    -0.483    23.420     6.488
 184   6 C      3.852    -0.023    20.944     6.509
 185   6 C      3.803    -0.065    21.736     6.637
 186   6 C      3.755    -0.118    22.817     6.811
 187   6 C      3.751    -0.110    22.662     6.789
 188   1 H      0.860     0.225     0.988     1.557
 189   1 H      0.924     0.080     1.977     2.199
 190   1 H      0.924     0.052     2.293     2.368
 191   1 H      0.924     0.047     2.353     2.399
 192   1 H      0.924     0.033     2.545     2.495
 193   1 H      0.925     0.054     2.265     2.353
 194   1 H      0.925     0.039     2.457     2.451
 195   1 H      0.925     0.047     2.360     2.402
 196   1 H      0.925     0.045     2.389     2.417
 197   1 H      0.925     0.031     2.570     2.507
 198   1 H      0.925     0.043     2.415     2.430
 199   7 N      2.692    -0.154    24.331     7.326
 200   6 C      3.792     0.016    20.314     6.419
 201   6 C      2.766     0.201    23.719     7.976
 202   8 O      0.856    -0.359    20.887     6.127
 203   6 C      3.807    -0.086    22.126     6.696
 204   6 C      3.800    -0.090    22.210     6.710
 205   6 C      3.744    -0.046    21.467     6.609
 206   7 N      2.699    -0.133    23.880     7.258
 207   6 C      2.739     0.218    23.398     7.920
 208   7 N      2.648    -0.258    26.697     7.674
 209   7 N      2.653    -0.239    26.240     7.608
 210   1 H      0.860     0.225     0.985     1.555
 211   1 H      0.924     0.099     1.793     2.094
 212   1 H      0.925     0.087     1.910     2.161
 213   1 H      0.924     0.081     1.974     2.197
 214   1 H      0.925     0.081     1.972     2.196
 215   1 H      0.924     0.070     2.080     2.256
 216   1 H      0.924     0.094     1.840     2.121
 217   1 H      0.924     0.107     1.723     2.053
 218   1 H      0.860     0.228     0.974     1.546
 219   1 H      0.860     0.254     0.868     1.459
 220   1 H      0.860     0.249     0.886     1.475
 221   1 H      0.860     0.240     0.925     1.507
 222   1 H      0.860     0.260     0.846     1.441
 223   7 N      2.641    -0.386    29.975     8.131
 224   6 C      3.783     0.022    20.218     6.405
 225   6 C      2.769     0.267    22.490     7.767
 226   8 O      0.859    -0.483    23.412     6.487
 227   6 C      3.806    -0.085    22.116     6.695
 228   6 C      3.801    -0.082    22.072     6.689
 229   6 C      3.738    -0.022    21.046     6.546
 230   7 N      2.699    -0.142    24.067     7.286
 231   6 C      2.735     0.235    23.084     7.866
 232   7 N      2.653    -0.253    26.584     7.658
 233   7 N      2.650    -0.247    26.427     7.635
 234   1 H      0.860     0.165     1.304     1.789
 235   1 H      0.924     0.050     2.323     2.383
 236   1 H      0.924     0.063     2.168     2.303
 237   1 H      0.924     0.053     2.278     2.360
 238   1 H      0.925     0.048     2.344     2.394
 239   1 H      0.924     0.067     2.118     2.276
 240   1 H      0.924     0.082     1.962     2.191
 241   1 H      0.924     0.076     2.017     2.221
 242   1 H      0.860     0.231     0.960     1.535
 243   1 H      0.860     0.248     0.892     1.479
 244   1 H      0.858     0.257     0.857     1.450
 245   1 H      0.860     0.241     0.918     1.501
 246   1 H      0.860     0.250     0.884     1.473
 247   7 N      2.690    -0.158    24.411     7.338
 248   6 C      3.806     0.012    20.374     6.426
 249   6 C      2.758     0.273    22.390     7.749
 250   8 O      0.858    -0.506    23.917     6.557
 251   6 C      3.726     0.117    18.768     6.185
 252   8 O      1.656    -0.451    21.867     6.313
 253   6 C      3.753    -0.126    22.976     6.835
 254   1 H      0.860     0.208     1.064     1.616
 255   1 H      0.924     0.091     1.872     2.140
 256   1 H      0.923     0.012     2.859     2.644
 257   1 H      0.805     0.340     0.612     1.229
 258   1 H      0.924     0.059     2.208     2.324
 259   1 H      0.925     0.013     2.835     2.633
 260   1 H      0.925     0.063     2.159     2.298
 261   7 N      2.688    -0.186    25.026     7.430
 262   6 C      3.800     0.014    20.338     6.421
 263   6 C      2.759     0.274    22.373     7.746
 264   8 O      0.859    -0.500    23.788     6.539
 265   6 C      3.851    -0.017    20.852     6.495
 266   6 C      3.756    -0.115    22.759     6.802
 267   6 C      3.756    -0.124    22.939     6.829
 268   1 H      0.860     0.230     0.966     1.540
 269   1 H      0.924     0.078     2.004     2.214
 270   1 H      0.924     0.047     2.363     2.404
 271   1 H      0.925     0.061     2.182     2.310
 272   1 H      0.925     0.031     2.577     2.510
 273   1 H      0.925     0.041     2.430     2.438
 274   1 H      0.925     0.059     2.212     2.326
 275   1 H      0.925     0.041     2.436     2.441
 276   1 H      0.925     0.065     2.142     2.289
 277   7 N      2.690    -0.184    24.997     7.426
 278   6 C      3.801     0.023    20.195     6.398
 279   6 C      2.756     0.269    22.458     7.760
 280   8 O      0.859    -0.464    23.007     6.431
 281   6 C      3.808    -0.071    21.846     6.653
 282   6 C      2.967    -0.010    28.275     8.722
 283   6 C      2.925    -0.045    29.110     8.848
 284   6 C      2.925    -0.044    29.100     8.846
 285   6 C      2.918    -0.081    30.022     8.985
 286   6 C      2.918    -0.062    29.552     8.915
 287   6 C      2.846     0.146    24.814     8.164
 288   8 O      1.656    -0.451    21.858     6.311
 289   1 H      0.860     0.230     0.966     1.539
 290   1 H      0.924     0.059     2.206     2.323
 291   1 H      0.924     0.071     2.080     2.255
 292   1 H      0.924     0.059     2.208     2.324
 293   1 H      0.926     0.048     2.349     2.396
 294   1 H      0.925     0.030     2.590     2.516
 295   1 H      0.926     0.071     2.073     2.251
 296   1 H      0.926     0.029     2.597     2.520
 297   1 H      0.801     0.349     0.590     1.207
 298   7 N      2.696    -0.171    24.698     7.381
 299   6 C      3.796     0.017    20.298     6.415
 300   6 C      2.768     0.276    22.326     7.738
 301   8 O      0.858    -0.490    23.566     6.509
 302   6 C      3.809    -0.042    21.323     6.573
 303   6 C      3.797    -0.085    22.132     6.699
 304   6 C      2.684     0.369    20.738     7.452
 305   8 O      0.856    -0.617    26.533     6.906
 306   8 O      0.856    -0.660    27.650     7.050
 307   1 H      0.860     0.198     1.117     1.655
 308   1 H      0.924     0.089     1.891     2.151
 309   1 H      0.925     0.059     2.216     2.328
 310   1 H      0.924     0.021     2.711     2.575
 311   1 H      0.924    -0.009     3.222     2.807
 312   1 H      0.924     0.022     2.699     2.569
 313   7 N      2.692    -0.168    24.638     7.372
 314   6 C      3.800     0.019    20.261     6.409
 315   6 C      2.756     0.271    22.426     7.755
 316   8 O      0.858    -0.479    23.322     6.475
 317   6 C      3.802    -0.080    22.031     6.683
 318   6 C      3.803    -0.069    21.823     6.651
 319   6 C      3.802    -0.092    22.253     6.716
 320   6 C      3.731    -0.043    21.441     6.610
 321   7 N      3.472    -0.184    24.977     7.423
 322   1 H      0.860     0.219     1.013     1.577
 323   1 H      0.924     0.060     2.199     2.319
 324   1 H      0.925     0.073     2.052     2.240
 325   1 H      0.924     0.064     2.152     2.294
 326   1 H      0.924     0.056     2.248     2.345
 327   1 H      0.924     0.053     2.279     2.361
 328   1 H      0.924     0.071     2.075     2.253
 329   1 H      0.924     0.077     2.011     2.218
 330   1 H      0.924     0.110     1.693     2.035
 331   1 H      0.925     0.102     1.767     2.079
 332   1 H      0.859     0.259     0.851     1.445
 333   1 H      0.859     0.269     0.812     1.412
 334   1 H      0.865     0.307     0.693     1.304
 335   7 N      2.693    -0.163    24.532     7.356
 336   6 C      3.795     0.023    20.186     6.398
 337   6 C      2.757     0.284    22.182     7.712
 338   8 O      0.858    -0.459    22.892     6.415
 339   6 C      3.727     0.123    18.677     6.170
 340   8 O      1.656    -0.489    22.648     6.424
 341   6 C      3.752    -0.131    23.076     6.850
 342   1 H      0.860     0.219     1.013     1.577
 343   1 H      0.924     0.069     2.102     2.267
 344   1 H      0.923     0.009     2.904     2.665
 345   1 H      0.805     0.341     0.609     1.226
 346   1 H      0.925     0.060     2.198     2.318
 347   1 H      0.925     0.056     2.246     2.344
 348   1 H      0.925     0.061     2.188     2.313
 349   7 N      2.689    -0.212    25.620     7.518
 350   6 C      3.795     0.048    19.771     6.332
 351   6 C      2.754     0.286    22.146     7.706
 352   8 O      0.858    -0.486    23.480     6.497
 353   6 C      3.800    -0.091    22.233     6.713
 354   6 C      2.682     0.370    20.733     7.451
 355   8 O      0.856    -0.625    26.751     6.934
 356   8 O      0.856    -0.628    26.811     6.942
 357   1 H      0.859     0.217     1.025     1.586
 358   1 H      0.923     0.025     2.660     2.550
 359   1 H      0.924     0.031     2.570     2.507
 360   1 H      0.924     0.030     2.583     2.514
 361   7 N      2.693    -0.178    24.863     7.406
 362   6 C      3.791     0.024    20.181     6.398
 363   6 C      2.766     0.262    22.579     7.782
 364   8 O      0.861    -0.487    23.502     6.500
 365   6 C      3.804    -0.084    22.100     6.693
 366   6 C      3.847    -0.008    20.688     6.470
 367   6 C      3.756    -0.126    22.974     6.834
 368   6 C      3.757    -0.120    22.846     6.815
 369   1 H      0.860     0.192     1.146     1.677
 370   1 H      0.924     0.076     2.023     2.224
 371   1 H      0.925     0.086     1.919     2.166
 372   1 H      0.924     0.058     2.223     2.332
 373   1 H      0.924     0.015     2.808     2.620
 374   1 H      0.925     0.043     2.412     2.429
 375   1 H      0.925     0.047     2.360     2.402
 376   1 H      0.925     0.064     2.151     2.294
 377   1 H      0.925     0.048     2.341     2.393
 378   1 H      0.925     0.069     2.099     2.265
 379   1 H      0.925     0.020     2.735     2.586
 380   7 N      2.761    -0.068    22.561     7.055
 381   6 C      3.838     0.029    20.056     6.371
 382   6 C      2.764     0.210    23.543     7.946
 383   8 O      0.856    -0.365    20.987     6.142
 384   6 C      3.833    -0.071    21.837     6.649
 385   6 C      3.832    -0.073    21.869     6.654
 386   6 C      3.761    -0.021    20.992     6.531
 387   1 H      0.924     0.046     2.369     2.407
 388   1 H      0.925     0.089     1.887     2.148
 389   1 H      0.925     0.067     2.119     2.276
 390   1 H      0.925     0.084     1.938     2.177
 391   1 H      0.924     0.053     2.289     2.366
 392   1 H      0.924     0.090     1.884     2.146
 393   1 H      0.924     0.065     2.142     2.289
 394   7 N      2.636    -0.391    30.129     8.152
 395   6 C      3.784     0.035    20.005     6.371
 396   6 C      2.767     0.202    23.706     7.974
 397   8 O      0.856    -0.366    21.015     6.146
 398   6 C      3.805    -0.081    22.042     6.684
 399   6 C      3.802    -0.080    22.029     6.682
 400   6 C      3.738    -0.032    21.224     6.574
 401   7 N      2.698    -0.137    23.960     7.270
 402   6 C      2.736     0.225    23.268     7.898
 403   7 N      2.647    -0.265    26.871     7.699
 404   7 N      2.653    -0.248    26.453     7.639
 405   1 H      0.860     0.158     1.351     1.821
 406   1 H      0.924     0.056     2.245     2.343
 407   1 H      0.924     0.060     2.195     2.317
 408   1 H      0.924     0.062     2.176     2.307
 409   1 H      0.924     0.049     2.337     2.390
 410   1 H      0.924     0.065     2.144     2.290
 411   1 H      0.925     0.097     1.813     2.106
 412   1 H      0.925     0.092     1.862     2.134
 413   1 H      0.860     0.227     0.980     1.551
 414   1 H      0.859     0.257     0.856     1.450
 415   1 H      0.860     0.236     0.941     1.520
 416   1 H      0.860     0.240     0.923     1.505
 417   1 H      0.860     0.251     0.880     1.470
 418   7 N      2.641    -0.382    29.881     8.118
 419   6 C      3.788     0.034    20.010     6.371
 420   6 C      2.770     0.207    23.609     7.958
 421   8 O      0.856    -0.377    21.230     6.178
 422   6 C      3.852    -0.024    20.967     6.513
 423   6 C      3.803    -0.060    21.653     6.625
 424   6 C      3.756    -0.115    22.764     6.803
 425   6 C      3.752    -0.118    22.822     6.813
 426   1 H      0.860     0.158     1.347     1.818
 427   1 H      0.924     0.047     2.359     2.402
 428   1 H      0.924     0.046     2.375     2.410
 429   1 H      0.924     0.036     2.497     2.471
 430   1 H      0.924     0.031     2.575     2.510
 431   1 H      0.925     0.059     2.216     2.328
 432   1 H      0.925     0.028     2.622     2.532
 433   1 H      0.925     0.040     2.451     2.448
 434   1 H      0.925     0.056     2.244     2.343
 435   1 H      0.925     0.044     2.402     2.423
 436   1 H      0.925     0.048     2.345     2.395
 437   7 N      2.636    -0.386    29.996     8.134
 438   6 C      3.785     0.033    20.037     6.376
 439   6 C      2.769     0.204    23.672     7.968
 440   8 O      0.856    -0.381    21.312     6.189
 441   6 C      3.854    -0.014    20.780     6.484
 442   6 C      3.756    -0.117    22.788     6.806
 443   6 C      3.756    -0.113    22.717     6.796
 444   1 H      0.860     0.157     1.352     1.822
 445   1 H      0.924     0.059     2.207     2.323
 446   1 H      0.924     0.030     2.585     2.514
 447   1 H      0.925     0.051     2.310     2.377
 448   1 H      0.925     0.024     2.678     2.559
 449   1 H      0.925     0.052     2.291     2.367
 450   1 H      0.925     0.046     2.375     2.410
 451   1 H      0.925     0.051     2.302     2.373
 452   1 H      0.925     0.044     2.394     2.420
 453   7 N      2.641    -0.383    29.916     8.123
 454   6 C      3.782     0.046    19.820     6.342
 455   6 C      2.767     0.210    23.547     7.947
 456   8 O      0.856    -0.371    21.108     6.160
 457   6 C      3.807    -0.101    22.428     6.742
 458   6 C      2.686     0.362    20.861     7.475
 459   8 O      0.856    -0.555    25.040     6.709
 460   8 O      0.875    -0.564    25.250     6.738
 461   1 H      0.860     0.157     1.357     1.825
 462   1 H      0.924     0.054     2.265     2.353
 463   1 H      0.924     0.048     2.348     2.397
 464   1 H      0.924     0.053     2.283     2.363
 465   1 H      0.862     0.189     1.165     1.691
 466   1 H      0.930     0.065     2.145     2.290
 467   1 H      0.862     0.191     1.154     1.683
 468   1 H      0.930     0.079     1.991     2.206
 469   1 H      0.862     0.192     1.147     1.677
 470   1 H      0.930     0.085     1.925     2.170
 471   1 H      0.862     0.192     1.148     1.678
 472   1 H      0.930     0.063     2.164     2.300
 473   1 H      0.862     0.192     1.146     1.677
 474   1 H      0.930     0.065     2.137     2.286
 475   1 H      0.862     0.179     1.219     1.729
 476   1 H      0.930     0.065     2.138     2.287
 477   1 H      0.862     0.191     1.152     1.681
 478   1 H      0.930     0.065     2.139     2.287
 479   1 H      0.862     0.181     1.208     1.722
 480   1 H      0.930     0.074     2.044     2.235

 Mol. C6AA /au·bohr⁶  :    2053719.575907
 Mol. C8AA /au·bohr⁸  :   45429730.652333
 Mol. α(0) /au        :       2148.423248


Wiberg/Mayer (AO) data.
largest (>0.10) Wiberg bond orders for each atom
          total WBO             WBO to atom ...
     1  N   2.992        C    2 1.007    H    9 0.959    H  465 0.950
     2  C   3.980        N    1 1.007    C    3 0.982    H   10 0.957    C    5 0.957
     3  C   3.888        O    4 1.891    C    2 0.982    H  466 0.957
     4  O   2.025        C    3 1.891
     5  C   3.991        C    6 0.994    H   12 0.975    H   11 0.970    C    2 0.957
     6  C   3.995        C    7 1.008    C    8 1.008    C    5 0.994    H   13 0.969
     7  C   3.994        C    6 1.008    H   16 0.983    H   15 0.982    H   14 0.976
     8  C   3.995        C    6 1.008    H   19 0.987    H   17 0.985    H   18 0.985
     9  H   0.976        N    1 0.959
    10  H   0.995        C    2 0.957
    11  H   0.997        C    5 0.970
    12  H   0.999        C    5 0.975
    13  H   1.000        C    6 0.969
    14  H   0.997        C    7 0.976
    15  H   0.998        C    7 0.982
    16  H   0.997        C    7 0.983
    17  H   0.997        C    8 0.985
    18  H   0.998        C    8 0.985
    19  H   0.999        C    8 0.987
    20  N   2.992        C   21 1.024    H  467 0.944    H   32 0.923
    21  C   3.987        N   20 1.024    H   33 0.962    C   24 0.946    C   22 0.939
    22  C   3.933        O   23 1.616    N   41 1.298    C   21 0.939
    23  O   1.960        C   22 1.616    N   41 0.189
    24  C   3.991        C   25 1.012    H   35 0.972    H   34 0.957    C   21 0.946
    25  C   3.985        C   26 1.409    C   27 1.395    C   24 1.012
    26  C   3.986        C   28 1.439    C   25 1.409    H   36 0.962    C   29 0.107
    27  C   3.991        C   29 1.468    C   25 1.395    H   37 0.970    C   28 0.104
    28  C   3.978        C   26 1.439    C   30 1.374    H   38 0.959    C   27 0.104
    29  C   3.990        C   27 1.468    C   30 1.357    H   39 0.969    C   26 0.107
    30  C   3.942        C   28 1.374    C   29 1.357    O   31 1.078
    31  O   2.093        C   30 1.078    H   40 0.854
    32  H   0.964        N   20 0.923
    33  H   0.999        C   21 0.962
    34  H   0.997        C   24 0.957
    35  H   0.999        C   24 0.972
    36  H   0.995        C   26 0.962
    37  H   1.000        C   27 0.970
    38  H   0.993        C   28 0.959
    39  H   0.998        C   29 0.969
    40  H   0.878        O   31 0.854
    41  N   3.473        C   22 1.298    C   42 0.973    H   49 0.928    O   23 0.189
    42  C   3.961        N   41 0.973    C   45 0.961    H   50 0.956    C   43 0.935
    43  C   3.944        O   44 1.648    N   60 1.288    C   42 0.935
    44  O   1.965        C   43 1.648    N   60 0.198
    45  C   3.987        C   47 1.010    C   46 0.991    H   51 0.965    C   42 0.961
    46  C   3.994        C   48 1.021    C   45 0.991    H   52 0.977    H   53 0.974
    47  C   3.994        C   45 1.010    H   54 0.984    H   56 0.980    H   55 0.979
    48  C   3.996        C   46 1.021    H   59 0.988    H   58 0.988    H   57 0.986
    49  H   0.961        N   41 0.928
    50  H   0.995        C   42 0.956
    51  H   0.997        C   45 0.965
    52  H   0.998        C   46 0.977
    53  H   0.998        C   46 0.974
    54  H   0.996        C   47 0.984
    55  H   0.999        C   47 0.979
    56  H   0.998        C   47 0.980
    57  H   0.997        C   48 0.986
    58  H   0.999        C   48 0.988
    59  H   0.999        C   48 0.988
    60  N   3.469        C   43 1.288    C   61 0.989    H   67 0.912    O   44 0.198
    61  C   3.969        N   60 0.989    H   68 0.953    C   64 0.948    C   62 0.943
    62  C   3.949        O   63 1.597    N   74 1.329    C   61 0.943
    63  O   1.958        C   62 1.597    N   74 0.199
    64  C   3.960        C   66 0.999    O   65 0.996    H   69 0.960    C   61 0.948
    65  O   1.931        C   64 0.996    H   70 0.862
    66  C   3.990        C   64 0.999    H   73 0.984    H   72 0.984    H   71 0.981
    67  H   0.954        N   60 0.912
    68  H   0.993        C   61 0.953
[...]
   145  O   1.949        C  144 1.609    N  158 0.201
   146  C   3.986        C  148 1.008    C  147 1.007    H  151 0.965    C  143 0.955
   147  C   3.992        C  146 1.007    H  154 0.985    H  153 0.984    H  152 0.982
   148  C   3.992        C  146 1.008    H  156 0.985    H  157 0.982    H  155 0.981
   149  H   0.956        N  142 0.916
   150  H   0.992        C  143 0.949
   151  H   0.997        C  146 0.965
   152  H   0.994        C  147 0.982
   153  H   0.999        C  147 0.984
   154  H   0.997        C  147 0.985
   155  H   0.995        C  148 0.981
   156  H   0.998        C  148 0.985
   157  H   0.999        C  148 0.982
   158  N   3.484        C  144 1.325    C  159 0.969    H  167 0.896    O  145 0.201
   159  C   3.954        C  162 0.970    N  158 0.969    H  168 0.960    C  160 0.929
   160  C   3.956        O  161 1.621    N  180 1.319    C  159 0.929
   161  O   1.977        C  160 1.621    N  180 0.204
   162  C   3.984        C  163 1.004    H  169 0.977    C  159 0.970    H  170 0.958
   163  C   3.989        C  162 1.004    C  164 1.002    H  172 0.977    H  171 0.970
   164  C   3.987        C  165 1.012    C  163 1.002    H  173 0.973    H  174 0.968
   165  C   3.911        C  164 1.012    H  176 0.960    N  166 0.959    H  175 0.956
   166  N   3.667        C  165 0.959    H  179 0.898    H  178 0.898    H  177 0.889
   167  H   0.948        N  158 0.896
   168  H   0.996        C  159 0.960
   169  H   0.998        C  162 0.977
   170  H   0.996        C  162 0.958
   171  H   0.996        C  163 0.970
   172  H   0.997        C  163 0.977
   173  H   0.995        C  164 0.973
   174  H   0.994        C  164 0.968
   175  H   0.981        C  165 0.956
   176  H   0.983        C  165 0.960
   177  H   0.907        N  166 0.889
   178  H   0.913        N  166 0.898
   179  H   0.914        N  166 0.898
   180  N   3.491        C  160 1.319    C  181 0.971    H  188 0.890    O  161 0.204
   181  C   3.957        N  180 0.971    C  184 0.962    H  189 0.955    C  182 0.936
   182  C   3.949        O  183 1.600    N  199 1.326    C  181 0.936
   183  O   1.987        C  182 1.600    N  199 0.197
   184  C   3.988        C  186 1.008    C  185 0.995    C  181 0.962    H  190 0.960
   185  C   3.995        C  187 1.019    C  184 0.995    H  191 0.976    H  192 0.975
   186  C   3.993        C  184 1.008    H  195 0.986    H  194 0.984    H  193 0.981
   187  C   3.995        C  185 1.019    H  196 0.986    H  197 0.986    H  198 0.985
   188  H   0.949        N  180 0.890
   189  H   0.993        C  181 0.955
   190  H   0.997        C  184 0.960
   191  H   0.998        C  185 0.976
   192  H   0.999        C  185 0.975
   193  H   0.996        C  186 0.981
   194  H   0.998        C  186 0.984
   195  H   0.998        C  186 0.986
   196  H   0.997        C  187 0.986
   197  H   0.999        C  187 0.986
   198  H   0.998        C  187 0.985
   199  N   3.487        C  182 1.326    C  200 0.977    H  210 0.913    O  183 0.197
   200  C   3.957        C  201 0.981    N  199 0.977    C  203 0.950    H  211 0.933
   201  C   3.899        O  202 1.903    C  200 0.981    H  470 0.952
   202  O   2.047        C  201 1.903
   203  C   3.976        C  204 1.005    H  213 0.966    H  212 0.965    C  200 0.950
   204  C   3.987        C  205 1.006    C  203 1.005    H  215 0.972    H  214 0.971
   205  C   3.950        C  204 1.006    N  206 0.981    H  216 0.956    H  217 0.955
   206  N   3.465        C  207 1.315    C  205 0.981    H  218 0.913    N  209 0.110
   207  C   3.978        N  209 1.340    N  206 1.315    N  208 1.290
   208  N   3.358        C  207 1.290    H  220 0.917    H  219 0.909
   209  N   3.423        C  207 1.340    H  221 0.919    H  222 0.912    N  206 0.110
   210  H   0.949        N  199 0.913
   211  H   0.990        C  200 0.933
   212  H   0.992        C  203 0.965
   213  H   0.993        C  203 0.966
   214  H   0.993        C  204 0.971
   215  H   0.995        C  204 0.972
   216  H   0.991        C  205 0.956
   217  H   0.988        C  205 0.955
   218  H   0.948        N  206 0.913
   219  H   0.935        N  208 0.909
   220  H   0.938        N  208 0.917
   221  H   0.943        N  209 0.919
   222  H   0.932        N  209 0.912
   223  N   2.990        C  224 1.013    H  234 0.955    H  471 0.948
   224  C   3.986        N  223 1.013    C  227 0.970    H  235 0.963    C  225 0.948
   225  C   3.938        O  226 1.623    N  247 1.295    C  224 0.948
   226  O   1.949        C  225 1.623    N  247 0.190
   227  C   3.992        C  228 1.009    H  237 0.973    C  224 0.970    H  236 0.968
   228  C   3.992        C  227 1.009    C  229 0.993    H  238 0.974    H  239 0.973
   229  C   3.956        C  228 0.993    N  230 0.987    H  240 0.969    H  241 0.962
   230  N   3.466        C  231 1.306    C  229 0.987    H  242 0.916    N  232 0.102
   231  C   3.977        N  232 1.324    N  233 1.315    N  230 1.306
   232  N   3.396        C  231 1.324    H  243 0.918    H  244 0.912    N  230 0.102    N  233 0.102
   233  N   3.392        C  231 1.315    H  246 0.918    H  245 0.917    N  232 0.102
   234  H   0.973        N  223 0.955
   235  H   0.997        C  224 0.963
   236  H   0.996        C  227 0.968
   237  H   0.997        C  227 0.973
   238  H   0.997        C  228 0.974
   239  H   0.995        C  228 0.973
   240  H   0.993        C  229 0.969
   241  H   0.994        C  229 0.962
   242  H   0.947        N  230 0.916
   243  H   0.939        N  232 0.918
   244  H   0.933        N  232 0.912
   245  H   0.942        N  233 0.917
   246  H   0.938        N  233 0.918
   247  N   3.475        C  225 1.295    C  248 0.984    H  254 0.926    O  226 0.190
   248  C   3.970        N  247 0.984    C  251 0.971    H  255 0.946    C  249 0.926
   249  C   3.946        O  250 1.629    N  261 1.311    C  248 0.926
   250  O   1.946        C  249 1.629    N  261 0.201
   251  C   3.969        O  252 1.003    C  253 0.997    C  248 0.971    H  256 0.960
   252  O   1.945        C  251 1.003    H  257 0.869
   253  C   3.989        C  251 0.997    H  259 0.984    H  260 0.983    H  258 0.976
   254  H   0.956        N  247 0.926
   255  H   0.992        C  248 0.946
   256  H   1.000        C  251 0.960
   257  H   0.884        O  252 0.869
   258  H   0.996        C  253 0.976
   259  H   1.000        C  253 0.984
   260  H   0.996        C  253 0.983
   261  N   3.474        C  249 1.311    C  262 0.983    H  268 0.883    O  250 0.201
   262  C   3.960        N  261 0.983    C  265 0.956    H  269 0.951    C  263 0.937
   263  C   3.942        O  264 1.636    N  277 1.294    C  262 0.937
   264  O   1.951        C  263 1.636    N  277 0.196
   265  C   3.988        C  266 1.008    C  267 1.007    H  270 0.966    C  262 0.956
   266  C   3.993        C  265 1.008    H  273 0.986    H  272 0.985    H  271 0.983
   267  C   3.991        C  265 1.007    H  275 0.986    H  274 0.983    H  276 0.974
   268  H   0.947        N  261 0.883
   269  H   0.993        C  262 0.951
   270  H   0.998        C  265 0.966
   271  H   0.995        C  266 0.983
   272  H   0.999        C  266 0.985
   273  H   0.998        C  266 0.986
   274  H   0.996        C  267 0.983
   275  H   0.998        C  267 0.986
   276  H   0.996        C  267 0.974
   277  N   3.458        C  263 1.294    C  278 0.986    H  289 0.892    O  264 0.196
   278  C   3.967        N  277 0.986    C  281 0.952    H  290 0.949    C  279 0.944
   279  C   3.944        O  280 1.616    N  298 1.304    C  278 0.944
   280  O   1.975        C  279 1.616    N  298 0.196
   281  C   3.987        C  282 1.010    H  292 0.970    H  291 0.958    C  278 0.952
   282  C   3.986        C  283 1.414    C  284 1.393    C  281 1.010
   283  C   3.989        C  285 1.448    C  282 1.414    H  293 0.965    C  286 0.104
   284  C   3.991        C  286 1.467    C  282 1.393    H  294 0.966    C  285 0.104
   285  C   3.983        C  283 1.448    C  287 1.366    H  295 0.959    C  284 0.104
   286  C   3.990        C  284 1.467    C  287 1.352    H  296 0.970    C  283 0.104
   287  C   3.943        C  285 1.366    C  286 1.352    O  288 1.095
   288  O   2.091        C  287 1.095    H  297 0.796
   289  H   0.947        N  277 0.892
   290  H   0.996        C  278 0.949
   291  H   0.994        C  281 0.958
   292  H   0.996        C  281 0.970
   293  H   0.998        C  283 0.965
   294  H   0.999        C  284 0.966
   295  H   0.995        C  285 0.959
   296  H   0.999        C  286 0.970
   297  H   0.878        O  288 0.796
   298  N   3.479        C  279 1.304    C  299 0.977    H  307 0.924    O  280 0.196
   299  C   3.962        N  298 0.977    C  302 0.963    H  308 0.947    C  300 0.944
   300  C   3.949        O  301 1.632    N  313 1.305    C  299 0.944
   301  O   1.954        C  300 1.632    N  313 0.198
   302  C   3.992        C  303 1.005    H  310 0.978    H  309 0.969    C  299 0.963
   303  C   3.986        C  302 1.005    H  311 0.980    H  312 0.971    C  304 0.906
   304  C   3.935        O  305 1.504    O  306 1.502    C  303 0.906
   305  O   1.803        C  304 1.504    O  306 0.217
   306  O   1.791        C  304 1.502    O  305 0.217
   307  H   0.960        N  298 0.924
   308  H   0.992        C  299 0.947
   309  H   0.996        C  302 0.969
   310  H   0.999        C  302 0.978
   311  H   1.000        C  303 0.980
   312  H   0.999        C  303 0.971
   313  N   3.470        C  300 1.305    C  314 0.984    H  322 0.905    O  301 0.198
   314  C   3.964        N  313 0.984    C  317 0.959    H  323 0.951    C  315 0.943
   315  C   3.942        O  316 1.631    N  335 1.295    C  314 0.943
   316  O   1.965        C  315 1.631    N  335 0.194
   317  C   3.980        C  318 1.002    H  324 0.972    H  325 0.971    C  314 0.959
   318  C   3.990        C  319 1.004    C  317 1.002    H  327 0.976    H  326 0.972
   319  C   3.988        C  320 1.012    C  318 1.004    H  328 0.971    H  329 0.970
   320  C   3.931        C  319 1.012    H  331 0.967    N  321 0.966    H  330 0.965
   321  N   3.621        C  320 0.966    H  333 0.910    H  332 0.909    H  334 0.731
   322  H   0.952        N  313 0.905
   323  H   0.996        C  314 0.951
   324  H   0.995        C  317 0.972
   325  H   0.995        C  317 0.971
   326  H   0.997        C  318 0.972
   327  H   0.997        C  318 0.976
   328  H   0.995        C  319 0.971
   329  H   0.993        C  319 0.970
   330  H   0.988        C  320 0.965
   331  H   0.989        C  320 0.967
   332  H   0.933        N  321 0.909
   333  H   0.927        N  321 0.910
   334  H   0.906        N  321 0.731    O  460 0.156
   335  N   3.476        C  315 1.295    C  336 1.000    H  342 0.918    O  316 0.194
   336  C   3.976        N  335 1.000    C  339 0.953    H  343 0.952    C  337 0.929
   337  C   3.950        O  338 1.647    N  349 1.292    C  336 0.929
   338  O   1.986        C  337 1.647    N  349 0.189
   339  C   3.957        C  341 0.999    O  340 0.990    H  344 0.959    C  336 0.953
   340  O   1.931        C  339 0.990    H  345 0.868
   341  C   3.990        C  339 0.999    H  348 0.984    H  347 0.984    H  346 0.982
   342  H   0.952        N  335 0.918
   343  H   0.995        C  336 0.952
   344  H   0.999        C  339 0.959
   345  H   0.884        O  340 0.868
   346  H   0.996        C  341 0.982
   347  H   0.997        C  341 0.984
   348  H   0.996        C  341 0.984
   349  N   3.423        C  337 1.292    C  350 0.969    H  357 0.873    O  338 0.189
   350  C   3.967        C  353 0.992    N  349 0.969    H  358 0.951    C  351 0.934
   351  C   3.953        O  352 1.643    N  361 1.290    C  350 0.934
   352  O   1.955        C  351 1.643    N  361 0.191
   353  C   3.985        C  350 0.992    H  360 0.969    H  359 0.966    C  354 0.912
   354  C   3.935        O  356 1.529    O  355 1.468    C  353 0.912
   355  O   1.829        C  354 1.468    O  356 0.212
   356  O   1.819        C  354 1.529    O  355 0.212
   357  H   0.953        N  349 0.873
   358  H   0.999        C  350 0.951
   359  H   0.999        C  353 0.966
   360  H   0.999        C  353 0.969
   361  N   3.451        C  351 1.290    C  362 0.960    H  369 0.922    O  352 0.191
   362  C   3.944        C  365 0.973    N  361 0.960    H  370 0.952    C  363 0.934
   363  C   3.950        O  364 1.584    N  380 1.324    C  362 0.934
   364  O   1.992        C  363 1.584    N  380 0.197
   365  C   3.980        C  366 0.995    C  362 0.973    H  372 0.969    H  371 0.968
   366  C   3.992        C  367 1.009    C  368 1.005    C  365 0.995    H  373 0.960
   367  C   3.992        C  366 1.009    H  376 0.983    H  374 0.983    H  375 0.980
   368  C   3.993        C  366 1.005    H  379 0.986    H  378 0.983    H  377 0.982
   369  H   0.963        N  361 0.922
   370  H   0.994        C  362 0.952
   371  H   0.992        C  365 0.968
   372  H   0.996        C  365 0.969
   373  H   1.000        C  366 0.960
   374  H   0.998        C  367 0.983
   375  H   0.998        C  367 0.980
   376  H   0.996        C  367 0.983
   377  H   0.997        C  368 0.982
   378  H   0.995        C  368 0.983
   379  H   1.000        C  368 0.986
   380  N   3.536        C  363 1.324    C  386 0.970    C  381 0.955    O  364 0.197
   381  C   3.970        C  382 0.976    C  384 0.972    H  387 0.959    N  380 0.955
   382  C   3.914        O  383 1.862    C  381 0.976    H  472 0.957
   383  O   2.030        C  382 1.862
   384  C   3.983        C  385 1.003    H  389 0.975    C  381 0.972    H  388 0.970
   385  C   3.989        C  384 1.003    C  386 1.001    H  391 0.979    H  390 0.972
   386  C   3.956        C  385 1.001    N  380 0.970    H  393 0.963    H  392 0.963
   387  H   0.998        C  381 0.959
   388  H   0.992        C  384 0.970
   389  H   0.995        C  384 0.975
   390  H   0.992        C  385 0.972
   391  H   0.997        C  385 0.979
   392  H   0.992        C  386 0.963
   393  H   0.996        C  386 0.963
   394  N   2.990        C  395 1.004    H  405 0.957    H  473 0.946
   395  C   3.981        N  394 1.004    C  396 0.977    H  406 0.963    C  398 0.963
   396  C   3.892        O  397 1.900    C  395 0.977    H  474 0.956
   397  O   2.041        C  396 1.900
   398  C   3.991        C  399 1.007    H  408 0.972    H  407 0.971    C  395 0.963
   399  C   3.992        C  398 1.007    C  400 0.994    H  410 0.971    H  409 0.967
   400  C   3.952        C  399 0.994    N  401 0.986    H  411 0.965    H  412 0.961
   401  N   3.471        C  402 1.310    C  400 0.986    H  413 0.919    N  404 0.103
   402  C   3.977        N  404 1.322    N  401 1.310    N  403 1.309
   403  N   3.373        C  402 1.309    H  415 0.922    H  414 0.859    N  404 0.101
   404  N   3.406        C  402 1.322    H  416 0.920    H  417 0.917    N  401 0.103    N  403 0.101
   405  H   0.975        N  394 0.957
   406  H   0.997        C  395 0.963
   407  H   0.996        C  398 0.971
   408  H   0.996        C  398 0.972
   409  H   0.997        C  399 0.967
   410  H   0.996        C  399 0.971
   411  H   0.991        C  400 0.965
   412  H   0.991        C  400 0.961
   413  H   0.949        N  401 0.919
   414  H   0.934        N  403 0.859
   415  H   0.944        N  403 0.922
   416  H   0.942        N  404 0.920
   417  H   0.937        N  404 0.917
   418  N   2.996        C  419 1.004    H  426 0.957    H  475 0.943
   419  C   3.980        N  418 1.004    C  420 0.976    H  427 0.962    C  422 0.949
   420  C   3.890        O  421 1.898    C  419 0.976    H  476 0.957
   421  O   2.032        C  420 1.898
   422  C   3.991        C  424 1.009    C  423 0.995    H  428 0.965    C  419 0.949
   423  C   3.996        C  425 1.018    C  422 0.995    H  429 0.976    H  430 0.965
   424  C   3.995        C  422 1.009    H  433 0.986    H  432 0.982    H  431 0.981
   425  C   3.992        C  423 1.018    H  434 0.983    H  436 0.983    H  435 0.978
   426  H   0.975        N  418 0.957
   427  H   0.998        C  419 0.962
   428  H   0.998        C  422 0.965
   429  H   0.998        C  423 0.976
   430  H   0.999        C  423 0.965
   431  H   0.997        C  424 0.981
   432  H   0.999        C  424 0.982
   433  H   0.998        C  424 0.986
   434  H   0.996        C  425 0.983
   435  H   0.998        C  425 0.978
   436  H   0.998        C  425 0.983
   437  N   2.998        C  438 1.017    H  444 0.958    H  477 0.945
   438  C   3.984        N  437 1.017    C  439 0.985    H  445 0.960    C  441 0.933
   439  C   3.895        O  440 1.890    C  438 0.985    H  478 0.955
   440  O   2.032        C  439 1.890
   441  C   3.992        C  442 1.008    C  443 1.008    H  446 0.968    C  438 0.933
   442  C   3.995        C  441 1.008    H  448 0.985    H  449 0.985    H  447 0.980
   443  C   3.995        C  441 1.008    H  451 0.985    H  450 0.981    H  452 0.980
   444  H   0.975        N  437 0.958
   445  H   0.996        C  438 0.960
   446  H   0.999        C  441 0.968
   447  H   0.997        C  442 0.980
   448  H   0.999        C  442 0.985
   449  H   0.997        C  442 0.985
   450  H   0.998        C  443 0.981
   451  H   0.997        C  443 0.985
   452  H   0.998        C  443 0.980
   453  N   2.990        C  454 0.993    H  461 0.959    H  479 0.950
   454  C   3.981        N  453 0.993    C  457 0.977    C  455 0.973    H  462 0.960
   455  C   3.889        O  456 1.908    C  454 0.973    H  480 0.955
   456  O   2.040        C  455 1.908
   457  C   3.988        C  454 0.977    H  463 0.968    H  464 0.953    C  458 0.947
   458  C   3.938        O  459 1.556    O  460 1.392    C  457 0.947
   459  O   1.913        C  458 1.556    O  460 0.201
   460  O   1.953        C  458 1.392    O  459 0.201    H  334 0.156
   461  H   0.975        N  453 0.959
   462  H   0.997        C  454 0.960
   463  H   0.998        C  457 0.968
   464  H   0.997        C  457 0.953
   465  H   0.964        N    1 0.950
   466  H   0.996        C    3 0.957
   467  H   0.963        N   20 0.944
   468  H   0.993        C   76 0.953
   469  H   0.963        N   98 0.949
   470  H   0.992        C  201 0.952
   471  H   0.963        N  223 0.948
   472  H   0.996        C  382 0.957
   473  H   0.963        N  394 0.946
   474  H   0.996        C  396 0.956
   475  H   0.968        N  418 0.943
   476  H   0.996        C  420 0.957
   477  H   0.963        N  437 0.945
   478  H   0.996        C  439 0.955
   479  H   0.967        N  453 0.950
   480  H   0.995        C  455 0.955
 
molecular dipole:
                 x           y           z       tot (Debye)
 q only:      192.288     131.702     316.475
   full:      195.016     130.805     314.957     998.572
molecular quadrupole (traceless):
                xx          xy          yy          xz          yz          zz
 q only:   -10690.510   18942.092  -25225.492   46780.122   31038.567   35916.002
  q+dip:    -9917.631   19149.202  -25391.797   47034.817   30691.430   35309.429
   full:    -9905.759   19142.648  -25403.616   47037.746   30684.309   35309.375


           -------------------------------------------------
          | TOTAL ENERGY             -717.204146189884 Eh   |
          | GRADIENT NORM               0.638706296803 Eh/α |
          | HOMO-LUMO GAP               1.561305331096 eV   |
           -------------------------------------------------

------------------------------------------------------------------------
 * finished run on 2019/05/31 at 06:33:28.841     
------------------------------------------------------------------------
 total:
 * wall-time:     0 d,  0 h,  0 min, 22.140 sec
 *  cpu-time:     0 d,  0 h,  0 min, 42.969 sec
 * ratio c/w:     1.941 speedup
 SCF:
 * wall-time:     0 d,  0 h,  0 min, 20.810 sec
 *  cpu-time:     0 d,  0 h,  0 min, 40.646 sec
 * ratio c/w:     1.953 speedup

