      -----------------------------------------------------------      
     |                   =====================                   |     
     |                           x T B                           |     
     |                   =====================                   |     
     |                         S. Grimme                         |     
     |          Mulliken Center for Theoretical Chemistry        |     
     |                    University of Bonn                     |     
     |                 Version 6.0.1 (SAW181210)                 |     
      -----------------------------------------------------------      

   This program is distributed in the hope that it will be useful,
   but WITHOUT ANY WARRANTY; without even the implied warranty of
   MERCHANTABILITY or FITNESS FOR A PARTICULAR PURPOSE.
   
   FOR NON-COMMERCIAL, ACADEMIA USE ONLY.
   
   Cite this work as:
   S. Grimme, C. Bannwarth, P. Shushkov, J. Comput. Theory Chem., 2017,
   13, 1989-2009.
   C. Bannwarth, S. Ehlert and S. Grimme., ChemRxiv, 2018, preprint.
   http://doi.org/10.26434/chemrxiv.7246238.v1
   
   for sTDA-xTB:
   S. Grimme and C. Bannwarth, J. Chem. Phys., 2016, 145, 054103.
   
   in the mass-spec context:
   V. Asgeirsson, C. Bauer and S. Grimme, Chem. Sci., 2017, 8, 4879.
   
   if GBSA is used:
   P. Shushkov, F. März and S. Grimme, unpublished.
   
   for ANC optimizer:
   S. Grimme, unpublished.
   Rational Function algorithm used in ANCopt:
   F. Eckert, P. Pulay, H.-J. Werner, J. Comput. Chem., 1997, 18, 1473.
   
   with help from (in alphabetical order)
   C. Bannwarth, F. Bohle, G. Brandenburg, E. Caldeweyher, M. Checinski,
   S. Dohm, S. Ehlert, S. Ehrlich, F. März, H. Neugebauer, J. Pisarek,
   P. Pracht, P. Shushkov, and S. Spicher.
   
 * started run on 2019/02/13 at 00:17:49.186     
========================================================================
 # omp threads = 16
========================================================================
number of atoms            : 526
number of electrons        : 1404
charge                     : 0
spin                       : .0
first test random number   : .0490

########################################################################
# WARNING! Please study the warnings concerning your input carefully
#  - Process number higher than OMP_NUM_THREADS, I hope you know what you are doing.
########################################################################

           ------------------------------------------------- 
          |                 G F N 2 - x T B                 |
          | Geometry, Frequencies, Noncovalent interactions |
          |            JCTC 2018 parametrisation            |
           ------------------------------------------------- 
 
      method parameters     
 k(s)        :  1.8500
 k(p)        :  2.2300
 k(d)        :  2.2300
 k(f)        :  2.0000
 kEN (H0ij)  : -2.0000
 D4 a1       :  0.5200
 D4 a2       :  5.0000
 D4 s6       :  1.0000
 D4 s8       :  2.7000
 D4 s9       :  5.0000
 alphaj      :  2.0000

 Solvent             : h2o
 Using internal parameter file: .param_gbsa2_h2o
 Gsolv ref. state (COSMO-RS): gsolv [1 M gas/solution]
 temperature (mdtemp)       :    298.150000000000     
 dielectric constant        :    80.2000000000000     
 rho                        :    1.00000000000000     
 mass                       :    18.0000000000000     
 surface tension            :    15.5689454083859     
 probe radius               :   0.975313790000000     
 vdW radii scaling          :    1.00000000000000     
 Gshift (Eh)                :   1.857443126794793E-003
 c1                         :    1.55243817000000     
 soset                      :   0.130326360000000     
 HB correction              :  T

            Z     q(EN)     CN     RAES       Cart. coordinates
     1  N   5.0   -0.21    3.20    1.96   274.57636   130.41810   216.94708
     2  C   4.0    0.03    4.23    4.06   274.14408   129.24812   214.51295
     3  C   4.0    0.07    3.22    3.04   273.66786   131.24871   212.49634
     4  O   6.0   -0.33    1.21    1.80   274.53110   130.99919   210.35678
     5  C   4.0   -0.05    4.35    4.30   271.88630   127.44835   214.55475
     6  C   4.0   -0.03    4.17    3.94   272.33279   125.00139   216.04249
     7  C   4.0   -0.08    4.11    3.82   269.88021   123.47511   216.08234
     8  C   4.0   -0.08    4.10    3.81   274.44821   123.40810   214.89775
     9  H   1.0    0.08    1.02    1.43   273.44631   129.91403   218.41308
    10  H   1.0    0.04    1.05    1.44   275.85771   128.23764   213.92851
    11  H   1.0    0.04    1.03    1.43   270.28236   128.47141   215.35234
    12  H   1.0    0.04    1.03    1.43   271.42517   126.96828   212.60130
    13  H   1.0    0.04    1.05    1.44   272.83551   125.49634   217.98564
    14  H   1.0    0.04    1.00    1.43   270.10832   121.76547   217.19711
    15  H   1.0    0.04    1.00    1.43   268.34728   124.57146   216.90406
    16  H   1.0    0.04    1.00    1.43   269.33356   122.92752   214.17709
    17  H   1.0    0.04    1.00    1.43   274.50161   121.57447   215.81953
    18  H   1.0    0.04    1.00    1.43   274.11324   123.11650   212.89122
    19  H   1.0    0.03    1.00    1.43   276.28289   124.29565   215.14162
    20  N   5.0   -0.20    3.25    1.97   279.70419   133.97661   210.58692
    21  C   4.0    0.03    4.41    4.40   280.97168   132.17684   208.95000
    22  C   4.0    0.15    3.46    3.10   279.83491   132.34534   206.29107
    23  O   6.0   -0.33    1.29    1.80   281.17414   132.55077   204.41334
    24  C   4.0   -0.02    4.33    4.26   280.80141   129.50656   210.08085
    25  C   4.0   -0.05    4.19    3.98   282.53259   129.37660   212.40355
    26  C   4.0   -0.08    4.13    3.86   281.49055   127.52243   208.10237
    27  C   4.0   -0.07    4.01    3.63   282.13318   127.02905   214.01759
    28  H   1.0    0.09    1.02    1.43   278.86144   133.33722   212.19151
    29  H   1.0    0.04    1.05    1.44   282.96566   132.73001   208.76103
    30  H   1.0    0.05    1.06    1.44   278.84116   129.21224   210.66910
    31  H   1.0    0.04    1.03    1.43   284.49716   129.44802   211.77798
    32  H   1.0    0.04    1.03    1.43   282.18660   131.03402   213.58182
    33  H   1.0    0.03    1.00    1.43   281.40348   125.64307   208.91841
    34  H   1.0    0.04    1.01    1.43   280.18278   127.60054   206.52133
    35  H   1.0    0.04    1.00    1.43   283.38583   127.84865   207.38475
    36  H   1.0    0.05    1.00    1.43   283.49047   127.01534   215.55838
    37  H   1.0    0.04    1.00    1.43   280.24103   127.03198   214.81791
    38  H   1.0    0.04    1.00    1.43   282.39186   125.30878   212.93033
    39  N   5.0   -0.15    3.53    2.10   277.32401   132.24673   206.22722
    40  C   4.0    0.04    4.42    4.41   275.87736   132.41403   203.90972
    41  C   4.0    0.18    3.51    3.12   276.73683   134.71743   202.37494
    42  O   6.0   -0.31    1.32    1.80   277.34052   134.48740   200.15396
    43  C   4.0   -0.03    4.30    4.21   273.06153   132.50393   204.56301
    44  C   4.0    0.15    3.22    3.04   271.40674   132.65737   202.21523
    45  O   6.0   -0.28    1.23    1.80   271.71245   134.26920   200.60199
    46  N   5.0   -0.19    3.19    1.95   269.45222   131.01613   202.14935
    47  H   1.0    0.11    1.14    1.45   276.33327   131.99125   207.85508
    48  H   1.0    0.05    1.05    1.44   276.27664   130.75435   202.72261
    49  H   1.0    0.05    1.03    1.43   272.58405   130.86111   205.70934
    50  H   1.0    0.05    1.03    1.43   272.73039   134.21979   205.66507
    51  H   1.0    0.11    1.03    1.43   268.40224   131.00193   200.55386
    52  H   1.0    0.10    1.03    1.43   269.44819   129.34667   203.08179
    53  N   5.0   -0.14    3.49    2.07   276.88983   136.87968   203.65203
    54  C   4.0    0.04    4.43    4.42   277.71879   139.19329   202.43803
    55  C   4.0    0.16    3.51    3.12   280.29116   138.78713   201.18945
    56  O   6.0   -0.30    1.29    1.80   280.74136   139.50790   199.03483
    57  C   4.0   -0.03    4.31    4.22   277.95691   141.38492   204.32392
    58  C   4.0    0.16    3.22    3.04   275.53624   142.93274   204.47756
    59  O   6.0   -0.27    1.20    1.80   275.37922   145.04951   203.57084
    60  N   5.0   -0.18    3.19    1.95   273.60349   141.80168   205.64859
    61  H   1.0    0.08    1.07    1.44   276.32843   136.95835   205.47943
    62  H   1.0    0.09    1.07    1.44   276.36874   139.69788   200.93936
    63  H   1.0    0.04    1.03    1.43   278.46421   140.65616   206.18424
    64  H   1.0    0.06    1.04    1.43   279.44510   142.66412   203.69249
    65  H   1.0    0.11    1.03    1.43   271.95873   142.74481   205.77814
    66  H   1.0    0.08    1.03    1.43   273.79818   140.11970   206.52314
    67  N   5.0   -0.13    3.52    2.09   282.03301   137.66927   202.63417
    68  C   4.0    0.04    4.43    4.43   284.53982   137.22367   201.62125
    69  C   4.0    0.16    3.47    3.10   284.30816   135.64509   199.18750
    70  O   6.0   -0.32    1.28    1.80   285.53769   136.19190   197.29999
    71  C   4.0   -0.04    4.29    4.18   286.25583   135.90907   203.55228
    72  C   4.0    0.15    3.22    3.04   287.42291   137.81163   205.36993
    73  O   6.0   -0.29    1.20    1.80   289.50044   138.74874   204.97477
    74  N   5.0   -0.19    3.18    1.95   286.02648   138.41383   207.38425
    75  H   1.0    0.08    1.06    1.44   281.65917   137.25077   204.46177
    76  H   1.0    0.06    1.05    1.44   285.38414   139.03573   201.05546
    77  H   1.0    0.05    1.03    1.43   285.16699   134.48679   204.56687
    78  H   1.0    0.05    1.03    1.43   287.81290   134.99585   202.55666
    79  H   1.0    0.10    1.03    1.43   286.70599   139.67825   208.63636
    80  H   1.0    0.08    1.02    1.43   284.23668   137.79859   207.65357
    81  N   5.0   -0.14    3.52    2.09   282.74409   133.68490   199.28891
    82  C   4.0    0.04    4.43    4.42   282.39471   132.03926   197.12712
    83  C   4.0    0.15    3.43    3.09   281.17644   133.39388   194.87184
    84  O   6.0   -0.33    1.28    1.80   281.72011   132.79316   192.69644
    85  C   4.0   -0.05    4.35    4.29   280.82332   129.73380   197.88107
    86  C   4.0   -0.02    4.18    3.96   282.13458   128.04265   199.84153
    87  C   4.0   -0.08    4.10    3.81   280.30082   126.01197   200.76586
    88  C   4.0   -0.08    4.11    3.82   284.48798   126.79264   198.74232
    89  H   1.0    0.11    1.10    1.44   281.80254   133.26669   200.91057
    90  H   1.0    0.05    1.06    1.44   284.26057   131.43949   196.45268
    91  H   1.0    0.05    1.03    1.43   279.03276   130.42266   198.63519
    92  H   1.0    0.04    1.03    1.43   280.43226   128.63794   196.17911
    93  H   1.0    0.05    1.06    1.44   282.67755   129.20254   201.46304
    94  H   1.0    0.03    1.00    1.43   281.16503   124.89133   202.25421
    95  H   1.0    0.04    1.00    1.43   278.58817   126.86513   201.51264
    96  H   1.0    0.04    1.00    1.43   279.77375   124.75074   199.23087
    97  H   1.0    0.03    1.00    1.43   285.29866   125.49884   200.11423
    98  H   1.0    0.03    1.00    1.43   283.99649   125.74015   197.04903
    99  H   1.0    0.04    1.00    1.43   285.92294   128.17782   198.25930
   100  N   5.0   -0.13    3.52    2.09   279.50015   135.19260   195.40714
   101  C   4.0    0.03    4.42    4.41   278.36566   136.72578   193.44326
   102  C   4.0    0.16    3.47    3.10   280.41588   138.23684   192.05351
   103  O   6.0   -0.31    1.25    1.80   280.45007   138.43186   189.74552
   104  C   4.0   -0.04    4.29    4.17   276.41519   138.53938   194.55652
   105  C   4.0   -0.03    4.22    4.04   274.07303   137.17075   195.56186
   106  C   4.0    0.17    3.23    3.04   272.39699   139.01011   196.98946
   107  O   6.0   -0.27    1.23    1.80   273.17810   140.28915   198.74788
   108  N   5.0   -0.18    3.18    1.95   270.00409   139.17142   196.17650
   109  H   1.0    0.12    1.11    1.45   278.97324   135.51298   197.22193
   110  H   1.0    0.05    1.05    1.44   277.48163   135.48813   192.03171
   111  H   1.0    0.07    1.03    1.43   277.29673   139.60297   196.08832
   112  H   1.0    0.05    1.03    1.43   275.86151   139.88516   193.09367
   113  H   1.0    0.04    1.03    1.43   273.03060   136.28970   194.02380
   114  H   1.0    0.08    1.04    1.43   274.63556   135.72039   196.91693
   115  H   1.0    0.09    1.03    1.43   269.34498   138.08113   194.76999
   116  H   1.0    0.11    1.03    1.43   268.80039   140.33130   197.08289
   117  N   5.0   -0.13    3.53    2.10   282.14554   139.28560   193.55199
   118  C   4.0    0.04    4.43    4.43   284.27580   140.64504   192.49139
   119  C   4.0    0.16    3.50    3.11   285.79018   138.83361   190.81620
   120  O   6.0   -0.29    1.26    1.80   286.60791   139.44350   188.73428
   121  C   4.0   -0.04    4.28    4.16   285.94167   141.66198   194.62097
   122  C   4.0   -0.04    4.18    3.97   287.85594   143.60662   193.67783
   123  C   4.0   -0.00    4.21    4.03   286.63113   146.21313   193.47309
   124  N   5.0   -0.14    3.40    2.02   288.44912   148.06566   192.60502
   125  C   4.0    0.10    3.33    3.06   288.08725   149.83257   190.85370
   126  N   5.0   -0.17    3.26    1.97   285.94694   150.03194   189.57356
   127  N   5.0   -0.18    3.24    1.97   289.95252   151.50214   190.44715
   128  H   1.0    0.11    1.09    1.44   281.95262   139.22553   195.45555
   129  H   1.0    0.07    1.05    1.44   283.59405   142.18615   191.27821
   130  H   1.0    0.06    1.03    1.43   284.72308   142.52621   196.04446
   131  H   1.0    0.06    1.03    1.43   286.89309   140.05754   195.49574
   132  H   1.0    0.05    1.03    1.43   289.44574   143.71584   194.98374
   133  H   1.0    0.06    1.03    1.43   288.56674   143.03363   191.82985
   134  H   1.0    0.07    1.05    1.44   285.04903   146.13019   192.16538
   135  H   1.0    0.05    1.02    1.43   285.92151   146.78631   195.33142
   136  H   1.0    0.08    1.07    1.44   290.11639   148.04920   193.54405
   137  H   1.0    0.13    1.10    1.44   284.65557   148.55566   189.42725
   138  H   1.0    0.10    1.04    1.43   285.83256   151.31004   188.16974
   139  H   1.0    0.09    1.03    1.43   291.50787   151.50096   191.53705
   140  H   1.0    0.09    1.03    1.43   289.73513   152.90704   189.18717
   141  N   5.0   -0.13    3.53    2.10   286.15499   136.53863   191.79787
   142  C   4.0    0.04    4.52    4.56   287.54145   134.64325   190.38987
   143  C   4.0    0.16    3.54    3.13   286.30568   134.28943   187.79936
   144  O   6.0   -0.28    1.28    1.80   287.60126   134.23627   185.87297
   145  C   4.0   -0.02    4.25    4.11   287.79948   132.15932   191.86403
   146  C   4.0   -0.07    4.14    3.88   289.03819   130.15889   190.19800
   147  C   4.0   -0.07    4.11    3.83   289.39999   132.55959   194.23581
   148  H   1.0    0.11    1.09    1.44   285.63064   136.16753   193.60368
   149  H   1.0    0.06    1.06    1.44   289.44371   135.37185   189.97962
   150  H   1.0    0.06    1.06    1.44   285.89828   131.54280   192.38599
   151  H   1.0    0.04    1.00    1.43   289.26244   128.41347   191.25170
   152  H   1.0    0.05    1.01    1.43   287.90915   129.79406   188.52852
   153  H   1.0    0.05    1.00    1.43   290.89484   130.79608   189.59096
   154  H   1.0    0.04    1.00    1.43   289.59108   130.78815   195.25706
   155  H   1.0    0.05    1.00    1.43   291.28428   133.20253   193.72412
   156  H   1.0    0.06    1.01    1.43   288.56882   133.94880   195.49632
   157  N   5.0   -0.14    3.49    2.07   283.79803   134.03926   187.74971
   158  C   4.0    0.04    4.43    4.43   282.51812   133.82803   185.33609
   159  C   4.0    0.17    3.51    3.12   283.57214   135.76285   183.44671
   160  O   6.0   -0.27    1.22    1.80   284.12018   135.16496   181.27980
   161  C   4.0   -0.05    4.29    4.19   279.67642   134.28879   185.57118
   162  C   4.0   -0.05    4.17    3.93   278.26775   132.14139   186.89033
   163  C   4.0   -0.01    4.22    4.04   275.41939   132.69582   186.84699
   164  N   5.0   -0.14    3.38    2.01   273.91030   130.57919   187.71306
   165  C   4.0    0.10    3.36    3.07   273.56896   128.45154   186.39985
   166  N   5.0   -0.18    3.28    1.98   274.39339   128.19710   184.04839
   167  N   5.0   -0.18    3.26    1.97   272.32038   126.52374   187.41975
   168  H   1.0    0.11    1.09    1.44   282.78189   133.93113   189.37307
   169  H   1.0    0.05    1.05    1.44   282.88446   131.95293   184.51699
   170  H   1.0    0.07    1.04    1.43   279.38791   136.05064   186.59671
   171  H   1.0    0.05    1.03    1.43   278.93497   134.52969   183.66126
   172  H   1.0    0.04    1.03    1.43   278.64977   130.36357   185.92092
   173  H   1.0    0.05    1.02    1.43   278.92597   131.95015   188.83391
   174  H   1.0    0.04    1.03    1.43   275.00584   134.30450   188.06283
   175  H   1.0    0.05    1.03    1.43   274.83528   133.20918   184.93424
   176  H   1.0    0.07    1.07    1.44   273.38609   130.56939   189.54597
   177  H   1.0    0.09    1.03    1.43   275.30156   129.59411   183.13968
   178  H   1.0    0.12    1.07    1.44   274.12842   126.49094   183.19787
   179  H   1.0    0.08    1.03    1.43   271.61072   126.57507   189.18001
   180  H   1.0    0.12    1.07    1.44   272.17070   124.93045   186.34907
   181  N   5.0   -0.13    3.49    2.07   283.58102   138.14664   184.27889
   182  C   4.0    0.04    4.31    4.21   284.32131   140.22958   182.67194
   183  C   4.0    0.11    3.25    3.04   286.99970   139.88425   181.65914
   184  O   6.0   -0.26    1.11    1.80   287.58619   140.45819   179.48035
   185  C   4.0   -0.03    4.31    4.21   284.30470   142.72464   184.14334
   186  C   4.0   -0.02    4.17    3.94   281.70932   143.53608   185.10857
   187  C   4.0    0.25    3.14    3.03   282.13663   146.11161   186.43690
   188  O   6.0   -0.28    1.16    1.80   281.82863   148.07090   185.18802
   189  O   6.0   -0.32    1.28    1.80   282.89407   146.01152   188.68599
   190  H   1.0    0.11    1.08    1.44   283.12593   138.55641   186.09030
   191  H   1.0    0.06    1.05    1.44   283.04067   140.34389   181.04298
   192  H   1.0    0.07    1.04    1.43   285.57378   142.54017   185.76036
   193  H   1.0    0.06    1.03    1.43   285.03394   144.21396   182.90994
   194  H   1.0    0.06    1.02    1.43   280.38612   143.79135   183.55070
   195  H   1.0    0.06    1.02    1.43   280.96374   142.18037   186.46884
   196  N   5.0   -0.21    3.21    1.96   292.65431   131.85444   210.59284
   197  C   4.0    0.03    4.31    4.21   290.83342   129.87121   211.09129
   198  C   4.0    0.08    3.25    3.04   291.77085   128.25166   213.29035
   199  O   6.0   -0.28    1.11    1.80   290.38323   127.67734   215.06269
   200  C   4.0   -0.03    4.32    4.24   290.35258   128.25434   208.72469
   201  C   4.0   -0.05    4.18    3.97   288.85808   129.81439   206.79049
   202  C   4.0   -0.07    4.14    3.88   288.99856   125.80916   209.44938
   203  C   4.0   -0.08    4.01    3.64   288.46183   128.45513   204.28225
   204  H   1.0    0.08    1.02    1.43   293.28163   132.10431   208.79872
   205  H   1.0    0.05    1.05    1.44   289.04968   130.73314   211.73172
   206  H   1.0    0.04    1.05    1.44   292.19744   127.75975   207.92732
   207  H   1.0    0.04    1.03    1.43   287.02817   130.31449   207.60423
   208  H   1.0    0.04    1.03    1.43   289.88714   131.56665   206.44066
   209  H   1.0    0.03    1.00    1.43   288.56988   124.70030   207.77816
   210  H   1.0    0.05    1.00    1.43   290.20249   124.66163   210.66230
   211  H   1.0    0.04    1.00    1.43   287.25652   126.20680   210.46402
   212  H   1.0    0.04    1.00    1.43   287.63992   129.74518   202.91302
   213  H   1.0    0.04    1.00    1.43   290.25840   127.76994   203.55769
   214  H   1.0    0.03    1.00    1.43   287.20067   126.85028   204.49258
   215  N   5.0   -0.20    3.23    1.96   283.48021   114.77264   216.75583
   216  C   4.0    0.03    4.32    4.24   283.37392   116.24555   214.44358
   217  C   4.0    0.08    3.25    3.04   285.83485   117.74483   214.26660
   218  O   6.0   -0.29    1.13    1.80   286.28977   119.49332   215.70746
   219  C   4.0   -0.02    4.33    4.26   281.11211   118.07125   214.41075
   220  C   4.0   -0.05    4.18    3.96   278.61061   116.65721   214.78031
   221  C   4.0   -0.08    4.13    3.86   281.14728   119.59505   211.95788
   222  C   4.0   -0.08    4.02    3.66   278.10975   114.59231   212.83097
   223  H   1.0    0.09    1.02    1.43   283.62652   115.72778   218.41787
   224  H   1.0    0.04    1.06    1.44   283.22548   114.93728   212.85860
   225  H   1.0    0.05    1.06    1.44   281.35238   119.37638   215.99966
   226  H   1.0    0.04    1.03    1.43   278.58791   115.81945   216.66812
   227  H   1.0    0.03    1.03    1.43   277.07984   118.03541   214.69083
   228  H   1.0    0.03    1.00    1.43   279.48827   120.80136   211.86667
   229  H   1.0    0.04    1.00    1.43   282.82681   120.77485   211.87646
   230  H   1.0    0.03    1.00    1.43   281.15891   118.34875   210.32661
   231  H   1.0    0.04    1.00    1.43   276.22076   113.83576   213.09049
   232  H   1.0    0.04    1.00    1.43   278.24228   115.31718   210.91590
   233  H   1.0    0.04    1.00    1.43   279.42955   113.03118   213.02808
   234  N   5.0   -0.21    3.23    1.96   290.67949   110.68071   207.64502
   235  C   4.0    0.04    4.37    4.32   288.36549   109.23666   207.50232
   236  C   4.0    0.16    3.43    3.09   286.78803   110.03304   205.20930
   237  O   6.0   -0.28    1.23    1.80   285.61218   108.46944   203.97377
   238  C   4.0    0.05    4.23    4.06   286.75570   109.28131   209.90637
   239  O   6.0   -0.26    2.10    1.84   285.96398   111.76456   210.49552
   240  C   4.0   -0.07    4.08    3.76   288.16242   108.11158   212.13225
   241  H   1.0    0.09    1.02    1.43   291.05995   111.80545   209.14576
   242  H   1.0    0.05    1.06    1.44   288.89049   107.25637   207.15131
   243  H   1.0    0.05    1.04    1.43   285.08042   108.12433   209.46025
   244  H   1.0    0.11    1.03    1.43   284.84637   111.56148   211.96554
   245  H   1.0    0.04    1.00    1.43   286.86298   107.88148   213.70429
   246  H   1.0    0.04    1.00    1.43   288.93262   106.28801   211.59786
   247  H   1.0    0.05    1.00    1.43   289.69837   109.34990   212.70022
   248  N   5.0   -0.14    3.48    2.06   286.78033   112.50234   204.70306
   249  C   4.0    0.04    4.33    4.25   285.41375   113.47795   202.54022
   250  C   4.0    0.09    3.24    3.04   286.49166   112.35174   200.10444
   251  O   6.0   -0.29    1.14    1.80   285.13346   111.55065   198.41136
   252  C   4.0   -0.05    4.35    4.29   285.59635   116.35636   202.43247
   253  C   4.0   -0.03    4.18    3.96   284.18959   117.69745   204.58392
   254  C   4.0   -0.09    4.10    3.81   284.92481   120.49050   204.60765
   255  C   4.0   -0.07    4.10    3.81   281.33170   117.42267   204.33406
   256  H   1.0    0.08    1.07    1.44   287.71679   113.72551   205.83354
   257  H   1.0    0.08    1.06    1.44   283.44180   112.84693   202.67031
   258  H   1.0    0.04    1.03    1.43   287.59926   116.86116   202.51042
   259  H   1.0    0.04    1.03    1.43   284.84124   116.98068   200.61739
   260  H   1.0    0.04    1.05    1.44   284.79392   116.84622   206.36960
   261  H   1.0    0.03    1.00    1.43   283.92150   121.48148   206.10093
   262  H   1.0    0.03    1.00    1.43   286.94569   120.69384   204.93862
   263  H   1.0    0.03    1.00    1.43   284.46130   121.35904   202.80376
   264  H   1.0    0.03    1.00    1.43   280.39667   118.38870   205.88498
   265  H   1.0    0.05    1.00    1.43   280.67877   118.24471   202.56864
   266  H   1.0    0.06    1.01    1.43   280.76930   115.44954   204.37355
   267  N   5.0   -0.21    3.20    1.96   292.18813   115.57456   197.21172
   268  C   4.0    0.03    4.23    4.06   293.24286   117.64345   195.78579
   269  C   4.0    0.08    3.20    3.04   295.84319   118.49981   196.68879
   270  O   6.0   -0.29    1.13    1.80   296.94317   120.24485   195.64032
   271  C   4.0   -0.04    4.37    4.32   291.46871   119.93356   195.77157
   272  C   4.0   -0.03    4.18    3.97   288.87435   119.39794   194.60358
   273  C   4.0   -0.08    4.11    3.82   287.22637   121.74038   194.93679
   274  C   4.0   -0.08    4.10    3.81   289.06863   118.68698   191.81550
   275  H   1.0    0.08    1.02    1.43   291.87416   115.81978   199.07804
   276  H   1.0    0.05    1.06    1.44   293.49765   116.93361   193.85481
   277  H   1.0    0.04    1.03    1.43   291.22828   120.55509   197.72609
   278  H   1.0    0.05    1.03    1.43   292.41575   121.44109   194.73201
   279  H   1.0    0.04    1.05    1.44   288.01453   117.81573   195.62953
   280  H   1.0    0.04    1.00    1.43   285.34711   121.40108   194.18808
   281  H   1.0    0.03    1.00    1.43   287.05497   122.20392   196.92846
   282  H   1.0    0.03    1.00    1.43   288.06733   123.33763   193.95843
   283  H   1.0    0.04    1.00    1.43   287.18602   118.41643   191.04040
   284  H   1.0    0.04    1.00    1.43   290.02088   120.17380   190.76709
   285  H   1.0    0.04    1.00    1.43   290.10087   116.92558   191.58995
   286  N   5.0   -0.21    3.26    1.97   282.72034   115.29112   183.79100
   287  C   4.0    0.02    4.33    4.25   283.57714   114.68147   186.32051
   288  C   4.0    0.14    3.41    3.08   282.74624   116.71105   188.20979
   289  O   6.0   -0.32    1.27    1.80   281.95371   116.13931   190.31522
   290  C   4.0   -0.05    4.26    4.13   286.44006   114.31043   186.26227
   291  C   4.0   -0.05    4.21    4.02   287.08871   111.91856   184.77165
   292  C   4.0   -0.05    4.17    3.94   289.85880   111.84595   183.96589
   293  C   4.0   -0.04    4.13    3.87   290.43052   109.34967   182.64687
   294  N   5.0   -0.12    4.01    2.89   292.98057   109.44036   181.47238
   295  H   1.0    0.08    1.03    1.43   284.03645   115.85203   182.51893
   296  H   1.0    0.04    1.05    1.44   282.64049   112.92975   186.91896
   297  H   1.0    0.04    1.03    1.43   287.27732   115.96963   185.36967
   298  H   1.0    0.04    1.03    1.43   287.14588   114.17152   188.19111
   299  H   1.0    0.04    1.03    1.43   286.64385   110.26642   185.91950
   300  H   1.0    0.04    1.04    1.43   285.92232   111.85236   183.07494
   301  H   1.0    0.04    1.03    1.43   290.19663   113.39529   182.64898
   302  H   1.0    0.04    1.02    1.43   291.06878   112.08387   185.61464
   303  H   1.0    0.04    1.02    1.43   290.35193   107.78590   183.98620
   304  H   1.0    0.04    1.02    1.43   289.04142   109.02613   181.16072
   305  H   1.0    0.06    1.02    1.43   293.40478   107.77119   180.57993
   306  H   1.0    0.05    1.01    1.43   293.02946   110.90216   180.13179
   307  H   1.0    0.05    1.02    1.43   294.32709   109.79169   182.82668
   308  N   5.0   -0.15    3.52    2.09   282.98163   119.08909   187.42339
   309  C   4.0    0.03    4.51    4.55   282.09023   121.18907   188.93764
   310  C   4.0    0.16    3.50    3.11   279.24996   120.90860   189.41869
   311  O   6.0   -0.32    1.29    1.80   278.34381   121.17949   191.53807
   312  C   4.0   -0.03    4.33    4.26   282.74847   123.71074   187.65767
   313  C   4.0   -0.05    4.19    3.98   285.63098   124.01935   187.50682
   314  C   4.0   -0.07    4.13    3.86   281.55226   125.89959   189.10857
   315  C   4.0   -0.07    4.01    3.64   286.44437   125.82640   185.41738
   316  H   1.0    0.07    1.07    1.44   283.62972   119.46163   185.65858
   317  H   1.0    0.05    1.05    1.44   282.99928   121.09749   190.80169
   318  H   1.0    0.04    1.06    1.44   281.96326   123.64230   185.74547
   319  H   1.0    0.03    1.03    1.43   286.32226   124.70143   189.32385
   320  H   1.0    0.04    1.04    1.43   286.50001   122.19023   187.13216
   321  H   1.0    0.04    1.00    1.43   282.16476   127.69683   188.33176
   322  H   1.0    0.05    1.00    1.43   279.50263   125.80148   189.01312
   323  H   1.0    0.04    1.00    1.43   282.10920   125.82777   191.08494
   324  H   1.0    0.04    1.00    1.43   288.47964   126.09707   185.47457
   325  H   1.0    0.05    1.00    1.43   285.95218   125.05155   183.57978
   326  H   1.0    0.05    1.00    1.43   285.54105   127.66248   185.60052
   327  N   5.0   -0.14    3.50    2.08   277.86298   120.32024   187.39971
   328  C   4.0    0.04    4.43    4.44   275.17389   119.87377   187.63372
   329  C   4.0    0.16    3.50    3.11   274.69005   117.95148   189.73067
   330  O   6.0   -0.31    1.28    1.80   273.12024   118.33507   191.39578
   331  C   4.0   -0.03    4.27    4.15   274.05237   118.87373   185.17756
   332  C   4.0    0.25    3.09    3.02   274.05190   120.85892   182.99136
   333  O   6.0   -0.28    1.16    1.80   274.64433   120.09087   180.86153
   334  O   6.0   -0.31    1.28    1.80   273.37971   123.04931   183.55946
   335  H   1.0    0.08    1.06    1.44   278.64046   120.24323   185.64953
   336  H   1.0    0.06    1.05    1.44   274.21641   121.63546   188.17728
   337  H   1.0    0.05    1.03    1.43   275.08105   117.20771   184.54288
   338  H   1.0    0.05    1.03    1.43   272.08134   118.34499   185.50472
   339  N   5.0   -0.14    3.52    2.09   276.05460   115.84209   189.55029
   340  C   4.0    0.04    4.34    4.27   275.74718   113.74410   191.28541
   341  C   4.0    0.16    3.45    3.10   276.18468   114.62468   194.00966
   342  O   6.0   -0.32    1.28    1.80   274.75364   113.99836   195.72749
   343  C   4.0   -0.07    4.11    3.83   277.59485   111.64869   190.58815
   344  H   1.0    0.08    1.07    1.44   277.18148   115.56397   188.02217
   345  H   1.0    0.05    1.05    1.44   273.79086   113.05234   191.19072
   346  H   1.0    0.05    1.00    1.43   277.29515   110.01413   191.79117
   347  H   1.0    0.04    1.00    1.43   277.29088   111.10173   188.63109
   348  H   1.0    0.06    1.00    1.43   279.52171   112.32722   190.80565
   349  N   5.0   -0.13    3.51    2.09   278.24489   116.01789   194.35769
   350  C   4.0    0.04    4.34    4.27   278.96884   116.99077   196.81872
   351  C   4.0    0.16    3.48    3.11   276.81325   118.52978   197.97753
   352  O   6.0   -0.32    1.27    1.80   276.09147   118.19937   200.15591
   353  C   4.0   -0.07    4.13    3.86   281.30481   118.64241   196.51041
   354  H   1.0    0.11    1.10    1.44   279.45276   116.35074   192.89835
   355  H   1.0    0.06    1.05    1.44   279.34045   115.40884   198.11068
   356  H   1.0    0.03    1.00    1.43   281.82494   119.47807   198.31106
   357  H   1.0    0.05    1.00    1.43   282.85590   117.49318   195.80985
   358  H   1.0    0.06    1.01    1.43   280.89515   120.14148   195.16669
   359  N   5.0   -0.14    3.50    2.08   275.87412   120.34280   196.49614
   360  C   4.0    0.04    4.45    4.47   273.80388   121.87814   197.41455
   361  C   4.0    0.17    3.51    3.12   271.53110   120.21923   198.04343
   362  O   6.0   -0.30    1.35    1.80   270.43378   120.42488   200.07669
   363  C   4.0   -0.04    4.35    4.28   273.09121   123.95920   195.54706
   364  C   4.0   -0.02    4.18    3.97   274.59431   126.39445   196.02539
   365  C   4.0   -0.07    4.10    3.81   274.42561   128.14619   193.73952
   366  C   4.0   -0.07    4.11    3.82   273.59215   127.73585   198.37546
   367  H   1.0    0.11    1.09    1.44   276.45392   120.54100   194.67967
   368  H   1.0    0.05    1.06    1.44   274.38356   122.70268   199.22700
   369  H   1.0    0.06    1.03    1.43   273.42639   123.24653   193.64013
   370  H   1.0    0.06    1.03    1.43   271.07196   124.34925   195.74305
   371  H   1.0    0.04    1.05    1.44   276.57600   125.88756   196.31421
   372  H   1.0    0.04    1.00    1.43   275.49919   129.86292   194.09609
   373  H   1.0    0.04    1.00    1.43   275.20854   127.20483   192.08929
   374  H   1.0    0.04    1.00    1.43   272.45561   128.64172   193.41745
   375  H   1.0    0.05    1.00    1.43   274.43094   129.60324   198.55436
   376  H   1.0    0.06    1.00    1.43   271.55130   127.93998   198.23815
   377  H   1.0    0.04    1.00    1.43   273.98872   126.65618   200.07756
   378  N   5.0   -0.13    3.51    2.08   270.87532   118.52836   196.29675
   379  C   4.0    0.04    4.36    4.31   268.76619   116.83750   196.73677
   380  C   4.0    0.17    3.52    3.12   268.96525   115.75060   199.41342
   381  O   6.0   -0.31    1.29    1.80   267.15328   115.77404   200.86405
   382  C   4.0   -0.06    4.11    3.82   268.74188   114.73247   194.77742
   383  H   1.0    0.12    1.10    1.44   271.75453   118.44506   194.59329
   384  H   1.0    0.06    1.05    1.44   266.98541   117.90982   196.67033
   385  H   1.0    0.05    1.00    1.43   267.17513   113.45766   195.14286
   386  H   1.0    0.06    1.00    1.43   268.53048   115.54432   192.90236
   387  H   1.0    0.06    1.01    1.43   270.50643   113.68610   194.87070
   388  N   5.0   -0.13    3.51    2.08   271.19949   114.72785   199.97952
   389  C   4.0    0.03    4.40    4.38   271.72183   113.63547   202.44231
   390  C   4.0    0.16    3.51    3.12   270.91487   115.50532   204.50921
   391  O   6.0   -0.31    1.27    1.80   269.32176   114.99121   206.10970
   392  C   4.0   -0.04    4.32    4.24   274.53158   113.04809   202.73833
   393  C   4.0   -0.03    4.21    4.02   275.50190   110.96145   200.98717
   394  C   4.0    0.16    3.23    3.04   278.38110   110.94497   201.08272
   395  O   6.0   -0.30    1.24    1.80   279.55931   111.48269   202.99209
   396  N   5.0   -0.18    3.18    1.95   279.53445   110.38214   198.89797
   397  H   1.0    0.11    1.09    1.44   272.61344   114.74895   198.68407
   398  H   1.0    0.05    1.05    1.44   270.57211   111.92397   202.69086
   399  H   1.0    0.07    1.05    1.44   275.59776   114.76620   202.34362
   400  H   1.0    0.05    1.03    1.43   274.89381   112.51250   204.69510
   401  H   1.0    0.05    1.02    1.43   274.79724   109.12123   201.59737
   402  H   1.0    0.06    1.04    1.43   274.88344   111.29910   199.05381
   403  H   1.0    0.09    1.03    1.43   278.53456   109.91551   197.35387
   404  H   1.0    0.12    1.04    1.43   281.45026   110.39349   198.80014
   405  N   5.0   -0.14    3.52    2.09   272.16931   117.69343   204.49065
   406  C   4.0    0.03    4.52    4.56   271.65638   119.62022   206.36836
   407  C   4.0    0.16    3.54    3.13   268.81137   119.97093   206.70565
   408  O   6.0   -0.32    1.28    1.80   267.77831   119.93317   208.79254
   409  C   4.0   -0.02    4.28    4.16   272.88843   122.14049   205.59702
   410  C   4.0   -0.07    4.13    3.86   271.91288   124.29342   207.26033
   411  C   4.0   -0.08    4.11    3.82   275.76140   121.92430   205.75026
   412  H   1.0    0.11    1.08    1.44   273.31584   118.12935   203.02118
   413  H   1.0    0.04    1.05    1.44   272.39972   118.98036   208.20071
   414  H   1.0    0.06    1.06    1.44   272.32957   122.50626   203.63940
   415  H   1.0    0.04    1.00    1.43   273.12352   125.93924   207.05786
   416  H   1.0    0.06    1.00    1.43   269.99458   124.79697   206.72128
   417  H   1.0    0.04    1.00    1.43   271.89985   123.70938   209.23003
   418  H   1.0    0.04    1.00    1.43   276.62966   123.70067   205.19855
   419  H   1.0    0.03    1.00    1.43   276.33897   121.47125   207.66873
   420  H   1.0    0.05    1.00    1.43   276.44224   120.45405   204.49040
   421  N   5.0   -0.13    3.56    2.12   267.59294   120.53235   204.58249
   422  C   4.0    0.04    4.43    4.44   265.00783   121.39208   204.57003
   423  C   4.0    0.15    3.43    3.09   263.17185   119.38479   205.53278
   424  O   6.0   -0.31    1.24    1.80   261.35372   119.98814   206.84695
   425  C   4.0   -0.03    4.26    4.12   264.32408   122.26714   201.91517
   426  C   4.0    0.26    3.10    3.02   265.97985   124.58205   201.05112
   427  O   6.0   -0.29    1.16    1.80   266.54823   124.68850   198.78968
   428  O   6.0   -0.32    1.27    1.80   266.54787   126.17115   202.70451
   429  H   1.0    0.12    1.12    1.45   268.50122   120.42780   202.90034
   430  H   1.0    0.06    1.06    1.44   264.85095   123.00174   205.87931
   431  H   1.0    0.06    1.02    1.43   264.60709   120.72908   200.57172
   432  H   1.0    0.05    1.02    1.43   262.34015   122.83084   201.84945
   433  N   5.0   -0.14    3.50    2.08   263.68863   117.01208   204.84202
   434  C   4.0    0.04    4.47    4.49   262.13246   114.91518   205.60720
   435  C   4.0    0.16    3.45    3.09   262.56348   114.06173   208.34250
   436  O   6.0   -0.28    1.26    1.80   261.42744   112.22131   209.16907
   437  C   4.0    0.06    4.24    4.09   262.38897   112.61376   203.83049
   438  O   6.0   -0.24    2.11    1.84   260.22454   111.07967   204.04529
   439  C   4.0   -0.06    4.09    3.79   264.79703   111.11508   204.36675
   440  H   1.0    0.12    1.10    1.44   265.19394   116.63274   203.71643
   441  H   1.0    0.07    1.06    1.44   260.14469   115.52774   205.58608
   442  H   1.0    0.06    1.04    1.43   262.40891   113.29396   201.87163
   443  H   1.0    0.15    1.05    1.44   260.01722   110.70213   205.83028
   444  H   1.0    0.05    1.00    1.43   265.06144   109.69057   202.91316
   445  H   1.0    0.07    1.01    1.43   266.40858   112.38055   204.41224
   446  H   1.0    0.06    1.00    1.43   264.63792   110.17607   206.18939
   447  N   5.0   -0.13    3.55    2.11   264.17285   115.46594   209.68371
   448  C   4.0    0.04    4.42    4.41   264.48485   115.23313   212.38488
   449  C   4.0    0.15    3.46    3.10   263.28400   117.52974   213.66247
   450  O   6.0   -0.29    1.29    1.80   261.93862   117.31454   215.54516
   451  C   4.0   -0.04    4.35    4.29   267.27855   114.96024   213.06282
   452  C   4.0   -0.02    4.19    3.99   268.44579   112.56702   211.91835
   453  C   4.0   -0.07    4.11    3.81   271.31823   112.74766   212.08538
   454  C   4.0   -0.07    4.10    3.79   267.48443   110.18158   213.22618
   455  H   1.0    0.11    1.10    1.44   265.34344   116.69184   208.80011
   456  H   1.0    0.07    1.06    1.44   263.40510   113.57665   213.00388
   457  H   1.0    0.05    1.03    1.43   268.26857   116.61545   212.32942
   458  H   1.0    0.04    1.03    1.43   267.45908   114.91892   215.11660
   459  H   1.0    0.06    1.06    1.44   267.91803   112.48466   209.92090
   460  H   1.0    0.04    1.00    1.43   272.18916   111.03191   211.36837
   461  H   1.0    0.05    1.00    1.43   271.97262   114.32721   210.94973
   462  H   1.0    0.04    1.00    1.43   271.88794   113.03030   214.03789
   463  H   1.0    0.05    1.00    1.43   268.37876   108.51689   212.42035
   464  H   1.0    0.05    1.00    1.43   267.88716   110.24368   215.24181
   465  H   1.0    0.06    1.00    1.43   265.44944   109.96604   213.00256
   466  N   5.0   -0.14    3.50    2.08   263.73912   119.76507   212.57858
   467  C   4.0    0.04    4.43    4.44   262.45570   122.02327   213.44972
   468  C   4.0    0.16    3.55    3.14   259.63797   121.43491   213.79875
   469  O   6.0   -0.27    1.25    1.80   258.49155   122.03665   215.72294
   470  C   4.0   -0.05    4.25    4.10   262.75658   124.22709   211.59336
   471  C   4.0   -0.05    4.19    3.97   261.52854   126.61605   212.68942
   472  C   4.0   -0.01    4.17    3.94   260.83507   128.62997   210.72544
   473  N   5.0   -0.14    3.39    2.02   262.99994   130.05728   209.85606
   474  C   4.0    0.10    3.34    3.06   264.09264   130.00787   207.59108
   475  N   5.0   -0.18    3.25    1.97   263.15049   128.72395   205.64072
   476  N   5.0   -0.18    3.25    1.97   266.14921   131.41754   207.26216
   477  H   1.0    0.11    1.09    1.44   264.94888   119.89203   211.09644
   478  H   1.0    0.05    1.05    1.44   263.18371   122.55842   215.32106
   479  H   1.0    0.05    1.02    1.43   264.76485   124.52791   211.23942
   480  H   1.0    0.06    1.03    1.43   261.84985   123.68781   209.82132
   481  H   1.0    0.06    1.04    1.43   259.78969   126.07086   213.65242
   482  H   1.0    0.04    1.03    1.43   262.77883   127.44539   214.10306
   483  H   1.0    0.05    1.03    1.43   259.87128   127.73492   209.14189
   484  H   1.0    0.05    1.03    1.43   259.51652   129.95817   211.59716
   485  H   1.0    0.08    1.07    1.44   263.86266   131.16291   211.16752
   486  H   1.0    0.09    1.04    1.43   261.66624   127.57056   205.93524
   487  H   1.0    0.12    1.08    1.44   264.36962   128.13451   204.25079
   488  H   1.0    0.08    1.03    1.43   266.75777   132.50202   208.72095
   489  H   1.0    0.10    1.05    1.44   266.93403   131.59058   205.53239
   490  N   5.0   -0.13    3.52    2.09   258.53230   120.40225   211.78146
   491  C   4.0    0.04    4.38    4.35   255.90809   119.62958   211.76031
   492  C   4.0    0.17    3.48    3.11   255.08931   118.47620   214.26974
   493  O   6.0   -0.26    1.22    1.80   253.10089   119.07234   215.30070
   494  C   4.0    0.04    4.16    3.92   255.56011   117.63607   209.64430
   495  O   6.0   -0.23    2.08    1.84   257.43189   115.75801   209.71189
   496  H   1.0    0.11    1.09    1.44   259.55638   119.90635   210.23067
   497  H   1.0    0.06    1.05    1.44   254.67718   121.25818   211.39000
   498  H   1.0    0.06    1.01    1.43   253.65566   116.83954   209.76445
   499  H   1.0    0.06    1.01    1.43   255.79591   118.59261   207.82552
   500  H   1.0    0.16    1.06    1.44   256.98148   114.38033   210.85551
   501  N   5.0   -0.12    3.57    2.13   256.62672   116.68732   215.13683
   502  C   4.0    0.05    4.34    4.28   255.98406   115.09710   217.25200
   503  C   4.0    0.10    3.23    3.04   255.98411   116.62711   219.68431
   504  O   6.0   -0.26    1.11    1.80   254.34394   116.34052   221.30028
   505  C   4.0   -0.02    4.27    4.13   257.86801   112.93503   217.43596
   506  C   4.0    0.26    3.10    3.02   257.92502   111.27784   214.96446
   507  O   6.0   -0.29    1.26    1.80   256.48431   111.92096   213.21422
   508  O   6.0   -0.27    1.16    1.80   259.41986   109.47675   214.99800
   509  H   1.0    0.11    1.10    1.44   258.23052   116.25357   214.20538
   510  H   1.0    0.08    1.05    1.44   254.07380   114.33180   216.96769
   511  H   1.0    0.07    1.02    1.43   259.77561   113.66587   217.73071
   512  H   1.0    0.06    1.02    1.43   257.41250   111.69111   219.01734
   513  H   1.0    0.09    1.07    1.44   276.15534   130.06769   217.47301
   514  H   1.0    0.05    1.05    1.44   272.64407   132.78227   212.90997
   515  H   1.0    0.09    1.07    1.44   280.82211   135.14000   211.12482
   516  H   1.0    0.08    1.05    1.44   288.34731   139.17087   182.77543
   517  H   1.0    0.10    1.07    1.44   291.98911   133.35821   211.02730
   518  H   1.0    0.06    1.05    1.44   293.55525   127.62998   213.31248
   519  H   1.0    0.09    1.08    1.44   282.06524   113.84019   216.90053
   520  H   1.0    0.05    1.05    1.44   287.11724   117.30404   212.95045
   521  H   1.0    0.09    1.07    1.44   292.01156   109.62413   207.60274
   522  H   1.0    0.05    1.05    1.44   288.36241   112.25235   199.85645
   523  H   1.0    0.09    1.08    1.44   290.66996   115.15742   196.56850
   524  H   1.0    0.06    1.05    1.44   296.66779   117.63374   198.15200
   525  H   1.0    0.09    1.07    1.44   281.98177   113.92523   183.09715
   526  H   1.0    0.08    1.05    1.44   257.34215   117.90324   219.99781

  Z AO/shell   Hii/eV     exponent
  1     Wed Apr 25 08:07:45 CEST 2018   EN: 2.200 GM2: 0.406  GM3: 0.0800  RAES: 1.40
     1s    -10.707211    1.230000
  6     Wed Apr 25 08:07:45 CEST 2018   EN: 2.550 GM2: 0.538  GM3: 0.1500  RAES: 3.00
     2s    -13.970922    2.096432
     2p    -10.063292    1.800000
  7     Wed Apr 25 08:07:45 CEST 2018   EN: 3.040 GM2: 0.461  GM3:-0.0640  RAES: 1.90
     2s    -16.686243    2.339881
     2p    -12.523956    2.014332
  8     Wed Apr 25 08:07:45 CEST 2018   EN: 3.440 GM2: 0.452  GM3:-0.0517  RAES: 1.80
     2s    -20.229985    2.439742
     2p    -15.503117    2.137023
 no old-style atom pair restraining (fixing) potential

molecular fragmentation (1/2 indicates fragments):
111111111111111111122222222222222222222222222222222222222222222222222222
222222222222222222222222222222222222222222222222222222222222222222222222
222222222222222222222222222222222222222222222222222222222222222222222222
222222222222222222222222222222222222222222222222222222222222222222222222
222222222222222222222222222222222222222222222222222222222222222222222222
222222222222222222222222222222222222222222222222222222222222222222222222
222222222222222222222222222222222222222222222222222222222222222222222222
2222222211222222222222
# atoms in fragment 1/2:    21   505
 fragment masses (1/2) :      115.17     3401.00
CMA distance (Bohr)    :  15.291
constraining FC (au)   :  0.0500
           ------------------------------------------------- 
          |        Self-Consistent Charge Iterations        |
           ------------------------------------------------- 

 Ncao       : 1264
 Nao        : 1264
 Nshell     : 772
 Nel        : 1404
 T(el)      :   500.0
 intcut     :    35.0
 scfconv/Eh :  0.100E-06
   qconv/e  :  0.100E-04
 intneglect :  0.100E-08
 broydamp   :      0.400
 iter      E             dE          RMSdq      gap      omega  full diag
   1   -804.1986891 -0.804199E+03  0.452E+00    2.93       0.0  T
   2   -806.1542699 -0.195558E+01  0.208E+00    1.97       1.0  T
   3   -806.2783618 -0.124092E+00  0.119E+00    2.30       1.0  T
   4   -806.3964952 -0.118133E+00  0.236E-01    1.71       1.0  T
   5   -806.4031817 -0.668651E-02  0.112E-01    1.85       1.0  T
   6   -806.4040311 -0.849398E-03  0.416E-02    1.83       1.0  T
   7   -806.4042387 -0.207584E-03  0.174E-02    1.85       1.0  T
   8   -806.4042583 -0.196138E-04  0.717E-03    1.85       1.0  T
   9   -806.4042645 -0.619405E-05  0.317E-03    1.85       1.4  T
  10   -806.4042653 -0.825436E-06  0.134E-03    1.85       3.3  T
  11   -806.4042656 -0.216920E-06  0.650E-04    1.85       6.7  T
  12   -806.4042656 -0.485657E-07  0.281E-04    1.85      15.5  T
  13   -806.4042656 -0.833415E-08  0.144E-04    1.85      30.3  T
  14   -806.4042656 -0.263253E-08  0.577E-05    1.85      75.6  T
  15   -806.4042656 -0.422574E-09  0.255E-05    1.85     170.9  T
speedup 15.97
cpu  time for SCC   55.52 s
wall time for SCC    3.48 s

   *** convergence criteria satisfied after 15 iterations ***

          eigenvalues
 #    :         690        691        692        693        694        695        696        697
 occ. :        2.000      2.000      2.000      2.000      2.000      2.000      2.000      2.000
 eps  :       -10.495    -10.418    -10.268    -10.239    -10.231    -10.166    -10.148    -10.052
 #    :         698        699        700        701        702        703        704        705
 occ. :        2.000      2.000      2.000      2.000      2.000      0.000      0.000      0.000
 eps  :       -10.035    -10.030    -10.017    -10.004     -9.883     -8.033     -7.847     -7.810
 #    :         706        707        708        709        710        711        712        713
 occ. :        0.000      0.000      0.000      0.000      0.000      0.000      0.000      0.000
 eps  :        -7.671     -7.662     -7.625     -7.534     -6.729     -6.686     -6.528     -6.487


   #   Z            q   n(s)   n(p)   n(d)      C6AA      α(0)
   1   7 N     -0.384  1.305  4.079  0.000    29.927     8.125
   2   6 C      0.037  1.054  2.909  0.000    19.965     6.365
   3   6 C      0.187  1.101  2.712  0.000    23.993     8.022
   4   8 O     -0.360  1.734  4.626  0.000    20.898     6.129
   5   6 C     -0.079  1.062  3.016  0.000    21.990     6.675
   6   6 C     -0.009  1.056  2.953  0.000    20.711     6.473
   7   6 C     -0.114  1.041  3.073  0.000    22.737     6.798
   8   6 C     -0.111  1.038  3.073  0.000    22.680     6.790
   9   1 H      0.163  0.837  0.000  0.000     1.318     1.798
  10   1 H      0.057  0.943  0.000  0.000     2.234     2.337
  11   1 H      0.060  0.940  0.000  0.000     2.198     2.319
  12   1 H      0.055  0.945  0.000  0.000     2.259     2.350
  13   1 H      0.036  0.964  0.000  0.000     2.499     2.472
  14   1 H      0.030  0.970  0.000  0.000     2.593     2.518
  15   1 H      0.037  0.963  0.000  0.000     2.487     2.466
  16   1 H      0.037  0.963  0.000  0.000     2.486     2.466
  17   1 H      0.033  0.967  0.000  0.000     2.541     2.493
  18   1 H      0.042  0.958  0.000  0.000     2.423     2.434
  19   1 H      0.044  0.956  0.000  0.000     2.394     2.420
  20   7 N     -0.390  1.307  4.083  0.000    30.093     8.147
  21   6 C      0.019  1.066  2.914  0.000    20.257     6.410
  22   6 C      0.261  1.049  2.691  0.000    22.609     7.786
  23   8 O     -0.493  1.737  4.756  0.000    23.625     6.517
  24   6 C     -0.031  1.070  2.962  0.000    21.095     6.532
  25   6 C     -0.056  1.049  3.007  0.000    21.579     6.613
  26   6 C     -0.119  1.038  3.081  0.000    22.836     6.814
  27   6 C     -0.104  1.034  3.069  0.000    22.543     6.771
  28   1 H      0.157  0.843  0.000  0.000     1.356     1.824
  29   1 H      0.036  0.964  0.000  0.000     2.507     2.476
  30   1 H      0.053  0.947  0.000  0.000     2.279     2.361
  31   1 H      0.033  0.967  0.000  0.000     2.538     2.491
  32   1 H      0.034  0.966  0.000  0.000     2.537     2.491
  33   1 H      0.048  0.952  0.000  0.000     2.346     2.395
  34   1 H      0.042  0.958  0.000  0.000     2.427     2.436
  35   1 H      0.052  0.948  0.000  0.000     2.300     2.372
  36   1 H      0.033  0.967  0.000  0.000     2.537     2.491
  37   1 H      0.029  0.971  0.000  0.000     2.607     2.525
  38   1 H      0.041  0.959  0.000  0.000     2.439     2.442
  39   7 N     -0.190  1.252  3.938  0.000    25.115     7.443
  40   6 C      0.022  1.059  2.919  0.000    20.205     6.401
  41   6 C      0.283  1.038  2.679  0.000    22.200     7.716
  42   8 O     -0.471  1.736  4.735  0.000    23.146     6.450
  43   6 C     -0.127  1.069  3.058  0.000    22.923     6.815
  44   6 C      0.288  1.034  2.678  0.000    22.116     7.700
  45   8 O     -0.471  1.752  4.718  0.000    23.143     6.450
  46   7 N     -0.277  1.272  4.005  0.000    27.162     7.740
  47   1 H      0.257  0.743  0.000  0.000     0.857     1.450
  48   1 H      0.075  0.925  0.000  0.000     2.035     2.231
  49   1 H      0.097  0.903  0.000  0.000     1.814     2.106
  50   1 H      0.102  0.898  0.000  0.000     1.770     2.080
  51   1 H      0.213  0.787  0.000  0.000     1.044     1.601
  52   1 H      0.223  0.777  0.000  0.000     0.995     1.563
  53   7 N     -0.175  1.240  3.935  0.000    24.780     7.393
  54   6 C      0.012  1.063  2.926  0.000    20.385     6.429
  55   6 C      0.278  1.040  2.682  0.000    22.299     7.733
  56   8 O     -0.485  1.745  4.741  0.000    23.463     6.494
  57   6 C     -0.115  1.065  3.050  0.000    22.686     6.780
  58   6 C      0.295  1.031  2.674  0.000    21.992     7.678
  59   8 O     -0.497  1.760  4.736  0.000    23.715     6.529
  60   7 N     -0.280  1.262  4.018  0.000    27.224     7.749
  61   1 H      0.216  0.784  0.000  0.000     1.030     1.590
  62   1 H      0.111  0.889  0.000  0.000     1.685     2.030
  63   1 H      0.088  0.912  0.000  0.000     1.898     2.154
  64   1 H      0.083  0.917  0.000  0.000     1.953     2.185
  65   1 H      0.237  0.763  0.000  0.000     0.933     1.513
  66   1 H      0.230  0.770  0.000  0.000     0.966     1.539
  67   7 N     -0.174  1.241  3.933  0.000    24.755     7.390
  68   6 C      0.025  1.063  2.912  0.000    20.149     6.391
  69   6 C      0.273  1.040  2.687  0.000    22.383     7.747
  70   8 O     -0.495  1.740  4.756  0.000    23.684     6.525
  71   6 C     -0.113  1.062  3.051  0.000    22.652     6.775
  72   6 C      0.291  1.033  2.676  0.000    22.065     7.691
  73   8 O     -0.492  1.758  4.734  0.000    23.608     6.514
  74   7 N     -0.278  1.259  4.019  0.000    27.183     7.743
  75   1 H      0.210  0.790  0.000  0.000     1.058     1.611
  76   1 H      0.076  0.924  0.000  0.000     2.017     2.221
  77   1 H      0.098  0.902  0.000  0.000     1.803     2.100
  78   1 H      0.088  0.912  0.000  0.000     1.903     2.157
  79   1 H      0.238  0.762  0.000  0.000     0.932     1.513
  80   1 H      0.213  0.787  0.000  0.000     1.042     1.599
  81   7 N     -0.174  1.248  3.926  0.000    24.765     7.391
  82   6 C      0.016  1.062  2.921  0.000    20.306     6.416
  83   6 C      0.266  1.045  2.688  0.000    22.509     7.769
  84   8 O     -0.492  1.736  4.756  0.000    23.613     6.515
  85   6 C     -0.082  1.060  3.022  0.000    22.048     6.684
  86   6 C     -0.021  1.059  2.963  0.000    20.918     6.505
  87   6 C     -0.116  1.041  3.074  0.000    22.767     6.803
  88   6 C     -0.125  1.042  3.083  0.000    22.946     6.830
  89   1 H      0.239  0.761  0.000  0.000     0.927     1.508
  90   1 H      0.084  0.916  0.000  0.000     1.936     2.176
  91   1 H      0.061  0.939  0.000  0.000     2.185     2.311
  92   1 H      0.065  0.935  0.000  0.000     2.143     2.290
  93   1 H      0.054  0.946  0.000  0.000     2.270     2.356
  94   1 H      0.053  0.947  0.000  0.000     2.283     2.363
  95   1 H      0.030  0.970  0.000  0.000     2.587     2.515
  96   1 H      0.040  0.960  0.000  0.000     2.455     2.450
  97   1 H      0.052  0.948  0.000  0.000     2.295     2.369
  98   1 H      0.051  0.949  0.000  0.000     2.310     2.377
  99   1 H      0.039  0.961  0.000  0.000     2.464     2.455
 100   7 N     -0.183  1.247  3.935  0.000    24.959     7.420
 101   6 C      0.018  1.063  2.919  0.000    20.271     6.411
 102   6 C      0.273  1.042  2.685  0.000    22.390     7.749
 103   8 O     -0.500  1.746  4.755  0.000    23.791     6.540
 104   6 C     -0.067  1.051  3.016  0.000    21.778     6.643
 105   6 C     -0.105  1.059  3.046  0.000    22.498     6.752
 106   6 C      0.296  1.038  2.667  0.000    21.985     7.677
 107   8 O     -0.500  1.747  4.753  0.000    23.782     6.538
 108   7 N     -0.290  1.267  4.023  0.000    27.482     7.786
 109   1 H      0.234  0.766  0.000  0.000     0.949     1.526
 110   1 H      0.079  0.921  0.000  0.000     1.993     2.208
 111   1 H      0.069  0.931  0.000  0.000     2.092     2.262
 112   1 H      0.050  0.950  0.000  0.000     2.319     2.382
 113   1 H      0.063  0.937  0.000  0.000     2.159     2.298
 114   1 H      0.098  0.902  0.000  0.000     1.805     2.101
 115   1 H      0.230  0.770  0.000  0.000     0.967     1.540
 116   1 H      0.230  0.770  0.000  0.000     0.965     1.539
 117   7 N     -0.185  1.250  3.935  0.000    25.008     7.427
 118   6 C      0.021  1.062  2.917  0.000    20.226     6.403
 119   6 C      0.281  1.041  2.679  0.000    22.251     7.725
 120   8 O     -0.508  1.755  4.754  0.000    23.968     6.564
 121   6 C     -0.082  1.056  3.026  0.000    22.060     6.686
 122   6 C     -0.078  1.052  3.026  0.000    21.996     6.677
 123   6 C     -0.029  1.054  2.975  0.000    21.178     6.566
 124   7 N     -0.146  1.211  3.935  0.000    24.165     7.301
 125   6 C      0.238  1.019  2.743  0.000    23.020     7.855
 126   7 N     -0.269  1.262  4.007  0.000    26.960     7.712
 127   7 N     -0.275  1.238  4.037  0.000    27.102     7.732
 128   1 H      0.225  0.775  0.000  0.000     0.985     1.555
 129   1 H      0.077  0.923  0.000  0.000     2.015     2.220
 130   1 H      0.067  0.933  0.000  0.000     2.122     2.278
 131   1 H      0.074  0.926  0.000  0.000     2.043     2.235
 132   1 H      0.074  0.926  0.000  0.000     2.045     2.237
 133   1 H      0.055  0.945  0.000  0.000     2.261     2.352
 134   1 H      0.093  0.907  0.000  0.000     1.848     2.126
 135   1 H      0.078  0.922  0.000  0.000     2.003     2.213
 136   1 H      0.234  0.766  0.000  0.000     0.949     1.526
 137   1 H      0.251  0.749  0.000  0.000     0.880     1.470
 138   1 H      0.223  0.777  0.000  0.000     0.996     1.563
 139   1 H      0.250  0.750  0.000  0.000     0.883     1.472
 140   1 H      0.245  0.755  0.000  0.000     0.903     1.488
 141   7 N     -0.189  1.251  3.939  0.000    25.103     7.441
 142   6 C      0.026  1.064  2.911  0.000    20.141     6.389
 143   6 C      0.286  1.040  2.674  0.000    22.151     7.707
 144   8 O     -0.513  1.758  4.754  0.000    24.068     6.578
 145   6 C     -0.024  1.062  2.962  0.000    20.963     6.512
 146   6 C     -0.119  1.040  3.079  0.000    22.824     6.811
 147   6 C     -0.126  1.042  3.084  0.000    22.975     6.834
 148   1 H      0.225  0.775  0.000  0.000     0.986     1.555
 149   1 H      0.058  0.942  0.000  0.000     2.228     2.335
 150   1 H      0.062  0.938  0.000  0.000     2.180     2.309
 151   1 H      0.065  0.935  0.000  0.000     2.137     2.286
 152   1 H      0.043  0.957  0.000  0.000     2.415     2.430
 153   1 H      0.041  0.959  0.000  0.000     2.431     2.438
 154   1 H      0.059  0.941  0.000  0.000     2.212     2.326
 155   1 H      0.042  0.958  0.000  0.000     2.417     2.431
 156   1 H      0.054  0.946  0.000  0.000     2.266     2.354
 157   7 N     -0.188  1.247  3.941  0.000    25.079     7.438
 158   6 C      0.028  1.061  2.911  0.000    20.105     6.384
 159   6 C      0.288  1.040  2.672  0.000    22.114     7.701
 160   8 O     -0.504  1.750  4.754  0.000    23.878     6.552
 161   6 C     -0.088  1.057  3.031  0.000    22.162     6.701
 162   6 C     -0.087  1.056  3.032  0.000    22.165     6.703
 163   6 C     -0.028  1.054  2.973  0.000    21.143     6.560
 164   7 N     -0.146  1.208  3.937  0.000    24.154     7.299
 165   6 C      0.232  1.020  2.748  0.000    23.139     7.876
 166   7 N     -0.251  1.234  4.016  0.000    26.523     7.649
 167   7 N     -0.264  1.238  4.027  0.000    26.844     7.695
 168   1 H      0.231  0.769  0.000  0.000     0.961     1.536
 169   1 H      0.066  0.934  0.000  0.000     2.134     2.284
 170   1 H      0.079  0.921  0.000  0.000     1.993     2.208
 171   1 H      0.056  0.944  0.000  0.000     2.247     2.344
 172   1 H      0.067  0.933  0.000  0.000     2.116     2.275
 173   1 H      0.077  0.923  0.000  0.000     2.015     2.220
 174   1 H      0.087  0.913  0.000  0.000     1.908     2.160
 175   1 H      0.082  0.918  0.000  0.000     1.962     2.190
 176   1 H      0.224  0.776  0.000  0.000     0.991     1.560
 177   1 H      0.241  0.759  0.000  0.000     0.920     1.503
 178   1 H      0.256  0.744  0.000  0.000     0.860     1.453
 179   1 H      0.229  0.771  0.000  0.000     0.968     1.541
 180   1 H      0.247  0.753  0.000  0.000     0.894     1.481
 181   7 N     -0.171  1.238  3.933  0.000    24.710     7.383
 182   6 C      0.038  1.057  2.905  0.000    19.946     6.360
 183   6 C      0.212  1.085  2.702  0.000    23.509     7.941
 184   8 O     -0.381  1.754  4.627  0.000    21.307     6.189
 185   6 C     -0.048  1.050  2.998  0.000    21.426     6.588
 186   6 C     -0.093  1.063  3.029  0.000    22.267     6.719
 187   6 C      0.368  1.026  2.606  0.000    20.753     7.456
 188   8 O     -0.616  1.771  4.845  0.000    26.517     6.904
 189   8 O     -0.603  1.753  4.851  0.000    26.205     6.863
 190   1 H      0.214  0.786  0.000  0.000     1.037     1.595
 191   1 H      0.073  0.927  0.000  0.000     2.055     2.242
 192   1 H      0.066  0.934  0.000  0.000     2.134     2.284
 193   1 H      0.040  0.960  0.000  0.000     2.448     2.447
 194   1 H      0.026  0.974  0.000  0.000     2.639     2.540
 195   1 H      0.040  0.960  0.000  0.000     2.455     2.450
 196   7 N     -0.395  1.315  4.080  0.000    30.221     8.165
 197   6 C      0.040  1.060  2.901  0.000    19.920     6.357
 198   6 C      0.203  1.091  2.706  0.000    23.677     7.969
 199   8 O     -0.388  1.763  4.625  0.000    21.434     6.207
 200   6 C     -0.022  1.068  2.954  0.000    20.935     6.508
 201   6 C     -0.059  1.050  3.009  0.000    21.629     6.621
 202   6 C     -0.114  1.038  3.076  0.000    22.745     6.800
 203   6 C     -0.117  1.038  3.079  0.000    22.796     6.809
 204   1 H      0.168  0.832  0.000  0.000     1.286     1.776
 205   1 H      0.042  0.958  0.000  0.000     2.428     2.437
 206   1 H      0.046  0.954  0.000  0.000     2.368     2.406
 207   1 H      0.038  0.962  0.000  0.000     2.482     2.464
 208   1 H      0.032  0.968  0.000  0.000     2.564     2.504
 209   1 H      0.062  0.938  0.000  0.000     2.178     2.308
 210   1 H      0.026  0.974  0.000  0.000     2.651     2.546
 211   1 H      0.047  0.953  0.000  0.000     2.351     2.398
 212   1 H      0.047  0.953  0.000  0.000     2.355     2.400
 213   1 H      0.043  0.957  0.000  0.000     2.410     2.428
 214   1 H      0.052  0.948  0.000  0.000     2.299     2.371
 215   7 N     -0.383  1.315  4.068  0.000    29.900     8.121
 216   6 C      0.030  1.059  2.911  0.000    20.085     6.383
 217   6 C      0.208  1.087  2.705  0.000    23.585     7.954
 218   8 O     -0.371  1.757  4.614  0.000    21.105     6.159
 219   6 C     -0.023  1.065  2.958  0.000    20.949     6.510
 220   6 C     -0.058  1.049  3.009  0.000    21.621     6.620
 221   6 C     -0.115  1.039  3.076  0.000    22.751     6.801
 222   6 C     -0.114  1.034  3.080  0.000    22.740     6.801
 223   1 H      0.154  0.846  0.000  0.000     1.373     1.835
 224   1 H      0.062  0.938  0.000  0.000     2.180     2.309
 225   1 H      0.041  0.959  0.000  0.000     2.442     2.444
 226   1 H      0.027  0.973  0.000  0.000     2.625     2.534
 227   1 H      0.040  0.960  0.000  0.000     2.452     2.449
 228   1 H      0.049  0.951  0.000  0.000     2.328     2.386
 229   1 H      0.036  0.964  0.000  0.000     2.503     2.474
 230   1 H      0.050  0.950  0.000  0.000     2.324     2.384
 231   1 H      0.034  0.966  0.000  0.000     2.536     2.490
 232   1 H      0.046  0.954  0.000  0.000     2.368     2.407
 233   1 H      0.032  0.968  0.000  0.000     2.557     2.501
 234   7 N     -0.389  1.300  4.089  0.000    30.079     8.145
 235   6 C      0.027  1.060  2.914  0.000    20.137     6.391
 236   6 C      0.272  1.044  2.684  0.000    22.401     7.751
 237   8 O     -0.515  1.758  4.757  0.000    24.116     6.584
 238   6 C      0.117  1.043  2.840  0.000    18.769     6.186
 239   8 O     -0.467  1.723  4.743  0.000    22.185     6.358
 240   6 C     -0.131  1.044  3.087  0.000    23.084     6.851
 241   1 H      0.172  0.828  0.000  0.000     1.261     1.759
 242   1 H      0.037  0.963  0.000  0.000     2.490     2.468
 243   1 H      0.004  0.996  0.000  0.000     2.993     2.706
 244   1 H      0.316  0.684  0.000  0.000     0.675     1.291
 245   1 H      0.052  0.948  0.000  0.000     2.300     2.372
 246   1 H      0.049  0.951  0.000  0.000     2.337     2.391
 247   1 H      0.063  0.937  0.000  0.000     2.161     2.299
 248   7 N     -0.161  1.239  3.921  0.000    24.472     7.347
 249   6 C      0.018  1.060  2.921  0.000    20.272     6.411
 250   6 C      0.203  1.088  2.709  0.000    23.684     7.970
 251   8 O     -0.367  1.748  4.619  0.000    21.029     6.148
 252   6 C     -0.079  1.062  3.017  0.000    21.999     6.676
 253   6 C     -0.015  1.058  2.957  0.000    20.805     6.488
 254   6 C     -0.120  1.043  3.077  0.000    22.855     6.816
 255   6 C     -0.120  1.039  3.081  0.000    22.856     6.817
 256   1 H      0.225  0.775  0.000  0.000     0.986     1.555
 257   1 H      0.102  0.898  0.000  0.000     1.764     2.077
 258   1 H      0.065  0.935  0.000  0.000     2.142     2.289
 259   1 H      0.068  0.932  0.000  0.000     2.107     2.270
 260   1 H      0.040  0.960  0.000  0.000     2.453     2.449
 261   1 H      0.050  0.950  0.000  0.000     2.325     2.384
 262   1 H      0.045  0.955  0.000  0.000     2.383     2.414
 263   1 H      0.050  0.950  0.000  0.000     2.318     2.381
 264   1 H      0.042  0.958  0.000  0.000     2.426     2.436
 265   1 H      0.040  0.960  0.000  0.000     2.448     2.447
 266   1 H      0.044  0.956  0.000  0.000     2.402     2.424
 267   7 N     -0.386  1.309  4.077  0.000    29.996     8.134
 268   6 C      0.033  1.056  2.911  0.000    20.037     6.376
 269   6 C      0.198  1.087  2.715  0.000    23.784     7.987
 270   8 O     -0.391  1.761  4.630  0.000    21.509     6.218
 271   6 C     -0.073  1.060  3.014  0.000    21.892     6.660
 272   6 C     -0.013  1.057  2.956  0.000    20.774     6.483
 273   6 C     -0.122  1.043  3.079  0.000    22.896     6.822
 274   6 C     -0.121  1.041  3.080  0.000    22.866     6.818
 275   1 H      0.151  0.849  0.000  0.000     1.396     1.851
 276   1 H      0.087  0.913  0.000  0.000     1.905     2.159
 277   1 H      0.040  0.960  0.000  0.000     2.451     2.448
 278   1 H      0.054  0.946  0.000  0.000     2.268     2.355
 279   1 H      0.028  0.972  0.000  0.000     2.612     2.527
 280   1 H      0.041  0.959  0.000  0.000     2.434     2.440
 281   1 H      0.048  0.952  0.000  0.000     2.347     2.396
 282   1 H      0.046  0.954  0.000  0.000     2.376     2.411
 283   1 H      0.040  0.960  0.000  0.000     2.447     2.446
 284   1 H      0.051  0.949  0.000  0.000     2.313     2.378
 285   1 H      0.042  0.958  0.000  0.000     2.423     2.434
 286   7 N     -0.406  1.320  4.086  0.000    30.529     8.206
 287   6 C      0.022  1.060  2.917  0.000    20.214     6.403
 288   6 C      0.259  1.050  2.690  0.000    22.631     7.790
 289   8 O     -0.496  1.742  4.753  0.000    23.685     6.525
 290   6 C     -0.078  1.058  3.020  0.000    21.981     6.674
 291   6 C     -0.073  1.051  3.023  0.000    21.898     6.662
 292   6 C     -0.094  1.055  3.039  0.000    22.299     6.723
 293   6 C     -0.050  1.059  2.991  0.000    21.563     6.628
 294   7 N     -0.148  1.232  3.916  0.000    24.195     7.306
 295   1 H      0.173  0.827  0.000  0.000     1.258     1.757
 296   1 H      0.049  0.951  0.000  0.000     2.327     2.386
 297   1 H      0.058  0.942  0.000  0.000     2.225     2.332
 298   1 H      0.053  0.947  0.000  0.000     2.281     2.362
 299   1 H      0.055  0.945  0.000  0.000     2.261     2.351
 300   1 H      0.053  0.947  0.000  0.000     2.287     2.365
 301   1 H      0.077  0.923  0.000  0.000     2.010     2.217
 302   1 H      0.079  0.921  0.000  0.000     1.989     2.205
 303   1 H      0.116  0.884  0.000  0.000     1.643     2.004
 304   1 H      0.114  0.886  0.000  0.000     1.664     2.018
 305   1 H      0.300  0.700  0.000  0.000     0.712     1.322
 306   1 H      0.299  0.701  0.000  0.000     0.717     1.327
 307   1 H      0.299  0.701  0.000  0.000     0.717     1.327
 308   7 N     -0.171  1.243  3.928  0.000    24.704     7.382
 309   6 C      0.008  1.068  2.924  0.000    20.443     6.437
 310   6 C      0.274  1.043  2.683  0.000    22.367     7.745
 311   8 O     -0.477  1.737  4.740  0.000    23.277     6.468
 312   6 C     -0.031  1.069  2.962  0.000    21.087     6.531
 313   6 C     -0.073  1.053  3.019  0.000    21.886     6.660
 314   6 C     -0.119  1.038  3.080  0.000    22.826     6.812
 315   6 C     -0.109  1.036  3.073  0.000    22.649     6.787
 316   1 H      0.218  0.782  0.000  0.000     1.019     1.582
 317   1 H      0.090  0.910  0.000  0.000     1.876     2.142
 318   1 H      0.046  0.954  0.000  0.000     2.367     2.406
 319   1 H      0.061  0.939  0.000  0.000     2.183     2.310
 320   1 H      0.057  0.943  0.000  0.000     2.233     2.337
 321   1 H      0.059  0.941  0.000  0.000     2.214     2.327
 322   1 H      0.036  0.964  0.000  0.000     2.508     2.476
 323   1 H      0.058  0.942  0.000  0.000     2.220     2.330
 324   1 H      0.046  0.954  0.000  0.000     2.373     2.409
 325   1 H      0.040  0.960  0.000  0.000     2.451     2.448
 326   1 H      0.027  0.973  0.000  0.000     2.635     2.539
 327   7 N     -0.178  1.241  3.937  0.000    24.859     7.405
 328   6 C      0.030  1.057  2.913  0.000    20.073     6.379
 329   6 C      0.276  1.042  2.683  0.000    22.338     7.740
 330   8 O     -0.493  1.741  4.752  0.000    23.630     6.517
 331   6 C     -0.106  1.071  3.035  0.000    22.526     6.757
 332   6 C      0.371  1.019  2.610  0.000    20.718     7.449
 333   8 O     -0.613  1.776  4.837  0.000    26.434     6.893
 334   8 O     -0.602  1.744  4.857  0.000    26.159     6.857
 335   1 H      0.207  0.793  0.000  0.000     1.070     1.620
 336   1 H      0.073  0.927  0.000  0.000     2.053     2.240
 337   1 H      0.042  0.958  0.000  0.000     2.418     2.432
 338   1 H      0.039  0.961  0.000  0.000     2.457     2.451
 339   7 N     -0.174  1.243  3.931  0.000    24.770     7.392
 340   6 C      0.022  1.060  2.918  0.000    20.213     6.402
 341   6 C      0.273  1.041  2.687  0.000    22.393     7.749
 342   8 O     -0.511  1.745  4.766  0.000    24.025     6.572
 343   6 C     -0.140  1.044  3.096  0.000    23.254     6.875
 344   1 H      0.208  0.792  0.000  0.000     1.066     1.618
 345   1 H      0.065  0.935  0.000  0.000     2.144     2.290
 346   1 H      0.070  0.930  0.000  0.000     2.086     2.259
 347   1 H      0.075  0.925  0.000  0.000     2.033     2.229
 348   1 H      0.088  0.912  0.000  0.000     1.902     2.157
 349   7 N     -0.177  1.251  3.926  0.000    24.837     7.402
 350   6 C      0.023  1.058  2.919  0.000    20.201     6.400
 351   6 C      0.275  1.042  2.683  0.000    22.351     7.742
 352   8 O     -0.499  1.743  4.756  0.000    23.756     6.535
 353   6 C     -0.135  1.044  3.091  0.000    23.141     6.858
 354   1 H      0.242  0.758  0.000  0.000     0.913     1.497
 355   1 H      0.069  0.931  0.000  0.000     2.099     2.265
 356   1 H      0.073  0.927  0.000  0.000     2.048     2.238
 357   1 H      0.080  0.920  0.000  0.000     1.977     2.199
 358   1 H      0.079  0.921  0.000  0.000     1.993     2.207
 359   7 N     -0.182  1.250  3.932  0.000    24.939     7.417
 360   6 C      0.026  1.059  2.915  0.000    20.141     6.389
 361   6 C      0.283  1.041  2.675  0.000    22.203     7.716
 362   8 O     -0.505  1.743  4.762  0.000    23.893     6.554
 363   6 C     -0.078  1.059  3.020  0.000    21.985     6.674
 364   6 C     -0.018  1.058  2.959  0.000    20.858     6.496
 365   6 C     -0.130  1.044  3.086  0.000    23.054     6.846
 366   6 C     -0.115  1.040  3.075  0.000    22.748     6.800
 367   1 H      0.232  0.768  0.000  0.000     0.957     1.532
 368   1 H      0.081  0.919  0.000  0.000     1.966     2.193
 369   1 H      0.059  0.941  0.000  0.000     2.209     2.324
 370   1 H      0.052  0.948  0.000  0.000     2.290     2.366
 371   1 H      0.055  0.945  0.000  0.000     2.255     2.348
 372   1 H      0.058  0.942  0.000  0.000     2.217     2.329
 373   1 H      0.050  0.950  0.000  0.000     2.324     2.384
 374   1 H      0.045  0.955  0.000  0.000     2.382     2.414
 375   1 H      0.051  0.949  0.000  0.000     2.306     2.375
 376   1 H      0.040  0.960  0.000  0.000     2.455     2.450
 377   1 H      0.032  0.968  0.000  0.000     2.554     2.499
 378   7 N     -0.195  1.254  3.941  0.000    25.226     7.460
 379   6 C      0.036  1.055  2.909  0.000    19.975     6.364
 380   6 C      0.285  1.041  2.674  0.000    22.164     7.709
 381   8 O     -0.520  1.748  4.772  0.000    24.234     6.600
 382   6 C     -0.134  1.043  3.091  0.000    23.138     6.858
 383   1 H      0.239  0.761  0.000  0.000     0.927     1.508
 384   1 H      0.047  0.953  0.000  0.000     2.363     2.404
 385   1 H      0.059  0.941  0.000  0.000     2.214     2.327
 386   1 H      0.073  0.927  0.000  0.000     2.052     2.240
 387   1 H      0.078  0.922  0.000  0.000     2.002     2.213
 388   7 N     -0.184  1.248  3.936  0.000    24.991     7.425
 389   6 C      0.025  1.061  2.914  0.000    20.161     6.394
 390   6 C      0.280  1.041  2.679  0.000    22.264     7.727
 391   8 O     -0.503  1.753  4.750  0.000    23.855     6.548
 392   6 C     -0.072  1.052  3.021  0.000    21.869     6.657
 393   6 C     -0.104  1.059  3.045  0.000    22.480     6.750
 394   6 C      0.290  1.038  2.672  0.000    22.082     7.694
 395   8 O     -0.487  1.744  4.743  0.000    23.492     6.498
 396   7 N     -0.283  1.263  4.019  0.000    27.302     7.760
 397   1 H      0.234  0.766  0.000  0.000     0.950     1.527
 398   1 H      0.054  0.946  0.000  0.000     2.267     2.355
 399   1 H      0.085  0.915  0.000  0.000     1.929     2.172
 400   1 H      0.062  0.938  0.000  0.000     2.178     2.308
 401   1 H      0.065  0.935  0.000  0.000     2.140     2.287
 402   1 H      0.073  0.927  0.000  0.000     2.050     2.239
 403   1 H      0.209  0.791  0.000  0.000     1.063     1.615
 404   1 H      0.239  0.761  0.000  0.000     0.927     1.508
 405   7 N     -0.182  1.249  3.933  0.000    24.947     7.418
 406   6 C      0.026  1.064  2.910  0.000    20.132     6.388
 407   6 C      0.286  1.042  2.672  0.000    22.162     7.709
 408   8 O     -0.513  1.736  4.777  0.000    24.075     6.578
 409   6 C     -0.023  1.062  2.961  0.000    20.949     6.510
 410   6 C     -0.122  1.040  3.081  0.000    22.886     6.821
 411   6 C     -0.128  1.042  3.085  0.000    23.010     6.839
 412   1 H      0.229  0.771  0.000  0.000     0.970     1.543
 413   1 H      0.065  0.935  0.000  0.000     2.139     2.287
 414   1 H      0.047  0.953  0.000  0.000     2.362     2.404
 415   1 H      0.075  0.925  0.000  0.000     2.026     2.226
 416   1 H      0.037  0.963  0.000  0.000     2.487     2.466
 417   1 H      0.048  0.952  0.000  0.000     2.348     2.397
 418   1 H      0.070  0.930  0.000  0.000     2.091     2.261
 419   1 H      0.055  0.945  0.000  0.000     2.258     2.350
 420   1 H      0.056  0.944  0.000  0.000     2.249     2.345
 421   7 N     -0.190  1.250  3.940  0.000    25.129     7.445
 422   6 C      0.039  1.055  2.906  0.000    19.927     6.356
 423   6 C      0.266  1.046  2.687  0.000    22.505     7.769
 424   8 O     -0.504  1.739  4.765  0.000    23.873     6.551
 425   6 C     -0.101  1.069  3.032  0.000    22.429     6.743
 426   6 C      0.371  1.022  2.606  0.000    20.704     7.446
 427   8 O     -0.598  1.766  4.831  0.000    26.067     6.845
 428   8 O     -0.591  1.734  4.857  0.000    25.888     6.822
 429   1 H      0.230  0.770  0.000  0.000     0.965     1.539
 430   1 H      0.075  0.925  0.000  0.000     2.032     2.229
 431   1 H      0.022  0.978  0.000  0.000     2.710     2.574
 432   1 H      0.037  0.963  0.000  0.000     2.485     2.465
 433   7 N     -0.191  1.250  3.941  0.000    25.135     7.446
 434   6 C      0.015  1.063  2.922  0.000    20.324     6.419
 435   6 C      0.289  1.037  2.674  0.000    22.109     7.700
 436   8 O     -0.505  1.760  4.745  0.000    23.885     6.552
 437   6 C      0.118  1.046  2.835  0.000    18.741     6.181
 438   8 O     -0.478  1.715  4.762  0.000    22.416     6.391
 439   6 C     -0.129  1.042  3.088  0.000    23.044     6.846
 440   1 H      0.227  0.773  0.000  0.000     0.977     1.548
 441   1 H      0.077  0.923  0.000  0.000     2.006     2.215
 442   1 H      0.050  0.950  0.000  0.000     2.316     2.380
 443   1 H      0.324  0.676  0.000  0.000     0.654     1.270
 444   1 H      0.060  0.940  0.000  0.000     2.194     2.316
 445   1 H      0.065  0.935  0.000  0.000     2.147     2.291
 446   1 H      0.038  0.962  0.000  0.000     2.472     2.459
 447   7 N     -0.186  1.243  3.943  0.000    25.028     7.430
 448   6 C      0.034  1.055  2.910  0.000    20.006     6.369
 449   6 C      0.268  1.047  2.685  0.000    22.467     7.762
 450   8 O     -0.514  1.758  4.756  0.000    24.089     6.580
 451   6 C     -0.074  1.060  3.014  0.000    21.914     6.664
 452   6 C     -0.007  1.054  2.953  0.000    20.668     6.466
 453   6 C     -0.113  1.042  3.071  0.000    22.718     6.796
 454   6 C     -0.108  1.039  3.070  0.000    22.623     6.782
 455   1 H      0.216  0.784  0.000  0.000     1.028     1.588
 456   1 H      0.053  0.947  0.000  0.000     2.288     2.365
 457   1 H      0.067  0.933  0.000  0.000     2.114     2.274
 458   1 H      0.052  0.948  0.000  0.000     2.289     2.366
 459   1 H      0.034  0.966  0.000  0.000     2.536     2.490
 460   1 H      0.048  0.952  0.000  0.000     2.348     2.396
 461   1 H      0.046  0.954  0.000  0.000     2.368     2.406
 462   1 H      0.050  0.950  0.000  0.000     2.314     2.379
 463   1 H      0.045  0.955  0.000  0.000     2.389     2.417
 464   1 H      0.041  0.959  0.000  0.000     2.436     2.441
 465   1 H      0.015  0.985  0.000  0.000     2.814     2.623
 466   7 N     -0.184  1.249  3.935  0.000    24.993     7.425
 467   6 C      0.020  1.064  2.916  0.000    20.244     6.406
 468   6 C      0.288  1.039  2.673  0.000    22.121     7.702
 469   8 O     -0.497  1.753  4.744  0.000    23.728     6.531
 470   6 C     -0.086  1.058  3.027  0.000    22.130     6.697
 471   6 C     -0.087  1.054  3.033  0.000    22.157     6.702
 472   6 C     -0.025  1.052  2.973  0.000    21.107     6.557
 473   7 N     -0.143  1.212  3.931  0.000    24.104     7.292
 474   6 C      0.228  1.022  2.751  0.000    23.216     7.889
 475   7 N     -0.261  1.257  4.003  0.000    26.760     7.683
 476   7 N     -0.251  1.233  4.018  0.000    26.523     7.649
 477   1 H      0.231  0.769  0.000  0.000     0.960     1.535
 478   1 H      0.082  0.918  0.000  0.000     1.961     2.190
 479   1 H      0.081  0.919  0.000  0.000     1.968     2.194
 480   1 H      0.060  0.940  0.000  0.000     2.199     2.319
 481   1 H      0.058  0.942  0.000  0.000     2.220     2.330
 482   1 H      0.087  0.913  0.000  0.000     1.909     2.161
 483   1 H      0.075  0.925  0.000  0.000     2.029     2.228
 484   1 H      0.100  0.900  0.000  0.000     1.788     2.091
 485   1 H      0.247  0.753  0.000  0.000     0.896     1.483
 486   1 H      0.207  0.793  0.000  0.000     1.070     1.620
 487   1 H      0.254  0.746  0.000  0.000     0.869     1.460
 488   1 H      0.257  0.743  0.000  0.000     0.856     1.449
 489   1 H      0.243  0.757  0.000  0.000     0.912     1.496
 490   7 N     -0.183  1.242  3.941  0.000    24.971     7.422
 491   6 C      0.011  1.066  2.923  0.000    20.401     6.432
 492   6 C      0.287  1.035  2.679  0.000    22.139     7.705
 493   8 O     -0.503  1.746  4.758  0.000    23.861     6.549
 494   6 C      0.076  1.039  2.885  0.000    19.520     6.328
 495   8 O     -0.475  1.711  4.763  0.000    22.353     6.382
 496   1 H      0.224  0.776  0.000  0.000     0.993     1.561
 497   1 H      0.081  0.919  0.000  0.000     1.973     2.197
 498   1 H      0.036  0.964  0.000  0.000     2.499     2.472
 499   1 H      0.077  0.923  0.000  0.000     2.015     2.220
 500   1 H      0.314  0.686  0.000  0.000     0.681     1.296
 501   7 N     -0.161  1.235  3.926  0.000    24.489     7.350
 502   6 C      0.052  1.050  2.898  0.000    19.712     6.322
 503   6 C      0.206  1.086  2.708  0.000    23.621     7.960
 504   8 O     -0.373  1.747  4.626  0.000    21.158     6.167
 505   6 C     -0.098  1.075  3.023  0.000    22.359     6.732
 506   6 C      0.380  1.019  2.601  0.000    20.569     7.422
 507   8 O     -0.625  1.764  4.861  0.000    26.743     6.933
 508   8 O     -0.610  1.767  4.843  0.000    26.368     6.885
 509   1 H      0.201  0.799  0.000  0.000     1.103     1.645
 510   1 H      0.064  0.936  0.000  0.000     2.157     2.297
 511   1 H      0.049  0.951  0.000  0.000     2.331     2.388
 512   1 H      0.043  0.957  0.000  0.000     2.415     2.430
 513   1 H      0.176  0.824  0.000  0.000     1.236     1.742
 514   1 H      0.094  0.906  0.000  0.000     1.840     2.121
 515   1 H      0.180  0.820  0.000  0.000     1.216     1.727
 516   1 H      0.070  0.930  0.000  0.000     2.087     2.259
 517   1 H      0.182  0.818  0.000  0.000     1.201     1.716
 518   1 H      0.067  0.933  0.000  0.000     2.115     2.274
 519   1 H      0.182  0.818  0.000  0.000     1.204     1.719
 520   1 H      0.074  0.926  0.000  0.000     2.047     2.237
 521   1 H      0.186  0.814  0.000  0.000     1.181     1.702
 522   1 H      0.080  0.920  0.000  0.000     1.980     2.200
 523   1 H      0.182  0.818  0.000  0.000     1.203     1.718
 524   1 H      0.068  0.932  0.000  0.000     2.108     2.270
 525   1 H      0.178  0.822  0.000  0.000     1.226     1.734
 526   1 H      0.073  0.927  0.000  0.000     2.056     2.242

 Mol. C6AA /au·bohr⁶  :    2427825.886965
 Mol. C8AA /au·bohr⁸  :   53142368.974218
 Mol. α(0) /au        :       2317.122529

 
molecular dipole:
                 x           y           z       tot (Debye)
 q only:       43.430       9.328     -19.485
   full:       42.865       6.474     -18.961     120.268
molecular quadrupole (traceless):
                xx          xy          yy          xz          yz          zz
 q only:    26553.568   11015.192   -5522.893    5137.753     302.121  -21030.674
  q+dip:    26462.125    9725.809   -6181.671    5226.408    -429.978  -20280.455
   full:    26463.554    9725.204   -6174.476    5227.965    -430.077  -20289.078
speedup 15.94
cpu  time for grad    1 m  1.6 s
wall time for grad    0 m  3.9 s

SCC energy    :    -806.4234873
rep           :       9.5093769
ES            :       2.6067089
AES           :      -0.1166391
AXC           :       0.2516433
disp          :      -0.7036604
XB            :       0.0000000
fix           :       0.0000000
Gborn         :       0.0000000
Gsasa         :       0.0000000
Ghb           :       0.0000000
Gshift        :       0.0000000
Gsolv         :      -0.6469008     -405.94
Etot ala COSMO:    -806.4234873
grad norm     :       0.5908486
total E       :    -796.8397500
atomizationE  :     144.9606410    90964.18
(atE without considering molecular charge,
 total energy contains solvation terms)
H-L gap (eV)  :          1.8497

------------------------------------------------------------------------
 * finished run on 2019/02/13 at 00:17:53.607     
------------------------------------------------------------------------
 total:
 * wall-time:     0 d,  0 h,  0 min,  4.419 sec
 *  cpu-time:     0 d,  0 h,  1 min,  9.844 sec
 * ratio c/w:    15.804 speedup
 SCF:
 * wall-time:     0 d,  0 h,  0 min,  4.145 sec
 *  cpu-time:     0 d,  0 h,  1 min,  5.719 sec
 * ratio c/w:    15.856 speedup

