      -----------------------------------------------------------      
     |                   =====================                   |     
     |                           x T B                           |     
     |                   =====================                   |     
     |                         S. Grimme                         |     
     |          Mulliken Center for Theoretical Chemistry        |     
     |                    University of Bonn                     |     
     |                 Version 6.0.1 (SAW181210)                 |     
      -----------------------------------------------------------      

   This program is distributed in the hope that it will be useful,
   but WITHOUT ANY WARRANTY; without even the implied warranty of
   MERCHANTABILITY or FITNESS FOR A PARTICULAR PURPOSE.
   
   FOR NON-COMMERCIAL, ACADEMIA USE ONLY.
   
   Cite this work as:
   S. Grimme, C. Bannwarth, P. Shushkov, J. Comput. Theory Chem., 2017,
   13, 1989-2009.
   C. Bannwarth, S. Ehlert and S. Grimme., ChemRxiv, 2018, preprint.
   http://doi.org/10.26434/chemrxiv.7246238.v1
   
   for sTDA-xTB:
   S. Grimme and C. Bannwarth, J. Chem. Phys., 2016, 145, 054103.
   
   in the mass-spec context:
   V. Asgeirsson, C. Bauer and S. Grimme, Chem. Sci., 2017, 8, 4879.
   
   if GBSA is used:
   P. Shushkov, F. März and S. Grimme, unpublished.
   
   for ANC optimizer:
   S. Grimme, unpublished.
   Rational Function algorithm used in ANCopt:
   F. Eckert, P. Pulay, H.-J. Werner, J. Comput. Chem., 1997, 18, 1473.
   
   with help from (in alphabetical order)
   C. Bannwarth, F. Bohle, G. Brandenburg, E. Caldeweyher, M. Checinski,
   S. Dohm, S. Ehlert, S. Ehrlich, F. März, H. Neugebauer, J. Pisarek,
   P. Pracht, P. Shushkov, and S. Spicher.
   
 * started run on 2019/02/13 at 00:17:15.356     
========================================================================
 # omp threads = 16
========================================================================
number of atoms            : 614
number of electrons        : 1698
charge                     : 0
spin                       : .0
first test random number   : .7867

########################################################################
# WARNING! Please study the warnings concerning your input carefully
#  - Process number higher than OMP_NUM_THREADS, I hope you know what you are doing.
########################################################################

           ------------------------------------------------- 
          |                 G F N 2 - x T B                 |
          | Geometry, Frequencies, Noncovalent interactions |
          |            JCTC 2018 parametrisation            |
           ------------------------------------------------- 
 
      method parameters     
 k(s)        :  1.8500
 k(p)        :  2.2300
 k(d)        :  2.2300
 k(f)        :  2.0000
 kEN (H0ij)  : -2.0000
 D4 a1       :  0.5200
 D4 a2       :  5.0000
 D4 s6       :  1.0000
 D4 s8       :  2.7000
 D4 s9       :  5.0000
 alphaj      :  2.0000

 Solvent             : h2o
 Using internal parameter file: .param_gbsa2_h2o
 Gsolv ref. state (COSMO-RS): gsolv [1 M gas/solution]
 temperature (mdtemp)       :    298.150000000000     
 dielectric constant        :    80.2000000000000     
 rho                        :    1.00000000000000     
 mass                       :    18.0000000000000     
 surface tension            :    15.5689454083859     
 probe radius               :   0.975313790000000     
 vdW radii scaling          :    1.00000000000000     
 Gshift (Eh)                :   1.857443126794793E-003
 c1                         :    1.55243817000000     
 soset                      :   0.130326360000000     
 HB correction              :  T

            Z     q(EN)     CN     RAES       Cart. coordinates
     1  N   5.0   -0.20    3.23    1.96   316.31001   139.30642   168.74530
     2  C   4.0    0.03    4.33    4.26   316.71481   137.70235   170.93319
     3  C   4.0    0.16    3.40    3.08   316.64434   139.20880   173.40752
     4  O   6.0   -0.29    1.29    1.80   315.60691   138.33033   175.27182
     5  C   4.0   -0.04    4.25    4.11   319.10597   136.12159   170.64533
     6  C   4.0   -0.03    4.25    4.09   318.58079   133.98961   168.76353
     7  C   4.0    0.16    3.22    3.04   320.95044   132.53648   168.08570
     8  O   6.0   -0.30    1.21    1.80   322.25479   133.13367   166.27051
     9  N   5.0   -0.18    3.21    1.96   321.50123   130.57251   169.55509
    10  H   1.0    0.09    1.03    1.43   317.61188   139.30755   167.35508
    11  H   1.0    0.05    1.06    1.44   315.08423   136.42087   171.09308
    12  H   1.0    0.05    1.02    1.43   320.67219   137.30241   170.00030
    13  H   1.0    0.06    1.03    1.43   319.63057   135.34477   172.48315
    14  H   1.0    0.05    1.03    1.43   317.18265   132.70898   169.56412
    15  H   1.0    0.06    1.03    1.43   317.82258   134.77151   167.01388
    16  H   1.0    0.11    1.06    1.44   320.56926   130.18993   171.17837
    17  H   1.0    0.12    1.06    1.44   322.92531   129.40313   169.05009
    18  N   5.0   -0.13    3.49    2.07   317.72738   141.48688   173.33425
    19  C   4.0    0.05    4.29    4.18   317.57852   143.27031   175.40487
    20  C   4.0    0.10    3.23    3.04   314.82266   143.76003   176.16334
    21  O   6.0   -0.28    1.12    1.80   314.13331   143.68387   178.37475
    22  C   4.0    0.03    4.16    3.91   318.80961   145.74347   174.53634
    23  O   6.0   -0.25    2.09    1.84   317.90131   146.28569   172.08040
    24  H   1.0    0.10    1.09    1.44   318.47443   142.13992   171.70421
    25  H   1.0    0.07    1.05    1.44   318.53777   142.48001   177.06739
    26  H   1.0    0.05    1.01    1.43   318.32045   147.23550   175.87931
    27  H   1.0    0.05    1.01    1.43   320.86782   145.50164   174.49402
    28  H   1.0    0.12    1.02    1.43   318.20738   148.03681   171.68559
    29  N   5.0   -0.19    3.23    1.96   312.24300   138.33983   179.46856
    30  C   4.0    0.04    4.22    4.05   313.29987   138.19441   181.98662
    31  C   4.0    0.09    3.22    3.04   311.74984   139.82129   183.78513
    32  O   6.0   -0.27    1.11    1.80   311.17800   139.09299   185.91290
    33  C   4.0   -0.02    4.26    4.13   316.02882   139.10115   182.00283
    34  C   4.0    0.26    3.10    3.02   317.84515   137.40339   180.38756
    35  O   6.0   -0.31    1.26    1.80   317.38158   135.09008   180.31409
    36  O   6.0   -0.29    1.17    1.80   319.63212   138.51386   179.35979
    37  H   1.0    0.13    1.07    1.44   313.46946   138.61055   178.01989
    38  H   1.0    0.06    1.05    1.44   313.21462   136.23780   182.68467
    39  H   1.0    0.07    1.03    1.43   316.14415   141.02347   181.27215
    40  H   1.0    0.05    1.03    1.43   316.75588   139.07261   183.93511
    41  N   5.0   -0.19    3.24    1.97   309.06369   127.50973   178.51270
    42  C   4.0    0.03    4.33    4.25   311.51496   128.30101   177.60855
    43  C   4.0    0.15    3.39    3.08   312.46014   126.52551   175.52057
    44  O   6.0   -0.29    1.23    1.80   311.44506   124.49942   175.07951
    45  C   4.0   -0.04    4.29    4.18   313.39488   128.32703   179.80803
    46  C   4.0   -0.03    4.24    4.08   312.72961   130.40970   181.69994
    47  C   4.0    0.16    3.23    3.04   314.38405   130.18847   184.02286
    48  O   6.0   -0.29    1.20    1.80   314.05194   128.52053   185.60946
    49  N   5.0   -0.18    3.20    1.96   316.16946   131.94312   184.25354
    50  H   1.0    0.09    1.02    1.43   309.05991   126.02681   179.73481
    51  H   1.0    0.04    1.05    1.44   311.31010   130.20391   176.81079
    52  H   1.0    0.06    1.03    1.43   313.31338   126.49271   180.74669
    53  H   1.0    0.06    1.03    1.43   315.31702   128.61102   179.11481
    54  H   1.0    0.05    1.03    1.43   312.99458   132.25588   180.82865
    55  H   1.0    0.05    1.03    1.43   310.75840   130.19395   182.27207
    56  H   1.0    0.12    1.09    1.44   316.57631   133.17180   182.80709
    57  H   1.0    0.11    1.03    1.43   317.41372   131.82015   185.69164
    58  N   5.0   -0.14    3.50    2.08   314.41470   127.44303   174.19676
    59  C   4.0    0.03    4.40    4.39   315.89754   125.92918   172.46721
    60  C   4.0    0.16    3.45    3.10   318.67331   126.24911   173.22469
    61  O   6.0   -0.30    1.29    1.80   319.44317   128.28787   174.03260
    62  C   4.0   -0.03    4.29    4.17   315.58841   126.85193   169.73218
    63  C   4.0   -0.03    4.23    4.05   312.85198   126.74887   168.82885
    64  C   4.0    0.15    3.22    3.04   312.45442   128.41079   166.52099
    65  O   6.0   -0.29    1.22    1.80   313.98915   129.99214   165.82142
    66  N   5.0   -0.18    3.18    1.95   310.27135   128.00718   165.29997
    67  H   1.0    0.09    1.08    1.44   315.26003   129.06409   174.75490
    68  H   1.0    0.06    1.06    1.44   315.25301   123.97728   172.67107
    69  H   1.0    0.06    1.04    1.43   316.24064   128.80591   169.62433
    70  H   1.0    0.05    1.02    1.43   316.80041   125.74180   168.48973
    71  H   1.0    0.05    1.03    1.43   312.29355   124.81357   168.40794
    72  H   1.0    0.06    1.03    1.43   311.61187   127.46623   170.31798
    73  H   1.0    0.09    1.03    1.43   308.96225   126.82111   166.00077
    74  H   1.0    0.10    1.03    1.43   309.81349   129.12303   163.82520
    75  N   5.0   -0.13    3.46    2.06   320.15016   124.24904   172.86811
    76  C   4.0    0.04    4.44    4.45   322.78882   124.24196   173.60757
    77  C   4.0    0.16    3.44    3.09   324.36334   125.88341   171.82504
    78  O   6.0   -0.29    1.25    1.80   324.15856   125.75586   169.52041
    79  C   4.0   -0.04    4.27    4.14   323.79202   121.53253   173.58699
    80  C   4.0   -0.04    4.21    4.03   322.58177   120.01361   175.72487
    81  C   4.0   -0.05    4.16    3.92   322.76849   117.15977   175.33315
    82  C   4.0   -0.03    4.15    3.90   321.32174   115.86866   177.46072
    83  N   5.0   -0.12    4.00    2.87   321.26861   113.07405   177.19475
    84  H   1.0    0.08    1.07    1.44   319.45262   122.67685   172.04381
    85  H   1.0    0.06    1.06    1.44   322.89452   125.04196   175.51227
    86  H   1.0    0.05    1.03    1.43   323.36057   120.71240   171.74299
    87  H   1.0    0.06    1.03    1.43   325.84319   121.58684   173.78212
    88  H   1.0    0.06    1.03    1.43   323.46782   120.53016   177.51369
    89  H   1.0    0.06    1.04    1.43   320.59909   120.56216   175.87932
    90  H   1.0    0.04    1.03    1.43   321.94773   116.68037   173.50454
    91  H   1.0    0.04    1.02    1.43   324.75064   116.60693   175.34049
    92  H   1.0    0.06    1.02    1.43   322.16681   116.38334   179.26954
    93  H   1.0    0.04    1.03    1.43   319.37457   116.54353   177.46537
    94  H   1.0    0.06    1.02    1.43   319.90897   112.41771   178.46082
    95  H   1.0    0.06    1.02    1.43   320.74370   112.58613   175.38717
    96  H   1.0    0.06    1.02    1.43   323.00785   112.30597   177.58214
    97  N   5.0   -0.13    3.48    2.06   325.98124   127.42264   172.99828
    98  C   4.0    0.04    4.41    4.40   327.98759   128.72346   171.67837
    99  C   4.0    0.16    3.46    3.10   329.91407   126.76861   170.72832
   100  O   6.0   -0.29    1.24    1.80   330.23600   124.75004   171.80284
   101  C   4.0   -0.03    4.34    4.27   329.40886   130.51883   173.47401
   102  C   4.0   -0.02    3.53    3.13   328.27564   133.12156   173.59634
   103  C   4.0   -0.04    3.46    3.10   326.20656   133.66554   175.12344
   104  C   4.0   -0.04    3.48    3.10   329.32109   135.06558   172.17944
   105  C   4.0   -0.03    3.43    3.09   325.20212   136.07601   175.22697
   106  C   4.0   -0.04    3.44    3.09   328.35863   137.48944   172.28432
   107  C   4.0    0.07    3.45    3.09   326.27065   138.00981   173.79274
   108  O   6.0   -0.24    2.11    1.84   325.25548   140.36555   173.91187
   109  H   1.0    0.11    1.11    1.45   326.08744   127.42693   174.91249
   110  H   1.0    0.06    1.05    1.44   327.21739   129.77143   170.06546
   111  H   1.0    0.06    1.03    1.43   329.41692   129.66240   175.34991
   112  H   1.0    0.05    1.04    1.43   331.35859   130.67374   172.81103
   113  H   1.0    0.07    1.03    1.43   325.36524   132.17740   176.23955
   114  H   1.0    0.06    1.04    1.43   330.91772   134.69303   170.96714
   115  H   1.0    0.08    1.03    1.43   323.57853   136.50378   176.39054
   116  H   1.0    0.06    1.03    1.43   329.22161   138.97768   171.17884
   117  H   1.0    0.12    1.04    1.43   326.07455   141.44047   172.67708
   118  N   5.0   -0.13    3.49    2.07   331.22184   127.49513   168.69220
   119  C   4.0    0.03    4.42    4.41   333.52358   126.19167   167.96236
   120  C   4.0    0.15    3.42    3.08   335.60751   127.11403   169.76398
   121  O   6.0   -0.31    1.27    1.80   335.71229   129.33470   170.42647
   122  C   4.0   -0.04    4.26    4.13   334.11868   126.77208   165.19778
   123  C   4.0   -0.05    4.18    3.96   336.39536   125.30316   164.20082
   124  C   4.0   -0.05    4.17    3.94   336.80803   125.86919   161.39460
   125  C   4.0   -0.04    4.12    3.83   339.03504   124.35865   160.35078
   126  N   5.0   -0.12    4.00    2.87   339.37883   124.89034   157.59637
   127  H   1.0    0.11    1.10    1.44   330.98310   129.25639   167.97407
   128  H   1.0    0.05    1.06    1.44   333.19975   124.16963   168.25262
   129  H   1.0    0.05    1.03    1.43   332.43704   126.31534   164.09480
   130  H   1.0    0.06    1.03    1.43   334.42841   128.80555   165.03054
   131  H   1.0    0.05    1.03    1.43   338.07700   125.81709   165.27829
   132  H   1.0    0.04    1.03    1.43   336.05623   123.28659   164.45654
   133  H   1.0    0.04    1.03    1.43   335.07667   125.39389   160.38059
   134  H   1.0    0.04    1.03    1.43   337.14183   127.89212   161.18040
   135  H   1.0    0.05    1.02    1.43   340.75010   124.86059   161.38316
   136  H   1.0    0.04    1.02    1.43   338.67750   122.34612   160.60379
   137  H   1.0    0.06    1.02    1.43   340.89586   123.87772   156.89961
   138  H   1.0    0.06    1.02    1.43   337.73858   124.42425   156.64554
   139  H   1.0    0.06    1.02    1.43   339.72439   126.79511   157.34385
   140  N   5.0   -0.14    3.48    2.07   337.18897   125.33452   170.60613
   141  C   4.0    0.04    4.39    4.36   339.09627   125.79069   172.51069
   142  C   4.0    0.09    3.22    3.04   341.71048   125.65142   171.27430
   143  O   6.0   -0.28    1.13    1.80   342.14924   124.24311   169.49890
   144  C   4.0   -0.02    4.25    4.11   338.84278   123.82442   174.65044
   145  C   4.0   -0.08    4.11    3.83   340.83775   124.24983   176.68913
   146  C   4.0   -0.07    4.12    3.84   336.20209   123.96231   175.81130
   147  H   1.0    0.08    1.07    1.44   337.10051   123.55538   169.92763
   148  H   1.0    0.06    1.06    1.44   338.78699   127.69585   173.25340
   149  H   1.0    0.05    1.05    1.44   339.12975   121.94914   173.82169
   150  H   1.0    0.04    1.00    1.43   340.52954   122.95076   178.25008
   151  H   1.0    0.05    1.00    1.43   342.73761   123.92639   175.97336
   152  H   1.0    0.04    1.00    1.43   340.72615   126.16801   177.41986
   153  H   1.0    0.05    1.00    1.43   335.99330   122.51185   177.24974
   154  H   1.0    0.05    1.00    1.43   335.92803   125.79242   176.70229
   155  H   1.0    0.06    1.00    1.43   334.72658   123.69593   174.40560
   156  N   5.0   -0.18    3.23    1.96   349.89724   135.00718   181.80232
   157  C   4.0    0.03    4.36    4.30   347.84949   133.88454   180.37198
   158  C   4.0    0.15    3.40    3.08   346.77497   135.77718   178.45214
   159  O   6.0   -0.29    1.29    1.80   347.03529   138.05931   178.73921
   160  C   4.0   -0.05    4.34    4.27   345.71800   133.08781   182.15749
   161  C   4.0   -0.04    4.05    3.72   346.54592   131.13611   184.10929
   162  S   6.0   -0.05    2.53    3.10   347.85764   128.24520   182.73542
   163  C   4.0   -0.07    3.89    3.44   345.08079   127.07417   181.10365
   164  H   1.0    0.09    1.02    1.43   349.52086   135.64907   183.56744
   165  H   1.0    0.04    1.07    1.44   348.57964   132.22530   179.36880
   166  H   1.0    0.04    1.03    1.43   345.05304   134.76768   183.15711
   167  H   1.0    0.05    1.03    1.43   344.16814   132.33530   181.02474
   168  H   1.0    0.04    1.07    1.44   348.03924   131.87538   185.31792
   169  H   1.0    0.04    1.07    1.44   344.94661   130.56533   185.27338
   170  H   1.0    0.05    1.05    1.44   345.39036   125.07204   180.78051
   171  H   1.0    0.04    1.04    1.43   343.43012   127.35030   182.28825
   172  H   1.0    0.04    1.04    1.43   344.88576   128.03786   179.30173
   173  N   5.0   -0.14    3.45    2.05   345.45170   134.75745   176.56501
   174  C   4.0    0.05    4.39    4.36   343.98495   136.25802   174.80937
   175  C   4.0    0.14    3.43    3.09   341.69246   134.70731   173.95903
   176  O   6.0   -0.30    1.24    1.80   341.88820   132.44157   173.49816
   177  C   4.0    0.04    4.15    3.89   345.48737   136.98875   172.42839
   178  O   6.0   -0.22    2.04    1.83   347.38938   138.74846   173.05466
   179  H   1.0    0.09    1.06    1.44   345.51070   132.86541   176.22386
   180  H   1.0    0.07    1.06    1.44   343.38464   137.98472   175.77845
   181  H   1.0    0.05    1.01    1.43   346.31641   135.28081   171.59752
   182  H   1.0    0.05    1.01    1.43   344.15388   137.82116   171.07520
   183  H   1.0    0.13    1.03    1.43   348.14170   139.31944   171.49401
   184  N   5.0   -0.13    3.51    2.08   339.57021   136.01652   173.65803
   185  C   4.0    0.04    4.44    4.44   337.20038   134.84501   172.95512
   186  C   4.0    0.15    3.40    3.08   336.15714   136.19064   170.61788
   187  O   6.0   -0.31    1.29    1.80   336.13207   138.50601   170.49136
   188  C   4.0   -0.03    4.33    4.25   335.31137   135.08532   175.16038
   189  C   4.0   -0.01    3.58    3.16   336.41546   133.95955   177.51837
   190  C   4.0   -0.04    3.47    3.10   337.73511   135.45337   179.22453
   191  C   4.0   -0.04    3.47    3.10   336.20611   131.38485   177.99449
   192  C   4.0   -0.05    3.43    3.09   338.78723   134.40885   181.37563
   193  C   4.0   -0.04    3.43    3.09   337.26653   130.31652   180.12657
   194  C   4.0    0.06    3.45    3.10   338.56146   131.83568   181.84038
   195  O   6.0   -0.26    2.12    1.84   339.57709   130.73702   183.93553
   196  H   1.0    0.11    1.10    1.44   339.49834   137.86606   174.16803
   197  H   1.0    0.07    1.07    1.44   337.58333   132.85842   172.53926
   198  H   1.0    0.05    1.03    1.43   334.91058   137.08694   175.44330
   199  H   1.0    0.04    1.03    1.43   333.55988   134.13184   174.65139
   200  H   1.0    0.06    1.03    1.43   337.95332   137.45349   178.88080
   201  H   1.0    0.05    1.03    1.43   335.17982   130.21764   176.67252
   202  H   1.0    0.05    1.03    1.43   339.77667   135.60962   182.69845
   203  H   1.0    0.06    1.03    1.43   337.09019   128.32500   180.52545
   204  H   1.0    0.11    1.04    1.43   340.22162   132.02820   185.05097
   205  N   5.0   -0.13    3.47    2.06   335.28977   134.67837   168.79815
   206  C   4.0    0.04    4.48    4.51   334.31493   135.61012   166.41793
   207  C   4.0    0.14    3.44    3.09   331.58797   134.72410   166.07182
   208  O   6.0   -0.31    1.27    1.80   331.01768   132.49003   166.32548
   209  C   4.0    0.06    4.24    4.08   335.91917   134.62756   164.19962
   210  O   6.0   -0.25    2.13    1.84   338.46139   135.24318   164.72112
   211  C   4.0   -0.07    4.08    3.76   335.01228   135.76519   161.70879
   212  H   1.0    0.11    1.09    1.44   335.34254   132.77784   169.05414
   213  H   1.0    0.07    1.08    1.44   334.39791   137.67088   166.47015
   214  H   1.0    0.05    1.04    1.43   335.71206   132.55448   164.14564
   215  H   1.0    0.11    1.03    1.43   339.46576   134.79843   163.26384
   216  H   1.0    0.04    1.00    1.43   336.15537   135.08141   160.14526
   217  H   1.0    0.07    1.00    1.43   333.04531   135.27966   161.36289
   218  H   1.0    0.06    1.00    1.43   335.16539   137.81514   161.77951
   219  N   5.0   -0.13    3.48    2.07   329.93384   136.53873   165.53324
   220  C   4.0    0.05    4.32    4.24   327.29085   136.02073   165.09590
   221  C   4.0    0.11    3.23    3.04   326.71450   135.77301   162.27059
   222  O   6.0   -0.27    1.13    1.80   328.31417   136.09493   160.62043
   223  C   4.0   -0.02    4.26    4.12   325.65199   138.06787   166.29764
   224  C   4.0    0.25    3.13    3.03   326.30616   140.73922   165.25558
   225  O   6.0   -0.28    1.23    1.80   326.48227   140.95346   162.90360
   226  O   6.0   -0.30    1.18    1.80   326.56052   142.45036   166.83350
   227  H   1.0    0.11    1.09    1.44   330.55173   138.32821   165.24150
   228  H   1.0    0.07    1.06    1.44   326.86892   134.18804   165.96855
   229  H   1.0    0.06    1.03    1.43   323.66982   137.68888   165.88797
   230  H   1.0    0.05    1.03    1.43   325.91830   138.05829   168.34004
   231  N   5.0   -0.18    3.23    1.96   331.07630   143.56275   160.89887
   232  C   4.0    0.03    4.32    4.24   332.19681   145.13577   162.84353
   233  C   4.0    0.15    3.40    3.08   333.69677   143.43928   164.64579
   234  O   6.0   -0.30    1.26    1.80   332.91924   141.36295   165.31426
   235  C   4.0   -0.04    4.26    4.12   330.18263   146.66159   164.23780
   236  C   4.0   -0.05    4.19    3.99   331.34547   148.56871   166.06700
   237  C   4.0   -0.05    4.17    3.94   329.29061   150.06695   167.43677
   238  C   4.0   -0.04    4.12    3.85   330.45794   151.88674   169.34333
   239  N   5.0   -0.12    4.01    2.89   328.44457   153.33618   170.67399
   240  H   1.0    0.12    1.04    1.44   329.32736   142.83587   161.23629
   241  H   1.0    0.04    1.06    1.44   333.52268   146.40291   161.87530
   242  H   1.0    0.05    1.03    1.43   329.04805   147.63790   162.81786
   243  H   1.0    0.08    1.04    1.43   328.94619   145.35431   165.25118
   244  H   1.0    0.05    1.03    1.43   332.50552   147.56324   167.44394
   245  H   1.0    0.04    1.03    1.43   332.57213   149.85272   165.01850
   246  H   1.0    0.04    1.03    1.43   328.19024   151.10011   166.03360
   247  H   1.0    0.05    1.03    1.43   328.04166   148.72368   168.37884
   248  H   1.0    0.04    1.02    1.43   331.55737   150.82995   170.73042
   249  H   1.0    0.04    1.02    1.43   331.71119   153.20546   168.37409
   250  H   1.0    0.06    1.02    1.43   329.23397   154.54428   171.98031
   251  H   1.0    0.06    1.02    1.43   327.41173   154.37825   169.39123
   252  H   1.0    0.06    1.02    1.43   327.23696   152.11025   171.59232
   253  N   5.0   -0.14    3.49    2.07   335.86709   144.45628   165.44831
   254  C   4.0    0.04    4.46    4.48   337.70429   143.19426   167.02804
   255  C   4.0    0.15    3.45    3.09   338.08965   144.75938   169.42472
   256  O   6.0   -0.30    1.28    1.80   338.82923   146.95735   169.29050
   257  C   4.0    0.06    4.25    4.11   340.27372   143.08769   165.61961
   258  O   6.0   -0.24    2.14    1.85   340.96864   145.51733   164.79691
   259  C   4.0   -0.06    4.08    3.76   340.13271   141.31207   163.35994
   260  H   1.0    0.09    1.08    1.44   336.53133   146.03966   164.60718
   261  H   1.0    0.07    1.06    1.44   337.02503   141.30040   167.47710
   262  H   1.0    0.05    1.03    1.43   341.69230   142.36434   166.97339
   263  H   1.0    0.15    1.07    1.44   340.71913   146.67601   166.21190
   264  H   1.0    0.05    1.00    1.43   341.93685   141.31502   162.38417
   265  H   1.0    0.05    1.01    1.43   339.69369   139.41810   164.01802
   266  H   1.0    0.05    1.00    1.43   338.67962   141.93919   162.04646
   267  N   5.0   -0.14    3.48    2.06   337.59311   143.58061   171.59057
   268  C   4.0    0.04    4.51    4.55   338.03196   144.77224   174.01065
   269  C   4.0    0.16    3.42    3.08   339.98382   143.27413   175.51789
   270  O   6.0   -0.31    1.29    1.80   339.88691   140.96306   175.76069
   271  C   4.0   -0.02    4.32    4.23   335.55802   145.09924   175.53823
   272  C   4.0   -0.04    4.20    3.99   334.20023   142.56592   175.89422
   273  C   4.0   -0.07    4.11    3.82   333.88186   147.04270   174.21740
   274  C   4.0   -0.07    4.01    3.64   332.04163   142.68631   177.79985
   275  H   1.0    0.11    1.10    1.44   337.06526   141.73479   171.57612
   276  H   1.0    0.06    1.07    1.44   338.83195   146.63941   173.60671
   277  H   1.0    0.05    1.05    1.44   336.11768   145.81675   177.39893
   278  H   1.0    0.05    1.03    1.43   333.48157   141.90736   174.07412
   279  H   1.0    0.06    1.04    1.43   335.58472   141.19177   176.56015
   280  H   1.0    0.04    1.00    1.43   332.25186   147.46496   175.38793
   281  H   1.0    0.05    1.00    1.43   334.94912   148.76743   173.88804
   282  H   1.0    0.05    1.00    1.43   333.25131   146.28910   172.41020
   283  H   1.0    0.04    1.00    1.43   331.23559   140.81213   178.04576
   284  H   1.0    0.05    1.00    1.43   332.73845   143.35238   179.61422
   285  H   1.0    0.04    1.00    1.43   330.54890   143.93767   177.15794
   286  N   5.0   -0.12    3.52    2.09   341.77617   144.67610   176.57693
   287  C   4.0    0.05    4.43    4.43   343.70748   143.63725   178.20590
   288  C   4.0    0.16    3.43    3.09   342.54293   142.78648   180.71758
   289  O   6.0   -0.29    1.23    1.80   340.64266   143.76251   181.59634
   290  C   4.0   -0.02    4.29    4.18   345.64109   145.69927   178.82457
   291  C   4.0    0.26    3.15    3.03   346.49777   147.01356   176.33647
   292  O   6.0   -0.26    1.16    1.80   348.56367   146.33784   175.40594
   293  O   6.0   -0.28    1.21    1.80   345.02948   148.60187   175.43625
   294  H   1.0    0.10    1.10    1.44   341.95991   146.54509   176.17801
   295  H   1.0    0.07    1.05    1.44   344.62210   142.02808   177.27217
   296  H   1.0    0.06    1.03    1.43   344.73963   147.12532   180.01502
   297  H   1.0    0.07    1.02    1.43   347.24020   144.88150   179.82597
   298  N   5.0   -0.13    3.40    2.02   343.84935   140.94951   181.86661
   299  C   4.0    0.02    4.14    3.88   343.43031   140.24736   184.45999
   300  C   4.0    0.08    3.11    3.03   345.78734   140.79656   186.05476
   301  O   6.0   -0.27    1.13    1.80   347.58499   141.96978   185.23728
   302  H   1.0    0.12    1.10    1.44   345.40619   140.22625   181.00597
   303  H   1.0    0.06    1.03    1.43   341.83941   141.37027   185.15821
   304  H   1.0    0.04    1.02    1.43   342.95722   138.23696   184.59033
   305  N   5.0   -0.19    3.24    1.96   352.37854   130.52581   190.84337
   306  C   4.0    0.04    4.16    3.92   351.69031   127.95622   191.38839
   307  C   4.0    0.09    3.23    3.04   354.09583   126.37940   191.41633
   308  O   6.0   -0.28    1.14    1.80   355.91698   126.89961   190.08046
   309  C   4.0   -0.07    4.10    3.81   349.87569   126.85124   189.42018
   310  H   1.0    0.10    1.03    1.43   353.77893   130.77526   189.56000
   311  H   1.0    0.06    1.06    1.44   350.77543   127.90903   193.23975
   312  H   1.0    0.05    1.00    1.43   349.44964   124.90280   189.91013
   313  H   1.0    0.04    1.00    1.43   348.13067   127.93332   189.41766
   314  H   1.0    0.05    1.00    1.43   350.70342   126.91675   187.54166
   315  N   5.0   -0.20    3.25    1.97   346.39021   116.33625   187.35863
   316  C   4.0    0.03    4.33    4.25   347.04785   118.78367   188.38150
   317  C   4.0    0.14    3.41    3.08   345.85283   119.09312   190.99795
   318  O   6.0   -0.32    1.26    1.80   343.68725   118.37496   191.40498
   319  C   4.0   -0.04    4.33    4.26   345.97210   120.92433   186.70751
   320  C   4.0   -0.02    3.57    3.15   346.69820   120.63697   183.97896
   321  C   4.0   -0.05    3.47    3.10   345.14863   119.30126   182.32880
   322  C   4.0   -0.04    3.47    3.10   348.90515   121.69805   183.04217
   323  C   4.0   -0.04    3.44    3.09   345.74502   119.07507   179.80266
   324  C   4.0   -0.04    3.43    3.09   349.51375   121.49829   180.50840
   325  C   4.0    0.07    3.44    3.09   347.93024   120.20046   178.85513
   326  O   6.0   -0.24    2.10    1.84   348.41709   119.96634   176.34604
   327  H   1.0    0.09    1.03    1.43   344.54111   115.86797   187.44758
   328  H   1.0    0.04    1.05    1.44   349.10646   118.88800   188.47483
   329  H   1.0    0.05    1.03    1.43   343.91489   120.86645   186.87177
   330  H   1.0    0.04    1.03    1.43   346.66127   122.72356   187.43744
   331  H   1.0    0.05    1.03    1.43   343.42835   118.43567   183.00975
   332  H   1.0    0.05    1.03    1.43   350.14903   122.71889   184.29621
   333  H   1.0    0.06    1.03    1.43   344.56111   118.00778   178.53285
   334  H   1.0    0.06    1.03    1.43   351.21886   122.36206   179.79397
   335  H   1.0    0.12    1.01    1.43   349.66607   121.22295   175.76757
   336  N   5.0   -0.15    3.46    2.05   347.29076   120.31362   192.66476
   337  C   4.0    0.04    4.41    4.40   346.48673   120.98746   195.19343
   338  C   4.0    0.15    3.47    3.10   346.96975   123.80487   195.62505
   339  O   6.0   -0.31    1.29    1.80   349.06806   124.70405   195.21607
   340  C   4.0   -0.02    4.34    4.27   348.02442   119.54286   197.19751
   341  C   4.0   -0.01    3.55    3.14   347.52174   116.75577   197.13479
   342  C   4.0   -0.04    3.46    3.10   348.79640   115.18981   195.45136
   343  C   4.0   -0.04    3.47    3.10   345.75648   115.69791   198.76337
   344  C   4.0   -0.03    3.43    3.09   348.33273   112.62046   195.40827
   345  C   4.0   -0.05    3.43    3.09   345.29632   113.12611   198.75274
   346  C   4.0    0.07    3.45    3.10   346.59695   111.57374   197.08177
   347  O   6.0   -0.25    2.14    1.85   346.16829   109.02838   196.97390
   348  H   1.0    0.08    1.06    1.44   349.15820   120.56167   192.26850
   349  H   1.0    0.07    1.06    1.44   344.47578   120.57940   195.38466
   350  H   1.0    0.06    1.03    1.43   350.02318   119.92390   196.85260
   351  H   1.0    0.06    1.04    1.43   347.49910   120.31702   199.03165
   352  H   1.0    0.05    1.03    1.43   350.17186   115.98217   194.16849
   353  H   1.0    0.06    1.03    1.43   344.72924   116.89781   200.05719
   354  H   1.0    0.06    1.03    1.43   349.32413   111.40204   194.10895
   355  H   1.0    0.05    1.03    1.43   343.93047   112.33965   200.05133
   356  H   1.0    0.12    1.04    1.43   345.20389   108.51267   198.43897
   357  N   5.0   -0.13    3.46    2.05   345.00026   125.19929   196.37902
   358  C   4.0    0.04    4.32    4.23   345.41433   127.83489   197.00495
   359  C   4.0    0.10    3.27    3.05   347.57889   128.05699   198.92240
   360  O   6.0   -0.25    1.13    1.80   347.72764   126.64103   200.75375
   361  C   4.0    0.04    4.14    3.89   342.98167   128.97749   198.08219
   362  O   6.0   -0.23    2.07    1.84   342.20097   127.57711   200.19151
   363  H   1.0    0.11    1.09    1.44   343.53528   124.32907   197.25665
   364  H   1.0    0.04    1.05    1.44   345.95082   128.86895   195.29145
   365  H   1.0    0.05    1.01    1.43   343.34577   130.96033   198.58241
   366  H   1.0    0.04    1.01    1.43   341.51974   128.93469   196.60319
   367  H   1.0    0.15    1.09    1.44   340.68672   128.38356   200.94772
   368  N   5.0   -0.20    3.23    1.96   341.41630   119.08016   204.15706
   369  C   4.0    0.04    4.33    4.26   339.50638   120.26174   202.57645
   370  C   4.0    0.16    3.42    3.08   340.23944   119.97870   199.77670
   371  O   6.0   -0.31    1.27    1.80   341.72419   121.41022   198.73180
   372  C   4.0   -0.02    4.33    4.26   339.24539   123.06141   203.19705
   373  C   4.0    0.16    3.22    3.04   338.51599   123.54864   205.92711
   374  O   6.0   -0.29    1.23    1.80   338.37181   121.87646   207.51516
   375  N   5.0   -0.17    3.19    1.95   338.01220   125.97325   206.45023
   376  H   1.0    0.10    1.03    1.43   342.66958   120.25649   204.99588
   377  H   1.0    0.06    1.05    1.44   337.72380   119.26028   202.91990
   378  H   1.0    0.07    1.03    1.43   341.03167   124.01268   202.78836
   379  H   1.0    0.05    1.03    1.43   337.82628   123.90987   201.96891
   380  H   1.0    0.11    1.03    1.43   337.59407   126.45573   208.24994
   381  H   1.0    0.12    1.06    1.44   338.11176   127.34632   205.11146
   382  N   5.0   -0.14    3.49    2.07   339.22462   117.96441   198.64224
   383  C   4.0    0.04    4.41    4.40   339.46324   117.56209   195.93928
   384  C   4.0    0.16    3.43    3.09   337.82354   119.50441   194.56590
   385  O   6.0   -0.31    1.34    1.80   336.12837   120.64880   195.65972
   386  C   4.0   -0.05    4.27    4.14   338.66394   114.83380   195.37269
   387  C   4.0   -0.04    4.17    3.93   339.20437   113.99268   192.66253
   388  C   4.0   -0.05    4.17    3.93   338.61373   111.18969   192.22554
   389  C   4.0   -0.04    4.12    3.84   340.30113   109.35428   193.66821
   390  N   5.0   -0.11    4.01    2.90   342.92637   109.48339   192.70955
   391  H   1.0    0.10    1.10    1.44   337.69415   117.15910   199.46819
   392  H   1.0    0.06    1.06    1.44   341.43660   117.85194   195.38947
   393  H   1.0    0.04    1.03    1.43   339.70745   113.66401   196.70907
   394  H   1.0    0.05    1.03    1.43   336.65464   114.64106   195.78455
   395  H   1.0    0.06    1.03    1.43   338.02341   115.06688   191.36067
   396  H   1.0    0.06    1.02    1.43   341.16515   114.43549   192.19761
   397  H   1.0    0.04    1.03    1.43   336.65946   110.84382   192.76974
   398  H   1.0    0.04    1.03    1.43   338.78423   110.78141   190.21211
   399  H   1.0    0.04    1.02    1.43   340.28714   109.79109   195.68144
   400  H   1.0    0.04    1.02    1.43   339.61694   107.43515   193.38084
   401  H   1.0    0.05    0.98    1.43   343.03598   108.79063   190.77246
   402  H   1.0    0.06    1.03    1.43   343.52092   111.32563   192.71879
   403  H   1.0    0.07    1.04    1.43   344.15267   108.45874   193.82667
   404  N   5.0   -0.14    3.47    2.06   338.31607   119.85675   192.11656
   405  C   4.0    0.04    4.42    4.42   336.69986   121.42049   190.54990
   406  C   4.0    0.15    3.40    3.08   335.02023   119.71494   188.90730
   407  O   6.0   -0.30    1.23    1.80   335.74032   117.67085   188.11690
   408  C   4.0   -0.04    4.34    4.27   338.23816   123.18883   188.85485
   409  C   4.0   -0.02    4.17    3.95   339.71019   125.20581   190.32854
   410  C   4.0   -0.08    4.10    3.81   341.48997   126.61565   188.54488
   411  C   4.0   -0.07    4.10    3.81   337.94166   127.08730   191.62048
   412  H   1.0    0.10    1.08    1.44   339.88472   119.08247   191.33600
   413  H   1.0    0.07    1.07    1.44   335.47172   122.50659   191.80757
   414  H   1.0    0.05    1.03    1.43   339.56420   122.04125   187.76758
   415  H   1.0    0.05    1.03    1.43   336.95539   124.10454   187.52241
   416  H   1.0    0.05    1.05    1.44   340.83513   124.26821   191.79532
   417  H   1.0    0.04    1.00    1.43   342.52169   128.05827   189.58412
   418  H   1.0    0.04    1.00    1.43   342.84662   125.32969   187.69766
   419  H   1.0    0.05    1.00    1.43   340.41257   127.52262   187.04842
   420  H   1.0    0.04    1.00    1.43   339.02232   128.54013   192.59643
   421  H   1.0    0.05    1.00    1.43   336.71757   128.01882   190.25438
   422  H   1.0    0.05    1.00    1.43   336.74379   126.17693   193.02177
   423  N   5.0   -0.13    3.38    2.01   332.71912   120.65022   188.43860
   424  C   4.0    0.02    4.25    4.10   330.92932   119.35874   186.82117
   425  C   4.0    0.15    3.33    3.06   328.34260   120.59477   187.01073
   426  O   6.0   -0.30    1.32    1.80   328.08392   122.85930   187.42830
   427  H   1.0    0.11    1.08    1.44   332.13728   122.28016   189.24968
   428  H   1.0    0.06    1.02    1.43   331.58219   119.50936   184.85568
   429  H   1.0    0.05    1.02    1.43   330.87222   117.36199   187.35148
   430  N   5.0   -0.14    3.35    2.00   326.36337   119.04298   186.69003
   431  C   4.0    0.01    4.25    4.10   323.78359   119.90977   186.91927
   432  C   4.0    0.15    3.30    3.05   322.45889   120.28918   184.36983
   433  O   6.0   -0.30    1.22    1.80   323.34444   119.56581   182.37488
   434  H   1.0    0.08    1.06    1.44   326.63995   117.24113   186.12845
   435  H   1.0    0.04    1.02    1.43   322.69711   118.53775   188.01834
   436  H   1.0    0.06    1.04    1.43   323.81349   121.70987   187.93517
   437  N   5.0   -0.14    3.49    2.07   320.19917   121.42974   184.58913
   438  C   4.0    0.04    4.33    4.25   318.55436   121.94496   182.47076
   439  C   4.0    0.15    3.38    3.07   319.52856   124.12834   180.82777
   440  O   6.0   -0.30    1.22    1.80   318.93221   124.29788   178.60588
   441  C   4.0   -0.06    4.11    3.81   315.89392   122.44631   183.44624
   442  H   1.0    0.08    1.07    1.44   319.57340   121.95168   186.31170
   443  H   1.0    0.06    1.06    1.44   318.55443   120.28246   181.23117
   444  H   1.0    0.05    1.00    1.43   314.55117   122.52449   181.89572
   445  H   1.0    0.06    1.00    1.43   315.35262   120.93142   184.72693
   446  H   1.0    0.06    1.00    1.43   315.82634   124.23778   184.45618
   447  N   5.0   -0.13    3.52    2.09   321.13293   125.71306   181.99215
   448  C   4.0    0.04    4.40    4.38   322.54740   127.65009   180.69518
   449  C   4.0    0.15    3.42    3.08   325.29006   126.83837   180.22906
   450  O   6.0   -0.32    1.28    1.80   326.44324   127.58114   178.36163
   451  C   4.0   -0.03    4.25    4.11   322.54115   130.17149   182.12116
   452  C   4.0    0.25    3.12    3.03   323.70399   130.05256   184.80025
   453  O   6.0   -0.32    1.29    1.80   324.36926   132.09811   185.75995
   454  O   6.0   -0.32    1.30    1.80   323.92232   127.94170   185.83641
   455  H   1.0    0.10    1.09    1.44   321.40470   125.64583   183.88563
   456  H   1.0    0.07    1.06    1.44   321.66760   127.94581   178.83832
   457  H   1.0    0.05    1.02    1.43   323.55765   131.58287   181.01043
   458  H   1.0    0.06    1.03    1.43   320.59835   130.85005   182.31128
   459  N   5.0   -0.13    3.42    2.03   326.31883   125.26910   181.92296
   460  C   4.0    0.02    4.25    4.11   328.84225   124.28174   181.65359
   461  C   4.0    0.16    3.31    3.06   330.82028   125.33541   183.47818
   462  O   6.0   -0.30    1.22    1.80   332.86674   124.30903   183.70876
   463  H   1.0    0.11    1.08    1.44   325.43725   125.01172   183.60112
   464  H   1.0    0.06    1.03    1.43   328.79211   122.22693   181.85130
   465  H   1.0    0.06    1.04    1.43   329.48524   124.74229   179.74049
   466  N   5.0   -0.14    3.53    2.10   330.17531   127.47677   184.67416
   467  C   4.0    0.04    4.41    4.39   331.89479   128.88606   186.25264
   468  C   4.0    0.15    3.42    3.08   330.94544   129.17920   188.97790
   469  O   6.0   -0.30    1.24    1.80   331.90779   130.70879   190.42150
   470  C   4.0   -0.04    4.27    4.14   332.47598   131.50384   185.14036
   471  C   4.0   -0.04    4.23    4.05   330.04918   132.88569   184.41006
   472  C   4.0   -0.05    4.16    3.93   330.48211   135.70887   183.99977
   473  C   4.0   -0.03    4.12    3.83   328.16974   137.00708   182.87362
   474  N   5.0   -0.11    4.03    2.95   325.94361   136.81752   184.58122
   475  H   1.0    0.10    1.08    1.44   328.40018   128.14940   184.51707
   476  H   1.0    0.06    1.06    1.44   333.64528   127.77592   186.35063
   477  H   1.0    0.06    1.04    1.43   333.47133   132.56483   186.60040
   478  H   1.0    0.05    1.03    1.43   333.70402   131.31372   183.49820
   479  H   1.0    0.05    1.03    1.43   329.29448   132.06874   182.67074
   480  H   1.0    0.07    1.04    1.43   328.67056   132.59882   185.91696
   481  H   1.0    0.05    1.03    1.43   330.99344   136.58820   185.79213
   482  H   1.0    0.04    1.03    1.43   332.05601   135.96846   182.69538
   483  H   1.0    0.04    1.02    1.43   328.58149   139.00216   182.56079
   484  H   1.0    0.04    1.02    1.43   327.67803   136.14359   181.06596
   485  H   1.0    0.07    1.02    1.43   324.43654   137.77339   183.82810
   486  H   1.0    0.10    1.09    1.44   325.35213   134.91088   184.87503
   487  H   1.0    0.07    1.02    1.43   326.37434   137.55785   186.32045
   488  N   5.0   -0.12    3.52    2.09   329.00713   127.68429   189.62236
   489  C   4.0    0.04    4.46    4.48   328.19483   127.50685   192.23059
   490  C   4.0    0.15    3.47    3.10   330.14906   125.93921   193.66475
   491  O   6.0   -0.30    1.28    1.80   331.08790   124.06550   192.68125
   492  C   4.0    0.06    4.23    4.06   325.59245   126.17761   192.32061
   493  O   6.0   -0.24    2.12    1.84   323.73112   127.57936   191.05060
   494  C   4.0   -0.06    4.09    3.79   324.66948   125.81742   195.02819
   495  H   1.0    0.12    1.12    1.45   328.59130   126.16809   188.52069
   496  H   1.0    0.06    1.05    1.44   328.05959   129.41516   193.01569
   497  H   1.0    0.06    1.04    1.43   325.84971   124.31858   191.41542
   498  H   1.0    0.16    1.06    1.44   324.12410   127.75800   189.24773
   499  H   1.0    0.05    1.00    1.43   322.83451   124.90034   194.98351
   500  H   1.0    0.06    1.01    1.43   325.97387   124.68418   196.13298
   501  H   1.0    0.05    1.00    1.43   324.44320   127.65114   195.92502
   502  N   5.0   -0.14    3.46    2.05   330.79155   126.72383   195.98364
   503  C   4.0    0.04    4.43    4.43   332.29544   125.09092   197.59738
   504  C   4.0    0.15    3.44    3.09   330.57970   122.90881   198.43563
   505  O   6.0   -0.31    1.24    1.80   328.54074   123.34371   199.47245
   506  C   4.0   -0.03    4.27    4.14   333.30569   126.53529   199.88180
   507  C   4.0   -0.03    4.17    3.94   335.48690   128.30327   199.21447
   508  C   4.0    0.25    3.11    3.03   336.12372   129.98742   201.52822
   509  O   6.0   -0.27    1.17    1.80   334.47477   131.44954   202.29408
   510  O   6.0   -0.31    1.30    1.80   338.29261   129.72080   202.50410
   511  H   1.0    0.08    1.06    1.44   329.88425   128.17456   196.82096
   512  H   1.0    0.06    1.06    1.44   333.85731   124.32681   196.47998
   513  H   1.0    0.07    1.03    1.43   331.78542   127.64507   200.73153
   514  H   1.0    0.05    1.03    1.43   333.94281   125.17307   201.29947
   515  H   1.0    0.05    1.02    1.43   337.15142   127.22486   198.65225
   516  H   1.0    0.05    1.03    1.43   334.92916   129.55155   197.66945
   517  N   5.0   -0.13    3.51    2.09   331.37742   120.60582   197.85023
   518  C   4.0    0.03    4.50    4.53   330.01774   118.35652   198.59191
   519  C   4.0    0.14    3.45    3.10   331.74280   116.81517   200.31254
   520  O   6.0   -0.31    1.29    1.80   334.04547   116.99514   200.23380
   521  C   4.0   -0.02    4.24    4.09   329.11627   116.78966   196.29243
   522  C   4.0   -0.07    4.11    3.83   327.50064   118.43538   194.55702
   523  C   4.0   -0.06    4.12    3.84   331.33493   115.65733   194.83976
   524  H   1.0    0.12    1.12    1.45   333.13956   120.36717   197.11127
   525  H   1.0    0.05    1.07    1.44   328.36664   118.99648   199.66884
   526  H   1.0    0.05    1.05    1.44   327.95505   115.25219   197.05038
   527  H   1.0    0.04    1.00    1.43   326.70440   117.29831   193.04615
   528  H   1.0    0.04    1.00    1.43   325.96324   119.31354   195.60168
   529  H   1.0    0.06    1.00    1.43   328.63791   119.93813   193.72969
   530  H   1.0    0.04    1.00    1.43   330.64327   114.62119   193.20940
   531  H   1.0    0.06    1.00    1.43   332.59045   117.14459   194.17929
   532  H   1.0    0.05    1.00    1.43   332.38618   114.37618   196.05060
   533  N   5.0   -0.14    3.46    2.05   330.56104   115.20858   201.86925
   534  C   4.0    0.04    4.41    4.40   332.00470   113.82831   203.73768
   535  C   4.0    0.07    3.24    3.04   330.97093   111.16511   204.05943
   536  O   6.0   -0.30    1.15    1.80   328.71045   110.71154   204.17948
   537  C   4.0   -0.02    4.26    4.11   332.03232   115.24066   206.30184
   538  C   4.0   -0.06    4.12    3.83   329.42638   115.26726   207.54027
   539  C   4.0   -0.07    4.10    3.81   334.03556   114.10275   208.03150
   540  H   1.0    0.08    1.06    1.44   328.64881   115.21386   202.01501
   541  H   1.0    0.05    1.07    1.44   333.95234   113.76952   203.03678
   542  H   1.0    0.05    1.06    1.44   332.59017   117.18791   205.86033
   543  H   1.0    0.05    1.00    1.43   329.44905   116.42093   209.24219
   544  H   1.0    0.06    1.00    1.43   328.02973   116.05403   206.25299
   545  H   1.0    0.06    1.00    1.43   328.85185   113.36402   208.05779
   546  H   1.0    0.05    1.00    1.43   334.24630   115.26405   209.71114
   547  H   1.0    0.05    1.00    1.43   333.52849   112.19073   208.58981
   548  H   1.0    0.04    1.00    1.43   335.85032   114.08329   207.06645
   549  N   5.0   -0.20    3.19    1.95   323.57421   105.52396   201.50512
   550  C   4.0    0.04    4.26    4.12   324.70204   107.91396   200.82260
   551  C   4.0    0.10    3.21    3.04   322.80899   110.08373   201.13378
   552  O   6.0   -0.30    1.13    1.80   320.83018   110.26256   199.94162
   553  C   4.0    0.05    4.21    4.03   325.85533   107.88211   198.14430
   554  O   6.0   -0.25    2.12    1.84   327.14336   110.21293   197.87672
   555  C   4.0   -0.06    4.07    3.75   323.93093   107.48149   196.04084
   556  H   1.0    0.09    1.01    1.43   322.17429   104.79790   200.35421
   557  H   1.0    0.07    1.07    1.44   326.25822   108.24744   202.14360
   558  H   1.0    0.04    1.03    1.43   327.23334   106.31436   198.10794
   559  H   1.0    0.11    1.03    1.43   327.79569   110.30742   196.17420
   560  H   1.0    0.04    1.00    1.43   324.88750   107.35040   194.22651
   561  H   1.0    0.05    1.00    1.43   322.87858   105.74714   196.35815
   562  H   1.0    0.07    1.00    1.43   322.60355   109.04691   195.99663
   563  N   5.0   -0.19    3.22    1.96   321.43140   118.24774   202.29640
   564  C   4.0    0.03    4.14    3.89   322.31837   120.82283   201.88969
   565  C   4.0    0.09    3.21    3.04   323.59357   121.71897   204.32845
   566  O   6.0   -0.27    1.13    1.80   322.54291   121.45285   206.38078
   567  C   4.0   -0.07    4.11    3.81   320.10331   122.55341   201.26917
   568  H   1.0    0.09    1.03    1.43   319.60691   118.02638   202.81160
   569  H   1.0    0.04    1.05    1.44   323.71254   120.79207   200.36416
   570  H   1.0    0.05    1.00    1.43   320.81372   124.41695   200.79047
   571  H   1.0    0.04    1.00    1.43   319.05871   121.79978   199.67188
   572  H   1.0    0.06    1.00    1.43   318.86673   122.70669   202.90323
   573  N   5.0   -0.18    3.22    1.96   316.14806   113.16608   197.53545
   574  C   4.0    0.03    4.23    4.05   315.89626   115.26676   195.78667
   575  C   4.0    0.15    3.42    3.08   314.55554   114.38330   193.36515
   576  O   6.0   -0.28    1.24    1.80   314.83914   112.26026   192.50591
   577  C   4.0   -0.07    4.10    3.81   318.50191   116.30719   195.12876
   578  H   1.0    0.11    1.03    1.43   317.88820   112.46567   197.91210
   579  H   1.0    0.04    1.05    1.44   314.71550   116.70531   196.69842
   580  H   1.0    0.05    1.00    1.43   318.33482   117.92051   193.87113
   581  H   1.0    0.04    1.00    1.43   319.48927   116.86905   196.84026
   582  H   1.0    0.05    1.00    1.43   319.60182   114.84901   194.18609
   583  N   5.0   -0.14    3.44    2.04   313.08211   116.13516   192.24338
   584  C   4.0    0.04    4.25    4.10   312.05272   115.63961   189.74538
   585  C   4.0    0.09    3.23    3.04   314.23390   115.58487   187.82908
   586  O   6.0   -0.30    1.13    1.80   315.67037   117.37643   187.57185
   587  C   4.0   -0.07    4.10    3.81   310.17182   117.68061   188.99827
   588  H   1.0    0.08    1.06    1.44   313.22036   117.96156   192.77166
   589  H   1.0    0.05    1.05    1.44   311.14058   113.78559   189.83118
   590  H   1.0    0.05    1.00    1.43   309.26811   117.18518   187.22149
   591  H   1.0    0.05    1.00    1.43   308.72236   117.87342   190.43999
   592  H   1.0    0.06    1.00    1.43   311.15775   119.47004   188.75457
   593  H   1.0    0.10    1.07    1.44   314.86044   138.86108   167.97524
   594  H   1.0    0.07    1.05    1.44   313.53383   144.15407   174.83868
   595  H   1.0    0.10    1.07    1.44   311.42886   136.89029   179.10998
   596  H   1.0    0.07    1.05    1.44   311.16761   141.53586   183.24447
   597  H   1.0    0.09    1.07    1.44   308.31678   128.80004   179.33111
   598  H   1.0    0.06    1.05    1.44   343.11920   126.73385   171.91844
   599  H   1.0    0.09    1.07    1.44   351.14029   133.86451   182.00651
   600  H   1.0    0.07    1.05    1.44   324.96901   135.33031   161.69761
   601  H   1.0    0.09    1.07    1.44   330.91720   144.46125   159.46362
   602  H   1.0    0.05    1.05    1.44   345.88511   140.18204   187.83910
   603  H   1.0    0.09    1.08    1.44   351.02806   131.35711   190.22878
   604  H   1.0    0.06    1.05    1.44   354.22327   124.87026   192.54651
   605  H   1.0    0.10    1.09    1.44   346.81663   116.27536   185.71333
   606  H   1.0    0.06    1.04    1.44   348.91058   129.37837   198.69518
   607  H   1.0    0.11    1.07    1.44   340.66028   118.22690   205.41917
   608  H   1.0    0.05    1.05    1.44   332.15739   109.69935   204.18155
   609  H   1.0    0.09    1.07    1.44   324.77493   104.32009   201.54402
   610  H   1.0    0.06    1.05    1.44   323.15497   111.46933   202.37130
   611  H   1.0    0.09    1.07    1.44   321.61013   117.35243   200.86146
   612  H   1.0    0.06    1.04    1.43   325.29892   122.53025   204.25997
   613  H   1.0    0.10    1.07    1.44   315.53696   113.61768   199.05702
   614  H   1.0    0.06    1.04    1.44   314.50738   114.05628   186.75220

  Z AO/shell   Hii/eV     exponent
  1     Wed Apr 25 08:07:45 CEST 2018   EN: 2.200 GM2: 0.406  GM3: 0.0800  RAES: 1.40
     1s    -10.707211    1.230000
  6     Wed Apr 25 08:07:45 CEST 2018   EN: 2.550 GM2: 0.538  GM3: 0.1500  RAES: 3.00
     2s    -13.970922    2.096432
     2p    -10.063292    1.800000
  7     Wed Apr 25 08:07:45 CEST 2018   EN: 3.040 GM2: 0.461  GM3:-0.0640  RAES: 1.90
     2s    -16.686243    2.339881
     2p    -12.523956    2.014332
  8     Wed Apr 25 08:07:45 CEST 2018   EN: 3.440 GM2: 0.452  GM3:-0.0517  RAES: 1.80
     2s    -20.229985    2.439742
     2p    -15.503117    2.137023
 16     Tue Apr 24 11:44:34 CEST 2018   EN: 2.580 GM2: 0.340  GM3:-0.0502  RAES: 3.10
     3s    -20.029654    1.981333
     3p    -11.377694    2.025643
     3d     -0.420282    1.702555
 no old-style atom pair restraining (fixing) potential

molecular fragmentation (1/2 indicates fragments):
111111111111111111111111111122222222222222222222222222222222222222222222
222222222222222222222222222222222222222222222222222222222222222222222222
222222222222222222222222222222222222222222222222222222222222222222222222
222222222222222222222222222222222222222222222222222222222222222222222222
222222222222222222222222222222222222222222222222222222222222222222222222
222222222222222222222222222222222222222222222222222222222222222222222222
222222222222222222222222222222222222222222222222222222222222222222222222
222222222222222222222222222222222222222222222222222222222222222222222222
22222222222222221122222222222222222222
# atoms in fragment 1/2:    30   584
 fragment masses (1/2) :      217.22     4090.64
CMA distance (Bohr)    :  21.605
constraining FC (au)   :  0.0500
           ------------------------------------------------- 
          |        Self-Consistent Charge Iterations        |
           ------------------------------------------------- 

 Ncao       : 1523
 Nao        : 1522
 Nshell     : 916
 Nel        : 1698
 T(el)      :   500.0
 intcut     :    35.0
 scfconv/Eh :  0.100E-06
   qconv/e  :  0.100E-04
 intneglect :  0.100E-08
 broydamp   :      0.400
 iter      E             dE          RMSdq      gap      omega  full diag
   1   -978.0189941 -0.978019E+03  0.477E+00    2.87       0.0  T
   2   -980.4683618 -0.244937E+01  0.223E+00    1.73       1.0  T
   3   -980.6220617 -0.153700E+00  0.126E+00    2.00       1.0  T
   4   -980.7741235 -0.152062E+00  0.275E-01    1.44       1.0  T
   5   -980.7831809 -0.905738E-02  0.135E-01    1.63       1.0  T
   6   -980.7852329 -0.205199E-02  0.614E-02    1.63       1.0  T
   7   -980.7858059 -0.573049E-03  0.281E-02    1.63       1.0  T
   8   -980.7858935 -0.875893E-04  0.144E-02    1.63       1.0  T
   9   -980.7859255 -0.319597E-04  0.680E-03    1.63       1.0  T
  10   -980.7859318 -0.635584E-05  0.320E-03    1.63       1.3  T
  11   -980.7859333 -0.147859E-05  0.149E-03    1.63       2.7  T
  12   -980.7859336 -0.245184E-06  0.678E-04    1.63       5.9  T
  13   -980.7859336 -0.610294E-07  0.360E-04    1.63      11.2  T
  14   -980.7859337 -0.168242E-07  0.158E-04    1.63      25.6  T
  15   -980.7859337 -0.319619E-08  0.764E-05    1.63      52.8  T
  16   -980.7859337 -0.708724E-09  0.353E-05    1.63     114.2  T
speedup 15.03
cpu  time for SCC    1 m 38.3 s
wall time for SCC    0 m  6.5 s

   *** convergence criteria satisfied after 16 iterations ***

          eigenvalues
 #    :         837        838        839        840        841        842        843        844
 occ. :        2.000      2.000      2.000      2.000      2.000      2.000      2.000      2.000
 eps  :       -10.211    -10.157    -10.046    -10.006     -9.994     -9.955     -9.917     -9.909
 #    :         845        846        847        848        849        850        851        852
 occ. :        2.000      2.000      2.000      2.000      2.000      0.000      0.000      0.000
 eps  :        -9.900     -9.889     -9.791     -9.712     -9.679     -8.044     -8.025     -7.967
 #    :         853        854        855        856        857        858        859        860
 occ. :        0.000      0.000      0.000      0.000      0.000      0.000      0.000      0.000
 eps  :        -7.961     -7.938     -7.869     -7.803     -7.727     -7.702     -7.637     -7.489


   #   Z            q   n(s)   n(p)   n(d)      C6AA      α(0)
   1   7 N     -0.392  1.307  4.085  0.000    30.154     8.155
   2   6 C      0.035  1.058  2.907  0.000    19.997     6.369
   3   6 C      0.274  1.045  2.681  0.000    22.372     7.745
   4   8 O     -0.506  1.752  4.754  0.000    23.908     6.556
   5   6 C     -0.048  1.048  3.000  0.000    21.428     6.590
   6   6 C     -0.086  1.056  3.029  0.000    22.126     6.696
   7   6 C      0.292  1.035  2.672  0.000    22.041     7.687
   8   8 O     -0.511  1.748  4.763  0.000    24.027     6.572
   9   7 N     -0.286  1.266  4.020  0.000    27.386     7.772
  10   1 H      0.163  0.837  0.000  0.000     1.316     1.797
  11   1 H      0.039  0.961  0.000  0.000     2.465     2.456
  12   1 H      0.041  0.959  0.000  0.000     2.440     2.443
  13   1 H      0.031  0.969  0.000  0.000     2.577     2.510
  14   1 H      0.050  0.950  0.000  0.000     2.315     2.380
  15   1 H      0.067  0.933  0.000  0.000     2.121     2.278
  16   1 H      0.212  0.788  0.000  0.000     1.045     1.601
  17   1 H      0.218  0.782  0.000  0.000     1.020     1.582
  18   7 N     -0.160  1.239  3.921  0.000    24.464     7.346
  19   6 C      0.029  1.057  2.914  0.000    20.098     6.385
  20   6 C      0.205  1.085  2.710  0.000    23.647     7.964
  21   8 O     -0.360  1.758  4.602  0.000    20.889     6.128
  22   6 C      0.066  1.042  2.892  0.000    19.671     6.352
  23   8 O     -0.481  1.725  4.756  0.000    22.495     6.403
  24   1 H      0.237  0.763  0.000  0.000     0.935     1.515
  25   1 H      0.083  0.917  0.000  0.000     1.945     2.181
  26   1 H      0.060  0.940  0.000  0.000     2.198     2.319
  27   1 H      0.069  0.931  0.000  0.000     2.094     2.263
  28   1 H      0.367  0.633  0.000  0.000     0.550     1.165
  29   7 N     -0.399  1.309  4.090  0.000    30.332     8.180
  30   6 C      0.061  1.048  2.891  0.000    19.576     6.303
  31   6 C      0.197  1.095  2.708  0.000    23.809     7.991
  32   8 O     -0.398  1.754  4.644  0.000    21.647     6.238
  33   6 C     -0.095  1.075  3.019  0.000    22.304     6.724
  34   6 C      0.380  1.022  2.599  0.000    20.573     7.423
  35   8 O     -0.618  1.760  4.858  0.000    26.556     6.909
  36   8 O     -0.601  1.760  4.841  0.000    26.156     6.857
  37   1 H      0.174  0.826  0.000  0.000     1.250     1.752
  38   1 H      0.023  0.977  0.000  0.000     2.684     2.562
  39   1 H      0.048  0.952  0.000  0.000     2.341     2.392
  40   1 H      0.020  0.980  0.000  0.000     2.733     2.585
  41   7 N     -0.378  1.313  4.064  0.000    29.760     8.102
  42   6 C      0.033  1.056  2.911  0.000    20.037     6.375
  43   6 C      0.269  1.045  2.685  0.000    22.449     7.759
  44   8 O     -0.454  1.732  4.721  0.000    22.779     6.399
  45   6 C     -0.051  1.052  2.999  0.000    21.475     6.596
  46   6 C     -0.084  1.054  3.029  0.000    22.088     6.690
  47   6 C      0.291  1.038  2.671  0.000    22.072     7.693
  48   8 O     -0.516  1.745  4.771  0.000    24.140     6.587
  49   7 N     -0.304  1.286  4.018  0.000    27.823     7.834
  50   1 H      0.170  0.830  0.000  0.000     1.271     1.766
  51   1 H      0.031  0.969  0.000  0.000     2.570     2.507
  52   1 H      0.052  0.948  0.000  0.000     2.296     2.370
  53   1 H      0.021  0.979  0.000  0.000     2.721     2.579
  54   1 H      0.037  0.963  0.000  0.000     2.496     2.471
  55   1 H      0.063  0.937  0.000  0.000     2.163     2.300
  56   1 H      0.231  0.769  0.000  0.000     0.961     1.535
  57   1 H      0.199  0.801  0.000  0.000     1.109     1.650
  58   7 N     -0.174  1.241  3.933  0.000    24.774     7.392
  59   6 C      0.014  1.064  2.922  0.000    20.352     6.424
  60   6 C      0.275  1.042  2.683  0.000    22.343     7.741
  61   8 O     -0.514  1.757  4.757  0.000    24.100     6.582
  62   6 C     -0.062  1.049  3.013  0.000    21.689     6.629
  63   6 C     -0.103  1.058  3.045  0.000    22.458     6.746
  64   6 C      0.290  1.037  2.673  0.000    22.082     7.694
  65   8 O     -0.511  1.760  4.751  0.000    24.031     6.572
  66   7 N     -0.294  1.268  4.026  0.000    27.577     7.799
  67   1 H      0.183  0.817  0.000  0.000     1.195     1.713
  68   1 H      0.093  0.907  0.000  0.000     1.847     2.125
  69   1 H      0.048  0.952  0.000  0.000     2.347     2.396
  70   1 H      0.066  0.934  0.000  0.000     2.133     2.284
  71   1 H      0.089  0.911  0.000  0.000     1.892     2.151
  72   1 H      0.071  0.929  0.000  0.000     2.071     2.250
  73   1 H      0.235  0.765  0.000  0.000     0.942     1.520
  74   1 H      0.232  0.768  0.000  0.000     0.955     1.531
  75   7 N     -0.157  1.243  3.914  0.000    24.402     7.337
  76   6 C      0.022  1.061  2.918  0.000    20.209     6.400
  77   6 C      0.275  1.042  2.684  0.000    22.357     7.743
  78   8 O     -0.499  1.745  4.754  0.000    23.759     6.535
  79   6 C     -0.080  1.056  3.023  0.000    22.020     6.680
  80   6 C     -0.080  1.051  3.028  0.000    22.011     6.678
  81   6 C     -0.096  1.055  3.041  0.000    22.332     6.728
  82   6 C     -0.055  1.058  2.997  0.000    21.649     6.640
  83   7 N     -0.150  1.233  3.917  0.000    24.236     7.312
  84   1 H      0.233  0.767  0.000  0.000     0.953     1.529
  85   1 H      0.056  0.944  0.000  0.000     2.243     2.342
  86   1 H      0.077  0.923  0.000  0.000     2.006     2.215
  87   1 H      0.070  0.930  0.000  0.000     2.088     2.260
  88   1 H      0.056  0.944  0.000  0.000     2.244     2.342
  89   1 H      0.054  0.946  0.000  0.000     2.275     2.359
  90   1 H      0.083  0.917  0.000  0.000     1.947     2.182
  91   1 H      0.092  0.908  0.000  0.000     1.857     2.131
  92   1 H      0.123  0.877  0.000  0.000     1.586     1.969
  93   1 H      0.105  0.895  0.000  0.000     1.744     2.065
  94   1 H      0.307  0.693  0.000  0.000     0.693     1.304
  95   1 H      0.302  0.698  0.000  0.000     0.707     1.317
  96   1 H      0.308  0.692  0.000  0.000     0.691     1.303
  97   7 N     -0.184  1.256  3.927  0.000    24.980     7.423
  98   6 C      0.032  1.059  2.909  0.000    20.047     6.376
  99   6 C      0.273  1.043  2.684  0.000    22.390     7.749
 100   8 O     -0.475  1.732  4.743  0.000    23.236     6.463
 101   6 C     -0.075  1.055  3.020  0.000    21.927     6.665
 102   6 C     -0.001  1.077  2.925  0.000    28.055     8.688
 103   6 C     -0.041  1.082  2.959  0.000    29.021     8.834
 104   6 C     -0.042  1.080  2.962  0.000    29.048     8.839
 105   6 C     -0.060  1.075  2.985  0.000    29.482     8.904
 106   6 C     -0.070  1.077  2.994  0.000    29.746     8.944
 107   6 C      0.144  1.045  2.811  0.000    24.861     8.172
 108   8 O     -0.418  1.713  4.706  0.000    21.208     6.217
 109   1 H      0.226  0.774  0.000  0.000     0.984     1.554
 110   1 H      0.046  0.954  0.000  0.000     2.372     2.408
 111   1 H      0.078  0.922  0.000  0.000     2.004     2.214
 112   1 H      0.057  0.943  0.000  0.000     2.234     2.338
 113   1 H      0.040  0.960  0.000  0.000     2.451     2.448
 114   1 H      0.029  0.971  0.000  0.000     2.599     2.521
 115   1 H      0.043  0.957  0.000  0.000     2.409     2.427
 116   1 H      0.035  0.965  0.000  0.000     2.522     2.483
 117   1 H      0.339  0.661  0.000  0.000     0.616     1.232
 118   7 N     -0.181  1.254  3.928  0.000    24.929     7.415
 119   6 C      0.014  1.066  2.920  0.000    20.345     6.422
 120   6 C      0.271  1.046  2.684  0.000    22.424     7.754
 121   8 O     -0.502  1.748  4.753  0.000    23.822     6.544
 122   6 C     -0.078  1.055  3.024  0.000    21.992     6.676
 123   6 C     -0.079  1.051  3.027  0.000    22.004     6.678
 124   6 C     -0.094  1.054  3.039  0.000    22.290     6.721
 125   6 C     -0.054  1.061  2.993  0.000    21.640     6.640
 126   7 N     -0.149  1.233  3.917  0.000    24.218     7.309
 127   1 H      0.218  0.782  0.000  0.000     1.017     1.580
 128   1 H      0.085  0.915  0.000  0.000     1.926     2.170
 129   1 H      0.072  0.928  0.000  0.000     2.059     2.244
 130   1 H      0.050  0.950  0.000  0.000     2.320     2.382
 131   1 H      0.053  0.947  0.000  0.000     2.279     2.361
 132   1 H      0.072  0.928  0.000  0.000     2.064     2.247
 133   1 H      0.082  0.918  0.000  0.000     1.957     2.188
 134   1 H      0.069  0.931  0.000  0.000     2.101     2.267
 135   1 H      0.120  0.880  0.000  0.000     1.610     1.984
 136   1 H      0.128  0.872  0.000  0.000     1.554     1.949
 137   1 H      0.308  0.692  0.000  0.000     0.690     1.301
 138   1 H      0.301  0.699  0.000  0.000     0.710     1.320
 139   1 H      0.295  0.705  0.000  0.000     0.728     1.336
 140   7 N     -0.154  1.236  3.918  0.000    24.325     7.325
 141   6 C      0.018  1.063  2.919  0.000    20.280     6.413
 142   6 C      0.202  1.086  2.713  0.000    23.710     7.974
 143   8 O     -0.347  1.740  4.606  0.000    20.649     6.092
 144   6 C     -0.016  1.065  2.951  0.000    20.827     6.491
 145   6 C     -0.123  1.040  3.083  0.000    22.920     6.826
 146   6 C     -0.124  1.040  3.084  0.000    22.924     6.827
 147   1 H      0.225  0.775  0.000  0.000     0.985     1.555
 148   1 H      0.085  0.915  0.000  0.000     1.930     2.173
 149   1 H      0.067  0.933  0.000  0.000     2.118     2.276
 150   1 H      0.067  0.933  0.000  0.000     2.114     2.274
 151   1 H      0.044  0.956  0.000  0.000     2.402     2.424
 152   1 H      0.042  0.958  0.000  0.000     2.420     2.433
 153   1 H      0.066  0.934  0.000  0.000     2.128     2.281
 154   1 H      0.038  0.962  0.000  0.000     2.477     2.461
 155   1 H      0.051  0.949  0.000  0.000     2.306     2.375
 156   7 N     -0.383  1.314  4.069  0.000    29.910     8.122
 157   6 C      0.034  1.057  2.909  0.000    20.012     6.372
 158   6 C      0.273  1.046  2.681  0.000    22.382     7.747
 159   8 O     -0.483  1.752  4.730  0.000    23.406     6.486
 160   6 C     -0.063  1.053  3.010  0.000    21.690     6.627
 161   6 C     -0.014  1.065  2.949  0.000    20.838     6.500
 162  16 S     -0.213  1.916  4.250  0.047   150.129    20.622
 163   6 C     -0.063  1.054  3.009  0.000    21.779     6.657
 164   1 H      0.151  0.849  0.000  0.000     1.396     1.851
 165   1 H      0.053  0.947  0.000  0.000     2.286     2.365
 166   1 H      0.033  0.967  0.000  0.000     2.546     2.495
 167   1 H      0.046  0.954  0.000  0.000     2.366     2.406
 168   1 H      0.050  0.950  0.000  0.000     2.321     2.382
 169   1 H      0.057  0.943  0.000  0.000     2.231     2.336
 170   1 H      0.073  0.927  0.000  0.000     2.056     2.242
 171   1 H      0.068  0.932  0.000  0.000     2.109     2.271
 172   1 H      0.047  0.953  0.000  0.000     2.354     2.399
 173   7 N     -0.173  1.240  3.933  0.000    24.748     7.389
 174   6 C      0.021  1.059  2.921  0.000    20.235     6.406
 175   6 C      0.261  1.044  2.695  0.000    22.606     7.786
 176   8 O     -0.474  1.730  4.745  0.000    23.222     6.461
 177   6 C      0.085  1.036  2.879  0.000    19.381     6.307
 178   8 O     -0.489  1.739  4.749  0.000    22.648     6.424
 179   1 H      0.213  0.787  0.000  0.000     1.043     1.600
 180   1 H      0.068  0.932  0.000  0.000     2.106     2.270
 181   1 H      0.053  0.947  0.000  0.000     2.281     2.362
 182   1 H      0.023  0.977  0.000  0.000     2.684     2.562
 183   1 H      0.345  0.655  0.000  0.000     0.601     1.217
 184   7 N     -0.171  1.248  3.923  0.000    24.704     7.382
 185   6 C      0.021  1.064  2.915  0.000    20.229     6.404
 186   6 C      0.274  1.042  2.683  0.000    22.366     7.744
 187   8 O     -0.494  1.738  4.756  0.000    23.649     6.520
 188   6 C     -0.074  1.053  3.022  0.000    21.913     6.663
 189   6 C      0.002  1.077  2.921  0.000    27.976     8.676
 190   6 C     -0.041  1.084  2.957  0.000    29.014     8.833
 191   6 C     -0.040  1.082  2.958  0.000    28.992     8.830
 192   6 C     -0.077  1.077  3.000  0.000    29.914     8.969
 193   6 C     -0.062  1.073  2.988  0.000    29.535     8.912
 194   6 C      0.138  1.045  2.817  0.000    24.987     8.192
 195   8 O     -0.411  1.705  4.706  0.000    21.067     6.196
 196   1 H      0.222  0.778  0.000  0.000     1.000     1.567
 197   1 H      0.095  0.905  0.000  0.000     1.836     2.119
 198   1 H      0.056  0.944  0.000  0.000     2.244     2.342
 199   1 H      0.060  0.940  0.000  0.000     2.203     2.321
 200   1 H      0.036  0.964  0.000  0.000     2.508     2.477
 201   1 H      0.049  0.951  0.000  0.000     2.331     2.387
 202   1 H      0.033  0.967  0.000  0.000     2.537     2.491
 203   1 H      0.068  0.932  0.000  0.000     2.108     2.271
 204   1 H      0.328  0.672  0.000  0.000     0.643     1.259
 205   7 N     -0.167  1.246  3.920  0.000    24.608     7.368
 206   6 C      0.015  1.061  2.923  0.000    20.320     6.418
 207   6 C      0.271  1.043  2.686  0.000    22.430     7.756
 208   8 O     -0.486  1.725  4.761  0.000    23.476     6.496
 209   6 C      0.120  1.047  2.834  0.000    18.722     6.177
 210   8 O     -0.493  1.736  4.756  0.000    22.739     6.437
 211   6 C     -0.140  1.045  3.096  0.000    23.262     6.878
 212   1 H      0.231  0.769  0.000  0.000     0.959     1.534
 213   1 H      0.085  0.915  0.000  0.000     1.932     2.174
 214   1 H      0.036  0.964  0.000  0.000     2.501     2.473
 215   1 H      0.355  0.645  0.000  0.000     0.577     1.194
 216   1 H      0.082  0.918  0.000  0.000     1.960     2.189
 217   1 H      0.052  0.948  0.000  0.000     2.298     2.370
 218   1 H      0.050  0.950  0.000  0.000     2.319     2.382
 219   7 N     -0.159  1.243  3.915  0.000    24.430     7.341
 220   6 C      0.047  1.052  2.900  0.000    19.787     6.334
 221   6 C      0.210  1.083  2.707  0.000    23.552     7.948
 222   8 O     -0.375  1.744  4.631  0.000    21.195     6.172
 223   6 C     -0.094  1.069  3.025  0.000    22.287     6.721
 224   6 C      0.374  1.019  2.607  0.000    20.663     7.439
 225   8 O     -0.624  1.775  4.849  0.000    26.716     6.930
 226   8 O     -0.605  1.753  4.852  0.000    26.233     6.867
 227   1 H      0.215  0.785  0.000  0.000     1.033     1.592
 228   1 H      0.089  0.911  0.000  0.000     1.890     2.150
 229   1 H      0.039  0.961  0.000  0.000     2.457     2.451
 230   1 H      0.033  0.967  0.000  0.000     2.538     2.492
 231   7 N     -0.401  1.320  4.081  0.000    30.394     8.188
 232   6 C      0.039  1.060  2.901  0.000    19.929     6.358
 233   6 C      0.278  1.047  2.674  0.000    22.290     7.731
 234   8 O     -0.492  1.745  4.747  0.000    23.603     6.514
 235   6 C     -0.072  1.056  3.016  0.000    21.868     6.657
 236   6 C     -0.070  1.051  3.019  0.000    21.836     6.653
 237   6 C     -0.089  1.053  3.036  0.000    22.196     6.707
 238   6 C     -0.048  1.059  2.989  0.000    21.537     6.624
 239   7 N     -0.150  1.232  3.918  0.000    24.224     7.310
 240   1 H      0.160  0.840  0.000  0.000     1.333     1.808
 241   1 H      0.029  0.971  0.000  0.000     2.603     2.523
 242   1 H      0.042  0.958  0.000  0.000     2.425     2.435
 243   1 H      0.056  0.944  0.000  0.000     2.244     2.343
 244   1 H      0.028  0.972  0.000  0.000     2.616     2.529
 245   1 H      0.051  0.949  0.000  0.000     2.308     2.376
 246   1 H      0.080  0.920  0.000  0.000     1.981     2.201
 247   1 H      0.070  0.930  0.000  0.000     2.083     2.257
 248   1 H      0.106  0.894  0.000  0.000     1.727     2.055
 249   1 H      0.122  0.878  0.000  0.000     1.599     1.977
 250   1 H      0.308  0.692  0.000  0.000     0.691     1.302
 251   1 H      0.304  0.696  0.000  0.000     0.701     1.312
 252   1 H      0.298  0.702  0.000  0.000     0.718     1.327
 253   7 N     -0.176  1.245  3.931  0.000    24.811     7.398
 254   6 C      0.004  1.066  2.930  0.000    20.525     6.452
 255   6 C      0.266  1.044  2.690  0.000    22.504     7.769
 256   8 O     -0.497  1.744  4.753  0.000    23.713     6.529
 257   6 C      0.126  1.043  2.831  0.000    18.627     6.161
 258   8 O     -0.478  1.716  4.763  0.000    22.430     6.393
 259   6 C     -0.133  1.043  3.091  0.000    23.125     6.857
 260   1 H      0.212  0.788  0.000  0.000     1.045     1.601
 261   1 H      0.079  0.921  0.000  0.000     1.987     2.204
 262   1 H     -0.003  1.003  0.000  0.000     3.104     2.755
 263   1 H      0.329  0.671  0.000  0.000     0.641     1.257
 264   1 H      0.075  0.925  0.000  0.000     2.036     2.231
 265   1 H      0.070  0.930  0.000  0.000     2.083     2.257
 266   1 H      0.057  0.943  0.000  0.000     2.233     2.337
 267   7 N     -0.176  1.249  3.926  0.000    24.802     7.397
 268   6 C      0.021  1.063  2.916  0.000    20.228     6.403
 269   6 C      0.272  1.044  2.684  0.000    22.400     7.750
 270   8 O     -0.499  1.730  4.768  0.000    23.754     6.535
 271   6 C     -0.019  1.066  2.954  0.000    20.882     6.500
 272   6 C     -0.059  1.046  3.013  0.000    21.626     6.621
 273   6 C     -0.124  1.042  3.082  0.000    22.935     6.828
 274   6 C     -0.117  1.038  3.078  0.000    22.798     6.809
 275   1 H      0.230  0.770  0.000  0.000     0.967     1.540
 276   1 H      0.063  0.937  0.000  0.000     2.164     2.300
 277   1 H      0.042  0.958  0.000  0.000     2.426     2.436
 278   1 H      0.036  0.964  0.000  0.000     2.501     2.473
 279   1 H      0.033  0.967  0.000  0.000     2.549     2.497
 280   1 H      0.076  0.924  0.000  0.000     2.026     2.226
 281   1 H      0.051  0.949  0.000  0.000     2.301     2.372
 282   1 H      0.045  0.955  0.000  0.000     2.379     2.412
 283   1 H      0.041  0.959  0.000  0.000     2.436     2.441
 284   1 H      0.046  0.954  0.000  0.000     2.366     2.405
 285   1 H      0.055  0.945  0.000  0.000     2.257     2.349
 286   7 N     -0.176  1.250  3.926  0.000    24.804     7.397
 287   6 C      0.045  1.055  2.900  0.000    19.818     6.339
 288   6 C      0.276  1.043  2.681  0.000    22.331     7.739
 289   8 O     -0.488  1.738  4.750  0.000    23.519     6.502
 290   6 C     -0.095  1.070  3.025  0.000    22.312     6.724
 291   6 C      0.375  1.020  2.604  0.000    20.640     7.435
 292   8 O     -0.635  1.776  4.859  0.000    26.984     6.965
 293   8 O     -0.624  1.761  4.863  0.000    26.711     6.929
 294   1 H      0.212  0.788  0.000  0.000     1.046     1.602
 295   1 H      0.054  0.946  0.000  0.000     2.277     2.360
 296   1 H      0.029  0.971  0.000  0.000     2.607     2.525
 297   1 H      0.037  0.963  0.000  0.000     2.485     2.465
 298   7 N     -0.173  1.237  3.936  0.000    24.743     7.388
 299   6 C     -0.023  1.050  2.973  0.000    21.070     6.549
 300   6 C      0.196  1.081  2.723  0.000    23.817     7.992
 301   8 O     -0.361  1.760  4.601  0.000    20.919     6.132
 302   1 H      0.220  0.780  0.000  0.000     1.010     1.574
 303   1 H      0.127  0.873  0.000  0.000     1.561     1.954
 304   1 H      0.094  0.906  0.000  0.000     1.842     2.123
 305   7 N     -0.392  1.320  4.072  0.000    30.149     8.155
 306   6 C      0.040  1.051  2.910  0.000    19.928     6.359
 307   6 C      0.205  1.086  2.710  0.000    23.652     7.965
 308   8 O     -0.381  1.757  4.624  0.000    21.306     6.189
 309   6 C     -0.110  1.041  3.069  0.000    22.664     6.788
 310   1 H      0.164  0.836  0.000  0.000     1.307     1.791
 311   1 H      0.071  0.929  0.000  0.000     2.080     2.255
 312   1 H      0.048  0.952  0.000  0.000     2.347     2.396
 313   1 H      0.052  0.948  0.000  0.000     2.289     2.366
 314   1 H      0.058  0.942  0.000  0.000     2.217     2.329
 315   7 N     -0.380  1.310  4.070  0.000    29.820     8.110
 316   6 C      0.030  1.061  2.909  0.000    20.083     6.383
 317   6 C      0.268  1.046  2.686  0.000    22.483     7.765
 318   8 O     -0.473  1.728  4.745  0.000    23.193     6.457
 319   6 C     -0.072  1.055  3.017  0.000    21.864     6.655
 320   6 C      0.001  1.075  2.924  0.000    28.010     8.681
 321   6 C     -0.046  1.083  2.963  0.000    29.145     8.853
 322   6 C     -0.038  1.083  2.956  0.000    28.953     8.824
 323   6 C     -0.064  1.077  2.987  0.000    29.586     8.920
 324   6 C     -0.073  1.078  2.995  0.000    29.825     8.956
 325   6 C      0.142  1.045  2.813  0.000    24.892     8.177
 326   8 O     -0.435  1.719  4.715  0.000    21.535     6.265
 327   1 H      0.176  0.824  0.000  0.000     1.239     1.744
 328   1 H      0.038  0.962  0.000  0.000     2.476     2.461
 329   1 H      0.047  0.953  0.000  0.000     2.359     2.402
 330   1 H      0.033  0.967  0.000  0.000     2.549     2.497
 331   1 H      0.055  0.945  0.000  0.000     2.259     2.350
 332   1 H      0.034  0.966  0.000  0.000     2.526     2.486
 333   1 H      0.059  0.941  0.000  0.000     2.213     2.326
 334   1 H      0.033  0.967  0.000  0.000     2.548     2.496
 335   1 H      0.343  0.657  0.000  0.000     0.605     1.222
 336   7 N     -0.167  1.244  3.922  0.000    24.608     7.368
 337   6 C      0.024  1.061  2.916  0.000    20.179     6.397
 338   6 C      0.271  1.046  2.683  0.000    22.415     7.754
 339   8 O     -0.484  1.744  4.740  0.000    23.424     6.489
 340   6 C     -0.065  1.051  3.014  0.000    21.733     6.635
 341   6 C      0.002  1.077  2.921  0.000    27.978     8.676
 342   6 C     -0.040  1.083  2.957  0.000    28.995     8.830
 343   6 C     -0.037  1.084  2.953  0.000    28.912     8.818
 344   6 C     -0.069  1.077  2.992  0.000    29.712     8.939
 345   6 C     -0.076  1.079  2.997  0.000    29.903     8.967
 346   6 C      0.130  1.045  2.825  0.000    25.143     8.218
 347   8 O     -0.419  1.702  4.716  0.000    21.218     6.218
 348   1 H      0.196  0.804  0.000  0.000     1.125     1.661
 349   1 H      0.083  0.917  0.000  0.000     1.950     2.184
 350   1 H      0.052  0.948  0.000  0.000     2.293     2.368
 351   1 H      0.042  0.958  0.000  0.000     2.425     2.435
 352   1 H      0.040  0.960  0.000  0.000     2.446     2.446
 353   1 H      0.032  0.968  0.000  0.000     2.551     2.498
 354   1 H      0.079  0.921  0.000  0.000     1.986     2.204
 355   1 H      0.062  0.938  0.000  0.000     2.181     2.309
 356   1 H      0.358  0.642  0.000  0.000     0.569     1.185
 357   7 N     -0.170  1.256  3.914  0.000    24.676     7.378
 358   6 C      0.033  1.057  2.911  0.000    20.027     6.372
 359   6 C      0.208  1.083  2.709  0.000    23.580     7.952
 360   8 O     -0.360  1.757  4.603  0.000    20.897     6.129
 361   6 C      0.097  1.031  2.872  0.000    19.188     6.275
 362   8 O     -0.485  1.716  4.769  0.000    22.579     6.414
 363   1 H      0.233  0.767  0.000  0.000     0.951     1.527
 364   1 H      0.074  0.926  0.000  0.000     2.039     2.233
 365   1 H      0.025  0.975  0.000  0.000     2.654     2.548
 366   1 H      0.033  0.967  0.000  0.000     2.544     2.494
 367   1 H      0.321  0.679  0.000  0.000     0.662     1.279
 368   7 N     -0.373  1.300  4.073  0.000    29.637     8.085
 369   6 C      0.042  1.054  2.904  0.000    19.877     6.350
 370   6 C      0.274  1.048  2.678  0.000    22.359     7.743
 371   8 O     -0.498  1.739  4.758  0.000    23.730     6.531
 372   6 C     -0.088  1.054  3.035  0.000    22.172     6.702
 373   6 C      0.290  1.039  2.671  0.000    22.084     7.695
 374   8 O     -0.500  1.739  4.761  0.000    23.773     6.537
 375   7 N     -0.307  1.278  4.029  0.000    27.906     7.846
 376   1 H      0.150  0.850  0.000  0.000     1.402     1.855
 377   1 H      0.036  0.964  0.000  0.000     2.509     2.477
 378   1 H      0.078  0.922  0.000  0.000     1.999     2.211
 379   1 H      0.032  0.968  0.000  0.000     2.561     2.503
 380   1 H      0.218  0.782  0.000  0.000     1.016     1.579
 381   1 H      0.214  0.786  0.000  0.000     1.039     1.596
 382   7 N     -0.171  1.254  3.916  0.000    24.696     7.381
 383   6 C      0.014  1.063  2.923  0.000    20.353     6.424
 384   6 C      0.276  1.044  2.679  0.000    22.325     7.737
 385   8 O     -0.517  1.748  4.770  0.000    24.173     6.592
 386   6 C     -0.090  1.059  3.031  0.000    22.207     6.708
 387   6 C     -0.090  1.052  3.039  0.000    22.220     6.711
 388   6 C     -0.099  1.054  3.045  0.000    22.391     6.737
 389   6 C     -0.055  1.058  2.997  0.000    21.658     6.643
 390   7 N     -0.140  1.232  3.908  0.000    24.026     7.280
 391   1 H      0.230  0.770  0.000  0.000     0.967     1.540
 392   1 H      0.085  0.915  0.000  0.000     1.931     2.173
 393   1 H      0.084  0.916  0.000  0.000     1.938     2.177
 394   1 H      0.062  0.938  0.000  0.000     2.181     2.309
 395   1 H      0.067  0.933  0.000  0.000     2.114     2.274
 396   1 H      0.066  0.934  0.000  0.000     2.131     2.283
 397   1 H      0.088  0.912  0.000  0.000     1.898     2.155
 398   1 H      0.092  0.908  0.000  0.000     1.857     2.131
 399   1 H      0.112  0.888  0.000  0.000     1.682     2.028
 400   1 H      0.129  0.871  0.000  0.000     1.543     1.943
 401   1 H      0.304  0.696  0.000  0.000     0.703     1.314
 402   1 H      0.266  0.734  0.000  0.000     0.825     1.423
 403   1 H      0.296  0.704  0.000  0.000     0.725     1.334
 404   7 N     -0.168  1.244  3.924  0.000    24.628     7.370
 405   6 C      0.018  1.059  2.923  0.000    20.270     6.411
 406   6 C      0.266  1.044  2.690  0.000    22.516     7.770
 407   8 O     -0.455  1.724  4.731  0.000    22.806     6.403
 408   6 C     -0.073  1.059  3.014  0.000    21.896     6.661
 409   6 C     -0.008  1.056  2.952  0.000    20.689     6.470
 410   6 C     -0.122  1.042  3.080  0.000    22.884     6.820
 411   6 C     -0.098  1.035  3.063  0.000    22.426     6.752
 412   1 H      0.237  0.763  0.000  0.000     0.935     1.515
 413   1 H      0.062  0.938  0.000  0.000     2.170     2.304
 414   1 H      0.065  0.935  0.000  0.000     2.141     2.288
 415   1 H      0.052  0.948  0.000  0.000     2.299     2.371
 416   1 H      0.029  0.971  0.000  0.000     2.594     2.519
 417   1 H      0.032  0.968  0.000  0.000     2.553     2.499
 418   1 H      0.054  0.946  0.000  0.000     2.275     2.359
 419   1 H      0.057  0.943  0.000  0.000     2.229     2.335
 420   1 H      0.025  0.975  0.000  0.000     2.655     2.548
 421   1 H      0.032  0.968  0.000  0.000     2.565     2.504
 422   1 H      0.014  0.986  0.000  0.000     2.826     2.629
 423   7 N     -0.159  1.230  3.928  0.000    24.434     7.341
 424   6 C     -0.038  1.052  2.986  0.000    21.319     6.586
 425   6 C      0.272  1.040  2.688  0.000    22.400     7.750
 426   8 O     -0.499  1.749  4.750  0.000    23.754     6.535
 427   1 H      0.195  0.805  0.000  0.000     1.132     1.667
 428   1 H      0.108  0.892  0.000  0.000     1.714     2.048
 429   1 H      0.109  0.891  0.000  0.000     1.709     2.044
 430   7 N     -0.157  1.233  3.924  0.000    24.393     7.335
 431   6 C     -0.042  1.051  2.991  0.000    21.398     6.598
 432   6 C      0.263  1.042  2.696  0.000    22.573     7.780
 433   8 O     -0.442  1.724  4.719  0.000    22.547     6.366
 434   1 H      0.245  0.755  0.000  0.000     0.903     1.489
 435   1 H      0.107  0.893  0.000  0.000     1.722     2.052
 436   1 H      0.078  0.922  0.000  0.000     1.996     2.209
 437   7 N     -0.183  1.241  3.941  0.000    24.954     7.419
 438   6 C      0.016  1.062  2.922  0.000    20.319     6.419
 439   6 C      0.274  1.043  2.682  0.000    22.360     7.743
 440   8 O     -0.477  1.745  4.732  0.000    23.284     6.469
 441   6 C     -0.126  1.040  3.086  0.000    22.976     6.834
 442   1 H      0.203  0.797  0.000  0.000     1.090     1.636
 443   1 H      0.108  0.892  0.000  0.000     1.711     2.046
 444   1 H      0.063  0.937  0.000  0.000     2.161     2.299
 445   1 H      0.091  0.909  0.000  0.000     1.866     2.136
 446   1 H      0.047  0.953  0.000  0.000     2.358     2.401
 447   7 N     -0.196  1.242  3.953  0.000    25.246     7.462
 448   6 C      0.038  1.052  2.910  0.000    19.948     6.361
 449   6 C      0.265  1.048  2.687  0.000    22.525     7.772
 450   8 O     -0.482  1.734  4.748  0.000    23.394     6.485
 451   6 C     -0.100  1.062  3.037  0.000    22.401     6.738
 452   6 C      0.363  1.024  2.613  0.000    20.844     7.472
 453   8 O     -0.582  1.747  4.835  0.000    25.681     6.794
 454   8 O     -0.589  1.754  4.835  0.000    25.839     6.815
 455   1 H      0.207  0.793  0.000  0.000     1.070     1.620
 456   1 H      0.067  0.933  0.000  0.000     2.123     2.279
 457   1 H      0.044  0.956  0.000  0.000     2.399     2.422
 458   1 H      0.045  0.955  0.000  0.000     2.382     2.414
 459   7 N     -0.164  1.237  3.927  0.000    24.551     7.359
 460   6 C     -0.037  1.051  2.986  0.000    21.305     6.584
 461   6 C      0.278  1.037  2.685  0.000    22.303     7.733
 462   8 O     -0.456  1.732  4.725  0.000    22.839     6.407
 463   1 H      0.211  0.789  0.000  0.000     1.054     1.608
 464   1 H      0.105  0.895  0.000  0.000     1.743     2.065
 465   1 H      0.115  0.885  0.000  0.000     1.653     2.011
 466   7 N     -0.176  1.232  3.944  0.000    24.802     7.396
 467   6 C      0.021  1.059  2.920  0.000    20.228     6.405
 468   6 C      0.273  1.042  2.684  0.000    22.379     7.747
 469   8 O     -0.499  1.751  4.748  0.000    23.756     6.535
 470   6 C     -0.077  1.053  3.023  0.000    21.962     6.671
 471   6 C     -0.074  1.049  3.025  0.000    21.910     6.664
 472   6 C     -0.089  1.053  3.036  0.000    22.195     6.707
 473   6 C     -0.034  1.054  2.980  0.000    21.276     6.584
 474   7 N     -0.164  1.238  3.925  0.000    24.525     7.355
 475   1 H      0.184  0.816  0.000  0.000     1.193     1.711
 476   1 H      0.086  0.914  0.000  0.000     1.917     2.165
 477   1 H      0.072  0.928  0.000  0.000     2.067     2.248
 478   1 H      0.062  0.938  0.000  0.000     2.177     2.307
 479   1 H      0.039  0.961  0.000  0.000     2.460     2.453
 480   1 H      0.049  0.951  0.000  0.000     2.335     2.389
 481   1 H      0.078  0.922  0.000  0.000     2.000     2.212
 482   1 H      0.083  0.917  0.000  0.000     1.946     2.182
 483   1 H      0.113  0.887  0.000  0.000     1.670     2.021
 484   1 H      0.092  0.908  0.000  0.000     1.858     2.132
 485   1 H      0.267  0.733  0.000  0.000     0.819     1.418
 486   1 H      0.292  0.708  0.000  0.000     0.738     1.346
 487   1 H      0.286  0.714  0.000  0.000     0.755     1.362
 488   7 N     -0.194  1.261  3.933  0.000    25.203     7.456
 489   6 C      0.020  1.063  2.917  0.000    20.241     6.406
 490   6 C      0.271  1.046  2.683  0.000    22.418     7.754
 491   8 O     -0.475  1.727  4.749  0.000    23.248     6.465
 492   6 C      0.128  1.043  2.829  0.000    18.600     6.157
 493   8 O     -0.485  1.719  4.766  0.000    22.570     6.413
 494   6 C     -0.126  1.041  3.085  0.000    22.979     6.836
 495   1 H      0.236  0.764  0.000  0.000     0.941     1.519
 496   1 H      0.051  0.949  0.000  0.000     2.313     2.378
 497   1 H      0.030  0.970  0.000  0.000     2.592     2.518
 498   1 H      0.324  0.676  0.000  0.000     0.653     1.269
 499   1 H      0.074  0.926  0.000  0.000     2.039     2.233
 500   1 H      0.050  0.950  0.000  0.000     2.324     2.384
 501   1 H      0.047  0.953  0.000  0.000     2.353     2.399
 502   7 N     -0.176  1.254  3.922  0.000    24.816     7.399
 503   6 C      0.030  1.061  2.909  0.000    20.069     6.378
 504   6 C      0.268  1.044  2.688  0.000    22.477     7.764
 505   8 O     -0.519  1.748  4.771  0.000    24.206     6.596
 506   6 C     -0.041  1.046  2.995  0.000    21.303     6.570
 507   6 C     -0.092  1.064  3.028  0.000    22.264     6.718
 508   6 C      0.370  1.025  2.605  0.000    20.727     7.450
 509   8 O     -0.607  1.770  4.837  0.000    26.292     6.875
 510   8 O     -0.624  1.769  4.856  0.000    26.723     6.931
 511   1 H      0.194  0.806  0.000  0.000     1.137     1.671
 512   1 H      0.076  0.924  0.000  0.000     2.025     2.225
 513   1 H      0.042  0.958  0.000  0.000     2.420     2.433
 514   1 H      0.025  0.975  0.000  0.000     2.656     2.549
 515   1 H      0.030  0.970  0.000  0.000     2.583     2.513
 516   1 H      0.030  0.970  0.000  0.000     2.582     2.513
 517   7 N     -0.169  1.250  3.919  0.000    24.663     7.376
 518   6 C      0.018  1.062  2.919  0.000    20.269     6.410
 519   6 C      0.267  1.044  2.689  0.000    22.493     7.767
 520   8 O     -0.472  1.731  4.740  0.000    23.165     6.453
 521   6 C     -0.024  1.065  2.959  0.000    20.959     6.512
 522   6 C     -0.115  1.038  3.077  0.000    22.757     6.802
 523   6 C     -0.123  1.039  3.084  0.000    22.917     6.826
 524   1 H      0.244  0.756  0.000  0.000     0.908     1.493
 525   1 H      0.056  0.944  0.000  0.000     2.245     2.343
 526   1 H      0.065  0.935  0.000  0.000     2.140     2.288
 527   1 H      0.067  0.933  0.000  0.000     2.123     2.278
 528   1 H      0.029  0.971  0.000  0.000     2.597     2.520
 529   1 H      0.036  0.964  0.000  0.000     2.508     2.477
 530   1 H      0.073  0.927  0.000  0.000     2.050     2.239
 531   1 H      0.043  0.957  0.000  0.000     2.410     2.428
 532   1 H      0.056  0.944  0.000  0.000     2.251     2.346
 533   7 N     -0.155  1.236  3.919  0.000    24.360     7.330
 534   6 C      0.015  1.063  2.922  0.000    20.327     6.419
 535   6 C      0.200  1.082  2.718  0.000    23.746     7.980
 536   8 O     -0.346  1.752  4.594  0.000    20.636     6.090
 537   6 C     -0.010  1.063  2.947  0.000    20.722     6.475
 538   6 C     -0.115  1.037  3.078  0.000    22.763     6.803
 539   6 C     -0.125  1.042  3.083  0.000    22.954     6.831
 540   1 H      0.201  0.799  0.000  0.000     1.101     1.644
 541   1 H      0.101  0.899  0.000  0.000     1.780     2.087
 542   1 H      0.035  0.965  0.000  0.000     2.519     2.482
 543   1 H      0.045  0.955  0.000  0.000     2.387     2.416
 544   1 H      0.038  0.962  0.000  0.000     2.471     2.458
 545   1 H      0.057  0.943  0.000  0.000     2.236     2.338
 546   1 H      0.052  0.948  0.000  0.000     2.295     2.369
 547   1 H      0.058  0.942  0.000  0.000     2.227     2.334
 548   1 H      0.054  0.946  0.000  0.000     2.268     2.355
 549   7 N     -0.384  1.325  4.059  0.000    29.935     8.126
 550   6 C      0.028  1.058  2.914  0.000    20.125     6.391
 551   6 C      0.211  1.089  2.700  0.000    23.536     7.945
 552   8 O     -0.367  1.750  4.617  0.000    21.028     6.148
 553   6 C      0.114  1.052  2.833  0.000    18.811     6.193
 554   8 O     -0.495  1.735  4.760  0.000    22.781     6.443
 555   6 C     -0.130  1.041  3.089  0.000    23.051     6.847
 556   1 H      0.160  0.840  0.000  0.000     1.334     1.809
 557   1 H      0.081  0.919  0.000  0.000     1.970     2.195
 558   1 H      0.028  0.972  0.000  0.000     2.616     2.530
 559   1 H      0.334  0.666  0.000  0.000     0.628     1.245
 560   1 H      0.060  0.940  0.000  0.000     2.195     2.317
 561   1 H      0.050  0.950  0.000  0.000     2.317     2.380
 562   1 H      0.055  0.945  0.000  0.000     2.264     2.353
 563   7 N     -0.379  1.312  4.066  0.000    29.781     8.105
 564   6 C      0.046  1.051  2.902  0.000    19.818     6.342
 565   6 C      0.202  1.089  2.709  0.000    23.695     7.972
 566   8 O     -0.363  1.756  4.607  0.000    20.948     6.136
 567   6 C     -0.118  1.042  3.077  0.000    22.817     6.810
 568   1 H      0.171  0.829  0.000  0.000     1.269     1.765
 569   1 H      0.044  0.956  0.000  0.000     2.401     2.423
 570   1 H      0.041  0.959  0.000  0.000     2.431     2.438
 571   1 H      0.066  0.934  0.000  0.000     2.132     2.283
 572   1 H      0.059  0.941  0.000  0.000     2.217     2.328
 573   7 N     -0.388  1.309  4.079  0.000    30.032     8.139
 574   6 C      0.037  1.056  2.907  0.000    19.970     6.366
 575   6 C      0.268  1.052  2.680  0.000    22.468     7.762
 576   8 O     -0.469  1.745  4.724  0.000    23.118     6.446
 577   6 C     -0.115  1.042  3.073  0.000    22.756     6.801
 578   1 H      0.171  0.829  0.000  0.000     1.270     1.765
 579   1 H      0.025  0.975  0.000  0.000     2.654     2.548
 580   1 H      0.042  0.958  0.000  0.000     2.424     2.435
 581   1 H      0.046  0.954  0.000  0.000     2.367     2.406
 582   1 H      0.058  0.942  0.000  0.000     2.217     2.328
 583   7 N     -0.185  1.259  3.926  0.000    25.006     7.427
 584   6 C      0.030  1.056  2.914  0.000    20.073     6.380
 585   6 C      0.200  1.091  2.709  0.000    23.745     7.980
 586   8 O     -0.361  1.749  4.612  0.000    20.909     6.131
 587   6 C     -0.130  1.042  3.088  0.000    23.054     6.846
 588   1 H      0.202  0.798  0.000  0.000     1.095     1.640
 589   1 H      0.086  0.914  0.000  0.000     1.922     2.168
 590   1 H      0.075  0.925  0.000  0.000     2.035     2.231
 591   1 H      0.076  0.924  0.000  0.000     2.016     2.221
 592   1 H      0.064  0.936  0.000  0.000     2.148     2.292
 593   1 H      0.189  0.811  0.000  0.000     1.161     1.688
 594   1 H      0.086  0.914  0.000  0.000     1.922     2.168
 595   1 H      0.169  0.831  0.000  0.000     1.281     1.773
 596   1 H      0.073  0.927  0.000  0.000     2.051     2.240
 597   1 H      0.178  0.822  0.000  0.000     1.224     1.733
 598   1 H      0.072  0.928  0.000  0.000     2.058     2.243
 599   1 H      0.189  0.811  0.000  0.000     1.163     1.689
 600   1 H      0.066  0.934  0.000  0.000     2.128     2.281
 601   1 H      0.181  0.819  0.000  0.000     1.207     1.721
 602   1 H      0.094  0.906  0.000  0.000     1.843     2.123
 603   1 H      0.177  0.823  0.000  0.000     1.230     1.737
 604   1 H      0.064  0.936  0.000  0.000     2.156     2.296
 605   1 H      0.185  0.815  0.000  0.000     1.186     1.706
 606   1 H      0.079  0.921  0.000  0.000     1.988     2.205
 607   1 H      0.190  0.810  0.000  0.000     1.158     1.685
 608   1 H      0.095  0.905  0.000  0.000     1.831     2.116
 609   1 H      0.192  0.808  0.000  0.000     1.145     1.676
 610   1 H      0.065  0.935  0.000  0.000     2.137     2.286
 611   1 H      0.175  0.825  0.000  0.000     1.241     1.745
 612   1 H      0.055  0.945  0.000  0.000     2.255     2.348
 613   1 H      0.173  0.827  0.000  0.000     1.252     1.753
 614   1 H      0.089  0.911  0.000  0.000     1.887     2.148

 Mol. C6AA /au·bohr⁶  :    3513190.605826
 Mol. C8AA /au·bohr⁸  :   78387890.307240
 Mol. α(0) /au        :       2805.636681

 
molecular dipole:
                 x           y           z       tot (Debye)
 q only:        0.873     -50.350     -27.227
   full:       -0.578     -45.635     -26.067     133.592
molecular quadrupole (traceless):
                xx          xy          yy          xz          yz          zz
 q only:    11285.340  -25381.898   -7310.020  -13399.862  -19042.155   -3975.320
  q+dip:     9512.034  -23303.323   -5871.771  -13218.907  -17489.807   -3640.262
   full:     9513.883  -23306.824   -5876.225  -13216.870  -17490.805   -3637.658
speedup 15.08
cpu  time for grad    1 m 46.9 s
wall time for grad    0 m  7.1 s

SCC energy    :    -980.8075471
rep           :      11.4702057
ES            :       3.4152216
AES           :      -0.1850079
AXC           :       0.2827487
disp          :      -0.8024921
XB            :       0.0000000
fix           :       0.0000000
Gborn         :       0.0000000
Gsasa         :       0.0000000
Ghb           :       0.0000000
Gshift        :       0.0000000
Gsolv         :      -0.9174229     -575.69
Etot ala COSMO:    -980.8075471
grad norm     :       0.7404956
total E       :    -969.2557798
atomizationE  :     172.3157747   108129.78
(atE without considering molecular charge,
 total energy contains solvation terms)
H-L gap (eV)  :          1.6347

------------------------------------------------------------------------
 * finished run on 2019/02/13 at 00:17:23.211     
------------------------------------------------------------------------
 total:
 * wall-time:     0 d,  0 h,  0 min,  7.853 sec
 *  cpu-time:     0 d,  0 h,  1 min, 56.339 sec
 * ratio c/w:    14.814 speedup
 SCF:
 * wall-time:     0 d,  0 h,  0 min,  7.451 sec
 *  cpu-time:     0 d,  0 h,  1 min, 51.844 sec
 * ratio c/w:    15.010 speedup

