      -----------------------------------------------------------      
     |                   =====================                   |     
     |                           x T B                           |     
     |                   =====================                   |     
     |                         S. Grimme                         |     
     |          Mulliken Center for Theoretical Chemistry        |     
     |                    University of Bonn                     |     
     |                Version 6.1 RC1 (SAW190329)                |     
      -----------------------------------------------------------      

   This program is distributed in the hope that it will be useful,
   but WITHOUT ANY WARRANTY; without even the implied warranty of
   MERCHANTABILITY or FITNESS FOR A PARTICULAR PURPOSE.
   
   FOR NON-COMMERCIAL, ACADEMIA USE ONLY.
   
   Cite this work as:
   S. Grimme, C. Bannwarth, P. Shushkov, J. Comput. Theory Chem., 2017,
   13, 1989-2009. DOI: 10.1021/acs.jctc.7b00118
   C. Bannwarth, S. Ehlert and S. Grimme., J. Comput. Theory Chem., 2019,
   just accepted. DOI: 10.1021/acs.jctc.8b01176
   
   for sTDA-xTB:
   S. Grimme and C. Bannwarth, J. Chem. Phys., 2016, 145, 054103.
   DOI: 10.1063/1.4959605
   
   in the mass-spec context:
   V. Asgeirsson, C. Bauer and S. Grimme, Chem. Sci., 2017, 8, 4879.
   DOI: 10.1039/c7sc00601b
   
   for metadynamics refer to:
   S. Grimme, ChemRxiv, Preprint. DOI: 10.26434/chemrxiv.7660532.v1
   
   with help from (in alphabetical order)
   C. Bannwarth, F. Bohle, G. Brandenburg, E. Caldeweyher, M. Checinski,
   S. Dohm, S. Ehlert, S. Ehrlich, F. März, H. Neugebauer, J. Pisarek,
   P. Pracht, P. Shushkov, and S. Spicher.
   
 * started run on 2019/05/31 at 06:33:19.976     

           -------------------------------------------------
          |                Calculation Setup                |
           -------------------------------------------------

          program call               : /home/lum/qr/xtb-190329/bin/xtb xtb_tmp.xyz --chrg -1 --grad --gfn 2 --etemp 500 --acc 0.1 --gbsa h2o --parallel 2
          hostname                   : cu39
          coordinate file            : xtb_tmp.xyz
          omp threads                :                     2
          number of atoms            :                   582
          number of electrons        :                  1584
          charge                     :                    -1
          spin                       :                   0.0
          first test random number   :      0.48315891254158


molecular fragmentation (1/2 indicates fragments):
111111111111111112222222222222222222222222222222222222222222222222222222
222222222222222222222222222222222222222222222222222222222222222222222222
222222222222222222222222222222222222222222222222222222222222222222222222
222222222222222222222222222222222222222222222222222222222222222222222222
222222222222222222222222222222222222222222222222222222222222222222222222
222222222222222222222222222222222222222222222222222222222222222222222222
222222222222222222222222222222222222222222222222222222222222222222222222
222222222222222222222222222222222222222222222222222222221122222222222222
222222
# atoms in fragment 1/2:    19   563
 fragment masses (1/2) :      133.21     3892.54
CMA distance (Bohr)    :  19.642
constraining FC (au)   :  0.0500

########################################################################
# WARNING! Please study the warnings concerning your input carefully
#  - XTBPATH is not set, using XTBHOME instead
#  - Process number higher than OMP_NUM_THREADS, I hope you know what you are doing.
########################################################################

           ------------------------------------------------- 
          |                 G F N 2 - x T B                 |
          | Geometry, Frequencies, Noncovalent interactions |
          |            JCTC 2018 parametrisation            |
           ------------------------------------------------- 
 
             k(s)              :                1.8500
             k(p)              :                2.2300
             k(d)              :                2.2300
             k(f)              :                2.0000
             kEN (H0ij)        :               -2.0000
             D4 a1             :                0.5200
             D4 a2             :                5.0000
             D4 s6             :                1.0000
             D4 s8             :                2.7000
             D4 s9             :                5.0000
             alphaj            :                2.0000

  Z AO/shell   Hii/eV     exponent
  1     Wed Apr 25 08:07:45 CEST 2018   EN: 2.200 GM2: 0.406  GM3: 0.0800  RAES: 1.40
     1s    -10.707211    1.230000
  6     Wed Apr 25 08:07:45 CEST 2018   EN: 2.550 GM2: 0.538  GM3: 0.1500  RAES: 3.00
     2s    -13.970922    2.096432
     2p    -10.063292    1.800000
  7     Wed Apr 25 08:07:45 CEST 2018   EN: 3.040 GM2: 0.461  GM3:-0.0640  RAES: 1.90
     2s    -16.686243    2.339881
     2p    -12.523956    2.014332
  8     Wed Apr 25 08:07:45 CEST 2018   EN: 3.440 GM2: 0.452  GM3:-0.0517  RAES: 1.80
     2s    -20.229985    2.439742
     2p    -15.503117    2.137023
 16     Tue Apr 24 11:44:34 CEST 2018   EN: 2.580 GM2: 0.340  GM3:-0.0502  RAES: 3.10
     3s    -20.029654    1.981333
     3p    -11.377694    2.025643
     3d     -0.420282    1.702555

 Solvent             : h2o
 Using internal parameter file: .param_gbsa2_h2o
 Gsolv ref. state (COSMO-RS): gsolv [1 M gas/solution]
 temperature (mdtemp)       :    298.150000000000     
 dielectric constant        :    80.2000000000000     
 rho                        :    1.00000000000000     
 mass                       :    18.0000000000000     
 surface tension            :    15.5689454083859     
 probe radius               :   0.975313790000000     
 vdW radii scaling          :    1.00000000000000     
 Gshift (Eh)                :   1.857443126794793E-003
 c1                         :    1.55243817000000     
 soset                      :   0.130326360000000     
 HB correction              :  T
 Number of grid points      :          230

            Z     q(EN)     CN     RAES       Cart. coordinates
     1  N   5.0   -0.69    3.00    1.93    44.85878    21.06710    76.79387
     2  C   4.0    0.06    3.98    3.58    43.51980    22.11827    78.93768
     3  C   4.0    0.08    3.00    3.02    45.22814    22.01836    81.27314
     4  O   6.0   -0.40    1.00    1.80    46.19184    20.03209    81.96586
     5  C   4.0   -0.13    4.01    3.63    41.08936    20.57438    79.39531
     6  C   4.0   -0.14    3.98    3.58    38.88020    22.22973    80.17472
     7  S   6.0   -0.16    2.01    3.10    36.05175    20.40983    80.95635
     8  C   4.0   -0.20    3.98    3.58    35.47869    18.93580    77.91195
     9  H   1.0    0.28    1.00    1.43    45.31451    19.22165    76.94821
    10  H   1.0    0.11    0.99    1.43    43.07990    24.08092    78.49223
    11  H   1.0    0.11    0.99    1.43    40.60286    19.62146    77.62948
    12  H   1.0    0.13    0.99    1.43    41.45144    19.12887    80.82424
    13  H   1.0    0.11    0.99    1.43    39.30777    23.32672    81.85927
    14  H   1.0    0.12    0.99    1.43    38.36398    23.47256    78.62638
    15  H   1.0    0.11    0.99    1.43    33.54696    18.25049    77.93058
    16  H   1.0    0.14    0.99    1.43    35.73646    20.32485    76.42159
    17  H   1.0    0.11    0.99    1.43    36.75901    17.35051    77.65372
    18  N   5.0   -0.70    3.00    1.93    42.61653    35.90731    90.11221
    19  C   4.0    0.07    3.98    3.59    41.76027    34.21821    88.12240
    20  C   4.0    0.28    3.01    3.02    42.81731    35.07870    85.57899
    21  O   6.0   -0.46    1.00    1.80    42.86163    37.29188    84.91396
    22  C   4.0   -0.14    3.99    3.60    38.84396    34.06500    88.02117
    23  C   4.0   -0.04    3.03    3.02    37.93756    32.11298    86.15794
    24  C   4.0   -0.08    3.03    3.02    38.06328    32.56466    83.57266
    25  C   4.0   -0.10    3.03    3.02    36.93819    29.82995    86.98572
    26  C   4.0   -0.09    3.03    3.02    37.29900    30.73758    81.86486
    27  C   4.0   -0.11    3.03    3.02    36.17487    28.00082    85.27659
    28  C   4.0   -0.10    3.03    3.02    36.37076    28.43814    82.70519
    29  H   1.0    0.32    1.00    1.43    42.16915    37.77399    89.96072
    30  H   1.0    0.11    0.99    1.43    42.52964    32.35720    88.56445
    31  H   1.0    0.09    0.99    1.43    38.14584    33.61796    89.90886
    32  H   1.0    0.11    0.99    1.43    38.12943    35.92394    87.49989
    33  H   1.0    0.13    1.00    1.43    38.74979    34.36283    82.90061
    34  H   1.0    0.10    1.00    1.43    36.74960    29.46987    88.98360
    35  H   1.0    0.12    1.00    1.43    37.44307    31.11702    79.86979
    36  H   1.0    0.11    1.00    1.43    35.43214    26.22967    85.96498
    37  H   1.0    0.11    1.00    1.43    35.77991    26.98916    81.39753
    38  N   5.0   -0.49    3.01    1.93    43.62586    33.21131    84.08977
    39  C   4.0    0.07    3.99    3.61    44.59648    33.67730    81.57338
    40  C   4.0    0.26    3.01    3.02    43.94960    31.49788    79.79544
    41  O   6.0   -0.44    1.00    1.80    44.12353    29.28181    80.41934
    42  C   4.0   -0.14    3.98    3.59    47.50384    33.89165    81.64073
    43  C   4.0   -0.16    3.98    3.58    48.67426    34.18983    79.00492
    44  C   4.0   -0.15    3.98    3.58    51.15315    35.68555    79.02507
    45  C   4.0   -0.05    3.98    3.58    53.09080    34.69586    80.92574
    46  N   5.0   -0.73    3.98    2.81    54.91300    36.73784    81.57054
    47  H   1.0    0.25    1.00    1.43    43.83508    31.41475    84.73171
    48  H   1.0    0.14    0.99    1.43    43.76410    35.43929    80.88952
    49  H   1.0    0.12    0.99    1.43    47.96881    35.49942    82.84416
    50  H   1.0    0.12    0.99    1.43    48.20077    32.18077    82.55530
    51  H   1.0    0.12    0.99    1.43    48.98423    32.32683    78.18080
    52  H   1.0    0.13    0.99    1.43    47.35267    35.20311    77.78995
    53  H   1.0    0.10    0.99    1.43    51.94136    35.65871    77.12329
    54  H   1.0    0.12    0.99    1.43    50.72534    37.64140    79.49979
    55  H   1.0    0.11    0.99    1.43    52.14826    34.13286    82.66687
    56  H   1.0    0.10    0.99    1.43    54.11162    33.07566    80.16681
    57  H   1.0    0.24    1.00    1.43    56.08279    36.20113    83.02146
    58  H   1.0    0.24    1.00    1.43    56.00016    37.22456    80.03705
    59  H   1.0    0.31    0.99    1.43    53.90757    38.35286    82.19165
    60  N   5.0   -0.49    3.01    1.93    43.33881    32.22812    77.44335
    61  C   4.0    0.06    3.99    3.61    43.35533    30.45223    75.36894
    62  C   4.0    0.04    3.00    3.02    44.75932    31.51029    73.07349
    63  O   6.0   -0.46    1.00    1.80    44.92648    33.77156    72.62989
    64  C   4.0   -0.14    3.98    3.59    40.66928    29.66962    74.53870
    65  C   4.0   -0.12    3.99    3.60    39.89824    27.27172    75.95223
    66  C   4.0    0.26    3.00    3.02    37.55674    25.99391    74.90148
    67  O   6.0   -0.43    1.00    1.80    37.61354    23.85853    74.01217
    68  N   5.0   -0.64    3.00    1.93    35.43387    27.36282    75.05403
    69  H   1.0    0.28    1.00    1.43    43.12811    34.09021    77.02174
    70  H   1.0    0.13    0.99    1.43    44.36645    28.77192    76.02667
    71  H   1.0    0.12    0.99    1.43    39.39227    31.23914    74.91265
    72  H   1.0    0.12    0.99    1.43    40.66266    29.26909    72.51734
    73  H   1.0    0.11    0.99    1.43    41.43155    25.92314    75.71765
    74  H   1.0    0.11    0.99    1.43    39.66707    27.68175    77.95965
    75  H   1.0    0.27    1.00    1.43    35.42676    29.06866    75.89107
    76  H   1.0    0.30    1.00    1.43    33.82918    26.66178    74.30700
    77  N   5.0   -0.71    3.00    1.92    45.37081    29.16291    64.98770
    78  C   4.0    0.07    3.98    3.58    44.18257    27.79339    62.94342
    79  C   4.0    0.07    3.00    3.02    45.81892    27.59265    60.55078
    80  O   6.0   -0.40    1.00    1.80    46.40838    25.57153    59.61991
    81  C   4.0   -0.13    3.99    3.61    41.66185    29.02410    62.11734
    82  C   4.0   -0.03    3.03    3.02    39.86239    29.20072    64.29245
    83  C   4.0   -0.10    3.04    3.02    40.12205    31.18583    65.98181
    84  C   4.0   -0.10    3.03    3.02    37.98446    27.42044    64.70434
    85  C   4.0   -0.10    3.03    3.02    38.54588    31.39911    68.04380
    86  C   4.0   -0.07    3.03    3.02    36.36125    27.63717    66.73557
    87  C   4.0    0.11    3.03    3.02    36.63465    29.63804    68.41055
    88  O   6.0   -0.44    1.99    1.83    34.99621    29.85756    70.37640
    89  H   1.0    0.26    1.00    1.43    45.85568    30.99240    64.68643
    90  H   1.0    0.14    0.99    1.43    43.81110    25.88803    63.65619
    91  H   1.0    0.11    0.99    1.43    42.04240    30.92446    61.41608
    92  H   1.0    0.11    0.99    1.43    40.85582    27.90970    60.58326
    93  H   1.0    0.11    1.00    1.43    41.57112    32.58147    65.66253
    94  H   1.0    0.12    1.00    1.43    37.77639    25.86239    63.40788
    95  H   1.0    0.11    0.99    1.43    38.79460    32.94702    69.35305
    96  H   1.0    0.14    1.00    1.43    34.88444    26.27191    67.05894
    97  H   1.0    0.26    0.99    1.43    35.57857    31.20399    71.46913
    98  N   5.0   -0.71    3.00    1.92    45.27772    38.38485    66.15512
    99  C   4.0    0.01    3.98    3.59    43.60154    37.34693    68.05341
   100  C   4.0    0.26    3.00    3.02    42.29090    39.41639    69.56569
   101  O   6.0   -0.42    1.00    1.80    41.63878    41.40717    68.58218
   102  H   1.0    0.32    1.00    1.43    45.61051    40.26920    66.20608
   103  H   1.0    0.11    0.99    1.43    42.11251    36.23962    67.12714
   104  H   1.0    0.13    0.99    1.43    44.65420    36.09447    69.31886
   105  N   5.0   -0.50    3.01    1.93    41.87976    38.78191    71.98653
   106  C   4.0    0.08    3.99    3.60    40.64913    40.41945    73.79124
   107  C   4.0    0.26    3.01    3.02    41.81780    39.95057    76.38078
   108  O   6.0   -0.47    1.00    1.80    42.14456    37.82042    77.21103
   109  C   4.0   -0.14    3.98    3.59    37.76804    39.96341    73.85518
   110  C   4.0   -0.14    3.98    3.58    36.98792    37.17996    73.96371
   111  C   4.0   -0.04    3.99    3.60    34.09154    37.05605    73.93832
   112  N   5.0   -0.49    3.01    1.93    33.08630    34.50418    73.64942
   113  C   4.0    0.35    3.01    3.02    32.16976    33.12438    75.55820
   114  N   5.0   -0.64    3.02    1.93    30.73545    31.12151    75.08788
   115  N   5.0   -0.66    3.02    1.93    32.98999    33.52902    77.91213
   116  H   1.0    0.28    1.00    1.43    42.54231    37.10490    72.63327
   117  H   1.0    0.15    0.99    1.43    40.99395    42.36783    73.18355
   118  H   1.0    0.11    0.99    1.43    36.96066    41.00089    75.44567
   119  H   1.0    0.12    0.99    1.43    36.98869    40.77083    72.12864
   120  H   1.0    0.12    0.99    1.43    37.72717    36.22134    72.29563
   121  H   1.0    0.13    0.99    1.43    37.76234    36.29543    75.65498
   122  H   1.0    0.11    0.99    1.43    33.33337    37.92138    75.65287
   123  H   1.0    0.12    0.99    1.43    33.38085    38.18432    72.36397
   124  H   1.0    0.24    1.00    1.43    32.36897    34.09115    71.92458
   125  H   1.0    0.32    1.00    1.43    29.99401    30.81376    73.33602
   126  H   1.0    0.28    1.00    1.43    29.70922    30.37563    76.51810
   127  H   1.0    0.25    1.00    1.43    34.04149    35.06862    78.31050
   128  H   1.0    0.26    1.00    1.43    32.10888    32.67559    79.37254
   129  N   5.0   -0.50    3.01    1.93    42.48117    42.04225    77.64070
   130  C   4.0    0.07    4.00    3.61    43.48198    41.97354    80.17957
   131  C   4.0    0.27    3.01    3.02    41.64193    43.40661    81.89687
   132  O   6.0   -0.47    1.00    1.80    40.76531    45.46922    81.28631
   133  C   4.0   -0.15    3.98    3.58    46.16668    43.09431    80.30801
   134  C   4.0   -0.12    3.98    3.59    47.85888    41.43777    81.94888
   135  C   4.0    0.26    3.00    3.02    50.62910    42.10641    81.95037
   136  O   6.0   -0.47    1.01    1.80    52.15350    40.75336    83.09892
   137  N   5.0   -0.66    3.00    1.93    51.40869    44.11282    80.66115
   138  H   1.0    0.25    1.00    1.43    42.18589    43.75932    76.86772
   139  H   1.0    0.14    0.99    1.43    43.52320    39.98067    80.72625
   140  H   1.0    0.11    0.99    1.43    46.90871    43.15287    78.38119
   141  H   1.0    0.12    0.99    1.43    46.06199    45.00913    81.06754
   142  H   1.0    0.13    0.99    1.43    47.21012    41.45069    83.91096
   143  H   1.0    0.11    0.99    1.43    47.69818    39.47877    81.31151
   144  H   1.0    0.24    1.00    1.43    50.21458    45.38328    79.89797
   145  H   1.0    0.27    1.00    1.43    53.27147    44.53389    80.65482
   146  N   5.0   -0.49    3.01    1.93    41.07564    42.17722    84.00435
   147  C   4.0    0.07    3.99    3.60    39.23671    42.99734    85.84733
   148  C   4.0    0.06    3.00    3.02    40.61501    43.21294    88.37814
   149  O   6.0   -0.43    1.00    1.80    41.53940    41.37150    89.43164
   150  C   4.0   -0.08    3.98    3.59    37.12704    41.00725    86.07643
   151  C   4.0   -0.24    3.98    3.59    35.21417    41.82284    88.06932
   152  C   4.0   -0.22    3.98    3.59    35.86162    40.52242    83.53405
   153  H   1.0    0.30    1.00    1.43    41.88198    40.47460    84.40055
   154  H   1.0    0.12    0.99    1.43    38.48491    44.83260    85.26240
   155  H   1.0    0.13    0.99    1.43    38.05238    39.27157    86.71285
   156  H   1.0    0.10    0.99    1.43    33.67275    40.46936    88.17256
   157  H   1.0    0.11    0.99    1.43    36.10773    41.93094    89.91675
   158  H   1.0    0.09    0.99    1.43    34.44153    43.67330    87.62361
   159  H   1.0    0.09    0.99    1.43    34.48639    39.01196    83.73042
   160  H   1.0    0.10    0.99    1.43    34.89570    42.21747    82.89214
   161  H   1.0    0.13    0.99    1.43    37.25559    39.97659    82.12755
   162  N   5.0   -0.71    3.01    1.93    37.71840    52.71265    82.19885
   163  C   4.0    0.07    3.99    3.60    36.83082    50.79010    80.46406
   164  C   4.0    0.27    3.01    3.02    38.35809    51.15337    78.03005
   165  O   6.0   -0.44    1.00    1.80    38.14751    53.00234    76.65738
   166  C   4.0   -0.09    3.98    3.58    33.94053    50.96505    80.09992
   167  C   4.0   -0.15    3.98    3.58    33.00634    48.82829    78.37119
   168  C   4.0   -0.21    3.98    3.59    33.13469    53.56140    79.12554
   169  C   4.0   -0.24    3.98    3.58    32.26975    46.46168    79.83590
   170  H   1.0    0.27    1.00    1.43    37.77241    54.48958    81.51366
   171  H   1.0    0.12    0.99    1.43    37.30921    48.96496    81.31379
   172  H   1.0    0.10    0.99    1.43    33.10778    50.70593    81.98104
   173  H   1.0    0.12    0.99    1.43    31.35884    49.47096    77.31258
   174  H   1.0    0.13    0.99    1.43    34.45423    48.34736    76.97783
   175  H   1.0    0.10    0.99    1.43    31.11024    53.57678    78.78713
   176  H   1.0    0.11    0.99    1.43    33.55482    55.01995    80.50976
   177  H   1.0    0.14    0.99    1.43    34.10081    54.01699    77.37187
   178  H   1.0    0.12    0.99    1.43    31.63746    45.01599    78.52074
   179  H   1.0    0.10    0.99    1.43    33.86968    45.74325    80.90640
   180  H   1.0    0.09    0.99    1.43    30.73066    46.87981    81.13487
   181  N   5.0   -0.50    3.01    1.93    40.05012    49.31489    77.59023
   182  C   4.0    0.07    3.99    3.61    41.82338    49.44300    75.50188
   183  C   4.0    0.26    3.00    3.02    41.05811    47.58852    73.40295
   184  O   6.0   -0.45    1.00    1.80    42.57701    46.32315    72.23153
   185  C   4.0   -0.13    3.99    3.60    44.51746    49.00984    76.46348
   186  C   4.0   -0.10    3.97    3.58    46.63502    50.05247    74.77702
   187  C   4.0   -0.23    3.98    3.59    46.68967    52.93546    74.78795
   188  C   4.0   -0.23    3.99    3.59    49.16293    49.02658    75.73558
   189  H   1.0    0.28    1.00    1.43    40.25649    47.85156    78.82448
   190  H   1.0    0.14    0.99    1.43    41.63691    51.33553    74.68228
   191  H   1.0    0.12    0.99    1.43    44.66294    49.86746    78.33517
   192  H   1.0    0.11    0.99    1.43    44.80017    46.98006    76.65164
   193  H   1.0    0.12    0.99    1.43    46.33054    49.37381    72.84440
   194  H   1.0    0.10    0.99    1.43    48.24235    53.61683    73.62883
   195  H   1.0    0.11    0.99    1.43    44.94763    53.72320    74.03661
   196  H   1.0    0.11    0.99    1.43    46.95631    53.64662    76.69902
   197  H   1.0    0.10    0.99    1.43    50.69057    49.62103    74.49861
   198  H   1.0    0.10    0.99    1.43    49.54614    49.73752    77.62711
   199  H   1.0    0.09    0.99    1.43    49.12615    46.97289    75.76173
   200  N   5.0   -0.48    3.01    1.93    38.52958    47.41522    73.13210
   201  C   4.0    0.01    3.98    3.59    37.27555    46.10265    71.08490
   202  C   4.0    0.07    3.00    3.02    35.72310    48.00121    69.55428
   203  O   6.0   -0.41    1.00    1.80    36.42100    48.81901    67.49409
   204  H   1.0    0.26    1.00    1.43    37.43166    48.62252    74.12777
   205  H   1.0    0.16    0.99    1.43    38.69715    45.20945    69.87853
   206  H   1.0    0.12    0.99    1.43    35.97982    44.69447    71.86697
   207  N   5.0   -0.69    3.01    1.93    27.81231    48.84122    71.27584
   208  C   4.0    0.07    3.98    3.59    25.80837    46.98487    71.55170
   209  C   4.0    0.26    3.02    3.02    23.46169    48.52438    72.30297
   210  O   6.0   -0.42    1.00    1.80    23.66821    50.13621    73.95915
   211  C   4.0   -0.11    3.98    3.58    26.57316    45.01172    73.54081
   212  C   4.0    0.30    2.99    3.02    29.31761    44.04379    72.99849
   213  O   6.0   -0.46    1.00    1.80    31.06725    45.45495    73.69292
   214  O   6.0   -0.48    1.00    1.80    29.59702    41.93645    71.99057
   215  H   1.0    0.29    1.00    1.43    28.20756    49.82368    72.86644
   216  H   1.0    0.11    0.99    1.43    25.57448    46.06036    69.72001
   217  H   1.0    0.11    0.99    1.43    26.55948    45.87316    75.41921
   218  H   1.0    0.11    0.99    1.43    25.24984    43.44032    73.47790
   219  N   5.0   -0.34    3.02    1.93    21.28192    48.16136    71.06409
   220  C   4.0    0.07    4.02    3.65    19.25561    50.04037    71.25141
   221  C   4.0    0.28    3.00    3.02    17.52315    49.55243    73.53627
   222  O   6.0   -0.36    1.00    1.80    17.99335    50.47381    75.59442
   223  C   4.0   -0.15    4.01    3.63    18.04675    49.95796    68.62882
   224  C   4.0   -0.15    4.00    3.62    18.38044    47.21947    67.76285
   225  C   4.0   -0.05    4.01    3.64    20.87237    46.40709    68.98601
   226  H   1.0    0.14    0.99    1.43    20.14314    51.86718    71.66368
   227  H   1.0    0.10    0.99    1.43    16.09488    50.59167    68.60531
   228  H   1.0    0.11    0.99    1.43    19.14038    51.17875    67.38453
   229  H   1.0    0.10    0.99    1.43    16.84817    45.98655    68.36841
   230  H   1.0    0.10    0.99    1.43    18.48582    47.04862    65.71836
   231  H   1.0    0.12    0.99    1.43    20.81176    44.46233    69.68103
   232  H   1.0    0.10    0.99    1.43    22.41527    46.52982    67.61754
   233  N   5.0   -0.51    3.01    1.93    15.47474    48.10189    73.14354
   234  C   4.0    0.09    3.99    3.61    13.59974    47.67852    75.10384
   235  C   4.0    0.33    3.01    3.02    14.88914    47.07759    77.62890
   236  O   6.0   -0.42    1.00    1.80    14.34932    48.10462    79.61235
   237  C   4.0   -0.02    3.98    3.58    11.86325    45.48274    74.32682
   238  O   6.0   -0.46    1.99    1.83    10.05891    45.15303    76.24416
   239  H   1.0    0.22    1.00    1.43    15.09920    47.43802    71.39712
   240  H   1.0    0.13    0.99    1.43    12.44786    49.37839    75.40305
   241  H   1.0    0.10    0.99    1.43    10.94118    45.96567    72.52987
   242  H   1.0    0.13    0.99    1.43    12.99247    43.75955    74.05328
   243  H   1.0    0.27    0.99    1.43     9.00257    43.72035    75.84283
   244  N   5.0   -0.45    3.01    1.93    16.62162    45.23575    77.44248
   245  C   4.0    0.10    3.99    3.61    17.95998    44.23218    79.59090
   246  C   4.0    0.30    3.02    3.02    19.97250    46.06225    80.55127
   247  O   6.0   -0.46    1.00    1.80    20.29409    46.41146    82.82255
   248  C   4.0   -0.01    3.98    3.59    19.15058    41.72547    78.82053
   249  O   6.0   -0.50    1.99    1.82    20.80244    42.16917    76.76820
   250  H   1.0    0.26    1.00    1.43    16.82789    44.24753    75.82568
   251  H   1.0    0.13    0.99    1.43    16.66343    43.86520    81.16720
   252  H   1.0    0.13    0.99    1.43    20.13082    40.89173    80.44202
   253  H   1.0    0.16    0.99    1.43    17.63742    40.41077    78.30253
   254  H   1.0    0.25    0.99    1.43    20.98463    40.58708    75.88748
   255  N   5.0   -0.45    3.00    1.93    21.31298    47.28722    78.81584
   256  C   4.0    0.02    3.99    3.61    23.30624    48.99136    79.58788
   257  C   4.0    0.10    3.00    3.02    22.53504    50.52952    81.89591
   258  O   6.0   -0.42    1.00    1.80    23.91690    50.74369    83.74722
   259  H   1.0    0.29    1.00    1.43    21.24471    46.77878    76.97999
   260  H   1.0    0.11    0.99    1.43    25.03059    47.94520    80.05666
   261  H   1.0    0.15    0.99    1.43    23.71152    50.25660    78.00843
   262  N   5.0   -0.69    3.00    1.93    18.42497    49.93393    86.49415
   263  C   4.0    0.08    3.98    3.59    18.32650    48.67140    88.91964
   264  C   4.0    0.29    3.01    3.02    20.95586    48.21563    90.04232
   265  O   6.0   -0.39    1.00    1.80    21.28102    48.30267    92.33833
   266  C   4.0   -0.14    3.98    3.59    16.88295    46.16524    88.74960
   267  C   4.0   -0.15    3.98    3.59    14.00744    46.46597    88.80772
   268  C   4.0   -0.03    3.98    3.59    12.90971    47.52671    86.35670
   269  N   5.0   -0.47    3.02    1.93    10.16355    47.52512    86.51128
   270  C   4.0    0.38    3.00    3.02     8.61198    47.82298    84.55000
   271  N   5.0   -0.65    3.02    1.93     6.12248    47.72401    84.94159
   272  N   5.0   -0.63    3.01    1.93     9.47789    48.40960    82.27064
   273  H   1.0    0.31    1.00    1.43    18.35179    48.82523    84.93615
   274  H   1.0    0.12    0.99    1.43    17.38139    49.95127    90.25395
   275  H   1.0    0.13    0.99    1.43    17.47922    45.15149    87.05204
   276  H   1.0    0.14    0.99    1.43    17.43191    44.97919    90.34685
   277  H   1.0    0.14    0.99    1.43    13.21956    44.59074    89.16492
   278  H   1.0    0.12    0.99    1.43    13.51894    47.69228    90.38921
   279  H   1.0    0.12    0.99    1.43    13.57017    49.46377    86.06690
   280  H   1.0    0.13    0.99    1.43    13.55940    46.36600    84.76991
   281  H   1.0    0.24    1.00    1.43     9.43676    46.84543    88.14282
   282  H   1.0    0.26    1.00    1.43     5.39982    47.30491    86.65144
   283  H   1.0    0.27    1.00    1.43     4.92032    47.92265    83.48022
   284  H   1.0    0.31    1.00    1.43    11.33566    48.33435    81.81425
   285  H   1.0    0.28    1.00    1.43     8.27337    48.48806    80.79748
   286  N   5.0   -0.47    3.01    1.93    22.80095    47.70582    88.40829
   287  C   4.0    0.08    3.99    3.61    25.39175    47.35785    89.21887
   288  C   4.0    0.09    3.00    3.02    26.42282    49.81355    90.38125
   289  O   6.0   -0.40    1.00    1.80    27.54974    49.83566    92.39816
   290  C   4.0   -0.09    3.98    3.59    27.03595    46.50337    86.99802
   291  C   4.0   -0.23    3.99    3.60    29.80907    46.41356    87.76407
   292  C   4.0   -0.22    3.98    3.59    26.21103    43.90630    86.05974
   293  H   1.0    0.30    1.00    1.43    22.45384    47.66965    86.53117
   294  H   1.0    0.14    0.99    1.43    25.43911    45.92199    90.71409
   295  H   1.0    0.14    0.99    1.43    26.80147    47.87375    85.46239
   296  H   1.0    0.09    0.99    1.43    30.92033    45.95051    86.10455
   297  H   1.0    0.12    0.99    1.43    30.42430    48.22707    88.50070
   298  H   1.0    0.11    0.99    1.43    30.11697    44.97603    89.20146
   299  H   1.0    0.09    0.99    1.43    27.34625    43.38415    84.43259
   300  H   1.0    0.11    0.99    1.43    26.48717    42.47843    87.51429
   301  H   1.0    0.13    0.99    1.43    24.23009    43.88295    85.50532
   302  N   5.0   -0.70    3.00    1.93    17.16742    36.41874    97.93640
   303  C   4.0    0.07    3.98    3.59    16.88485    35.42417    95.39422
   304  C   4.0    0.29    3.01    3.02    18.76337    36.80852    93.67894
   305  O   6.0   -0.39    1.00    1.80    18.14649    38.43722    92.16650
   306  C   4.0   -0.08    3.98    3.59    14.17792    35.95135    94.55736
   307  C   4.0    0.34    2.99    3.02    13.50181    38.81043    94.73725
   308  O   6.0   -0.42    1.01    1.80    14.10140    39.92305    96.76259
   309  O   6.0   -0.37    1.00    1.80    12.32989    39.80305    92.98412
   310  H   1.0    0.34    1.00    1.43    15.93190    37.96095    98.06754
   311  H   1.0    0.11    0.99    1.43    17.28627    33.38875    95.32969
   312  H   1.0    0.14    0.99    1.43    13.90726    35.30358    92.61824
   313  H   1.0    0.11    0.99    1.43    12.88245    34.90308    95.77824
   314  N   5.0   -0.48    3.01    1.93    21.18532    36.14364    94.11450
   315  C   4.0    0.07    3.99    3.61    23.25632    37.60126    93.04258
   316  C   4.0    0.28    3.01    3.02    24.70986    35.83125    91.27277
   317  O   6.0   -0.42    1.00    1.80    24.29552    35.82828    88.99695
   318  C   4.0   -0.14    4.00    3.63    24.76589    38.92856    95.12644
   319  C   4.0   -0.13    3.98    3.58    26.26488    41.15549    94.09878
   320  S   6.0   -0.15    2.01    3.10    28.91784    40.19949    92.13367
   321  C   4.0   -0.21    3.98    3.58    31.33503    39.95207    94.57845
   322  H   1.0    0.23    1.00    1.43    21.51192    35.11754    95.72186
   323  H   1.0    0.15    0.99    1.43    22.36618    39.01058    91.80619
   324  H   1.0    0.12    0.99    1.43    23.42051    39.62063    96.53641
   325  H   1.0    0.10    0.99    1.43    26.00480    37.60857    96.10967
   326  H   1.0    0.12    0.99    1.43    25.04630    42.30189    92.89702
   327  H   1.0    0.11    0.99    1.43    27.00494    42.30722    95.63741
   328  H   1.0    0.10    0.99    1.43    33.03060    39.30778    93.62741
   329  H   1.0    0.11    0.99    1.43    31.64673    41.79633    95.42157
   330  H   1.0    0.10    0.99    1.43    30.74812    38.59617    96.00260
   331  N   5.0   -0.49    3.00    1.93    26.33102    34.22579    92.37509
   332  C   4.0    0.08    4.00    3.62    27.63418    32.35875    90.86417
   333  C   4.0    0.29    3.01    3.02    25.75360    30.53418    89.65361
   334  O   6.0   -0.44    1.00    1.80    25.92846    29.94047    87.43724
   335  C   4.0   -0.10    3.98    3.58    29.74226    30.97840    92.32562
   336  C   4.0   -0.23    3.98    3.59    31.91143    32.81547    92.84081
   337  C   4.0   -0.23    3.98    3.59    28.83621    29.77864    94.79029
   338  H   1.0    0.22    1.00    1.43    26.50030    34.15174    94.27079
   339  H   1.0    0.13    0.99    1.43    28.49216    33.35452    89.25965
   340  H   1.0    0.11    0.99    1.43    30.41553    29.47591    91.07363
   341  H   1.0    0.09    0.99    1.43    33.46194    31.82141    93.75111
   342  H   1.0    0.10    0.99    1.43    32.58539    33.64004    91.08519
   343  H   1.0    0.10    0.99    1.43    31.27046    34.33150    94.06868
   344  H   1.0    0.09    0.99    1.43    30.38156    28.71431    95.62426
   345  H   1.0    0.09    0.99    1.43    28.25536    31.20168    96.15482
   346  H   1.0    0.11    0.99    1.43    27.27596    28.48466    94.46473
   347  N   5.0   -0.49    3.01    1.93    23.99301    29.52566    91.19707
   348  C   4.0    0.07    4.00    3.61    22.10461    27.81822    90.16735
   349  C   4.0    0.30    3.01    3.02    20.94363    28.93540    87.75556
   350  O   6.0   -0.41    1.00    1.80    20.98422    27.78924    85.75231
   351  C   4.0   -0.16    3.98    3.59    20.08630    27.20409    92.13914
   352  C   4.0   -0.12    3.97    3.58    17.65667    26.25302    90.91795
   353  C   4.0    0.31    2.99    3.02    15.90409    28.49375    90.10276
   354  O   6.0   -0.45    1.00    1.80    15.99023    30.45222    91.43308
   355  O   6.0   -0.39    1.00    1.80    14.53802    28.12940    88.22364
   356  H   1.0    0.24    1.00    1.43    23.61502    30.34675    92.87662
   357  H   1.0    0.12    0.99    1.43    23.05631    26.07387    89.56869
   358  H   1.0    0.09    0.99    1.43    20.82662    25.81788    93.47205
   359  H   1.0    0.13    0.99    1.43    19.59454    28.92232    93.18423
   360  H   1.0    0.13    0.99    1.43    18.02961    25.09710    89.25099
   361  H   1.0    0.11    0.99    1.43    16.54917    25.14086    92.25860
   362  N   5.0   -0.45    3.01    1.93    20.04535    31.30766    88.00771
   363  C   4.0    0.09    4.00    3.63    18.54134    32.35374    85.97162
   364  C   4.0    0.31    3.02    3.02    20.01824    32.35450    83.51591
   365  O   6.0   -0.44    1.00    1.80    19.14543    31.48867    81.53871
   366  C   4.0   -0.08    3.98    3.59    17.75339    35.03772    86.62469
   367  C   4.0    0.33    2.99    3.02    16.66778    36.28336    84.18434
   368  O   6.0   -0.35    1.00    1.80    14.42885    35.80621    83.64794
   369  O   6.0   -0.41    1.00    1.80    18.18022    37.60095    82.95335
   370  H   1.0    0.27    1.00    1.43    19.37753    31.81002    89.73015
   371  H   1.0    0.16    0.99    1.43    16.82290    31.21062    85.66413
   372  H   1.0    0.14    0.99    1.43    16.30219    35.00688    88.09341
   373  H   1.0    0.15    0.99    1.43    19.37266    36.13282    87.28968
   374  N   5.0   -0.47    3.01    1.93    22.34608    33.32386    83.62226
   375  C   4.0    0.08    3.99    3.61    23.69133    33.89627    81.29687
   376  C   4.0    0.27    3.01    3.02    25.04710    31.53585    80.29340
   377  O   6.0   -0.46    1.00    1.80    25.81440    31.45973    78.10453
   378  C   4.0   -0.14    3.98    3.59    25.28460    36.29411    81.66240
   379  C   4.0   -0.10    3.97    3.58    25.63078    37.92803    79.28247
   380  C   4.0   -0.23    3.99    3.60    26.39547    40.59681    80.07189
   381  C   4.0   -0.21    3.98    3.59    27.62288    36.89364    77.47917
   382  H   1.0    0.28    1.00    1.43    22.90260    34.19328    85.22800
   383  H   1.0    0.14    0.99    1.43    22.22967    34.31743    79.87168
   384  H   1.0    0.12    0.99    1.43    24.23160    37.42984    83.03183
   385  H   1.0    0.11    0.99    1.43    27.10681    35.83047    82.50122
   386  H   1.0    0.11    0.99    1.43    23.79844    38.02098    78.31979
   387  H   1.0    0.11    0.99    1.43    26.81195    41.73312    78.41265
   388  H   1.0    0.11    0.99    1.43    24.87117    41.51583    81.09696
   389  H   1.0    0.09    0.99    1.43    28.06680    40.53128    81.26469
   390  H   1.0    0.12    0.99    1.43    27.87778    38.20718    75.91570
   391  H   1.0    0.11    0.99    1.43    29.38017    36.71570    78.51938
   392  H   1.0    0.15    0.99    1.43    27.03796    35.06814    76.75708
   393  N   5.0   -0.48    3.00    1.93    25.31946    29.57524    81.85899
   394  C   4.0    0.09    4.00    3.61    26.06059    27.11065    80.90398
   395  C   4.0    0.28    3.01    3.02    23.78076    25.38352    80.48322
   396  O   6.0   -0.44    1.00    1.80    23.93890    23.08839    80.42593
   397  C   4.0   -0.08    3.98    3.58    28.24952    25.92964    82.42346
   398  C   4.0   -0.16    3.98    3.59    29.66532    23.89197    80.91437
   399  C   4.0   -0.20    3.98    3.59    27.35687    24.82017    84.93193
   400  C   4.0   -0.22    3.98    3.58    30.73624    24.78647    78.39582
   401  H   1.0    0.31    1.00    1.43    24.64515    29.67424    83.64412
   402  H   1.0    0.14    0.99    1.43    26.73071    27.47678    78.96951
   403  H   1.0    0.12    0.99    1.43    29.55162    27.48619    82.83295
   404  H   1.0    0.11    0.99    1.43    31.22121    23.23566    82.09856
   405  H   1.0    0.14    0.99    1.43    28.39803    22.30014    80.61118
   406  H   1.0    0.10    0.99    1.43    28.97473    24.18042    86.02226
   407  H   1.0    0.15    0.99    1.43    26.34016    26.22533    86.02609
   408  H   1.0    0.13    0.99    1.43    26.10212    23.22765    84.60744
   409  H   1.0    0.12    0.99    1.43    31.87415    23.28148    77.58717
   410  H   1.0    0.12    0.99    1.43    29.23498    25.23481    77.06375
   411  H   1.0    0.11    0.99    1.43    31.91949    26.43606    78.69513
   412  N   5.0   -0.46    3.01    1.93    21.64990    26.61270    79.79757
   413  C   4.0    0.08    3.99    3.61    19.48372    25.24799    78.83017
   414  C   4.0    0.28    3.02    3.02    18.74334    26.56975    76.36451
   415  O   6.0   -0.40    1.00    1.80    19.21100    25.60159    74.31846
   416  C   4.0   -0.13    3.98    3.58    17.34913    24.95497    80.76687
   417  C   4.0   -0.11    3.98    3.59    15.59108    22.75881    80.12125
   418  C   4.0    0.28    2.99    3.02    16.62934    20.07981    80.35638
   419  O   6.0   -0.39    1.00    1.80    15.42725    18.29480    79.51134
   420  N   5.0   -0.64    3.00    1.93    18.84077    19.74788    81.53567
   421  H   1.0    0.30    1.00    1.43    21.34337    28.41405    80.34442
   422  H   1.0    0.16    0.99    1.43    20.18965    23.37081    78.30151
   423  H   1.0    0.14    0.99    1.43    18.18915    24.71790    82.64113
   424  H   1.0    0.13    0.99    1.43    16.24860    26.70144    80.88112
   425  H   1.0    0.12    0.99    1.43    13.93412    22.84375    81.35302
   426  H   1.0    0.13    0.99    1.43    14.89280    22.96458    78.18848
   427  H   1.0    0.28    1.00    1.43    19.92361    21.18692    82.13921
   428  H   1.0    0.29    1.00    1.43    19.51413    17.97355    81.70859
   429  N   5.0   -0.49    3.00    1.93    17.72593    28.87588    76.57574
   430  C   4.0    0.07    3.99    3.61    17.08007    30.31363    74.32776
   431  C   4.0    0.29    3.01    3.02    19.24299    30.23160    72.41168
   432  O   6.0   -0.42    1.00    1.80    18.93277    29.59154    70.21749
   433  C   4.0   -0.13    3.98    3.59    16.48562    33.09214    74.93140
   434  C   4.0   -0.11    3.97    3.57    13.67682    33.69574    75.00593
   435  C   4.0    0.32    2.99    3.02    13.11964    36.58511    75.35194
   436  O   6.0   -0.40    1.00    1.80    14.93508    38.03729    75.73293
   437  O   6.0   -0.38    1.00    1.80    10.85306    37.19919    75.14519
   438  H   1.0    0.27    1.00    1.43    17.46821    29.69679    78.27909
   439  H   1.0    0.13    0.99    1.43    15.43582    29.43044    73.42086
   440  H   1.0    0.14    0.99    1.43    17.30859    33.60584    76.75654
   441  H   1.0    0.14    0.99    1.43    17.34824    34.32303    73.51460
   442  H   1.0    0.12    0.99    1.43    12.75459    33.12162    73.24774
   443  H   1.0    0.13    0.99    1.43    12.74895    32.73743    76.58643
   444  N   5.0   -0.47    3.00    1.93    21.48922    31.03496    73.27824
   445  C   4.0    0.03    3.99    3.61    23.51211    31.70484    71.55946
   446  C   4.0    0.29    3.01    3.02    25.30048    29.52996    70.92845
   447  O   6.0   -0.44    1.00    1.80    27.59189    29.80250    70.98054
   448  H   1.0    0.26    1.00    1.43    21.65122    31.59586    75.09044
   449  H   1.0    0.14    0.99    1.43    22.64171    32.36514    69.79821
   450  H   1.0    0.13    0.99    1.43    24.59305    33.25151    72.38133
   451  N   5.0   -0.49    3.01    1.93    24.16035    27.39836    70.19628
   452  C   4.0    0.10    3.99    3.61    25.55504    25.09489    69.73011
   453  C   4.0    0.27    3.01    3.02    25.91023    24.49810    66.91645
   454  O   6.0   -0.41    1.00    1.80    27.61934    23.14963    66.17496
   455  C   4.0   -0.01    3.98    3.58    24.30666    22.84068    71.08616
   456  O   6.0   -0.47    1.99    1.83    26.20893    21.14338    71.81271
   457  H   1.0    0.29    1.00    1.43    22.25176    27.30714    70.30736
   458  H   1.0    0.17    0.99    1.43    27.44940    25.32586    70.52687
   459  H   1.0    0.15    0.99    1.43    23.25657    23.57698    72.71867
   460  H   1.0    0.12    0.99    1.43    22.94443    21.92889    69.81502
   461  H   1.0    0.26    0.99    1.43    25.48870    19.84244    72.86729
   462  N   5.0   -0.48    3.01    1.93    24.14440    25.46173    65.35962
   463  C   4.0    0.07    4.00    3.61    24.24950    24.98633    62.66081
   464  C   4.0    0.27    3.01    3.02    25.53704    27.22670    61.33833
   465  O   6.0   -0.41    1.00    1.80    24.45413    29.20683    60.85630
   466  C   4.0   -0.14    3.98    3.59    21.62989    24.49552    61.54661
   467  C   4.0   -0.14    3.98    3.58    20.32454    22.20405    62.73491
   468  C   4.0   -0.03    3.98    3.59    21.78322    19.71354    62.31064
   469  N   5.0   -0.48    3.02    1.93    20.31525    17.83280    60.94548
   470  C   4.0    0.37    3.01    3.02    18.29394    16.65025    61.85478
   471  N   5.0   -0.65    3.02    1.93    17.20743    14.84085    60.48626
   472  N   5.0   -0.65    3.01    1.93    17.29068    17.30654    64.06766
   473  H   1.0    0.26    1.00    1.43    22.97826    26.83276    65.99141
   474  H   1.0    0.13    0.99    1.43    25.44312    23.31281    62.44841
   475  H   1.0    0.13    0.99    1.43    20.47910    26.18143    61.82081
   476  H   1.0    0.11    0.99    1.43    21.83710    24.21543    59.51627
   477  H   1.0    0.12    0.99    1.43    20.09901    22.57114    64.74896
   478  H   1.0    0.13    0.99    1.43    18.45427    22.04348    61.89104
   479  H   1.0    0.11    0.99    1.43    23.44289    20.06115    61.14916
   480  H   1.0    0.12    0.99    1.43    22.44507    18.93780    64.10888
   481  H   1.0    0.23    1.00    1.43    21.22128    16.96960    59.49867
   482  H   1.0    0.26    1.00    1.43    17.80279    14.45077    58.71564
   483  H   1.0    0.26    1.00    1.43    15.60412    14.00473    61.07765
   484  H   1.0    0.26    1.00    1.43    18.13417    18.60744    65.16748
   485  H   1.0    0.26    1.00    1.43    15.74863    16.41505    64.73473
   486  N   5.0   -0.49    3.01    1.93    27.97663    26.80621    60.79074
   487  C   4.0    0.07    3.99    3.60    29.68016    28.75980    59.88952
   488  C   4.0    0.08    3.00    3.02    29.74830    28.80233    56.97179
   489  O   6.0   -0.41    1.00    1.80    31.54492    28.03299    55.75647
   490  C   4.0   -0.11    3.99    3.60    32.32240    28.29616    60.98166
   491  C   4.0   -0.02    3.03    3.02    33.77083    30.70364    61.37485
   492  C   4.0   -0.07    3.04    3.02    33.19375    32.25399    63.41129
   493  C   4.0   -0.08    3.03    3.02    35.69788    31.39963    59.74532
   494  C   4.0   -0.08    3.03    3.02    34.55044    34.44020    63.83377
   495  C   4.0   -0.09    3.03    3.02    37.06583    33.58589    60.17216
   496  C   4.0   -0.08    3.03    3.02    36.51070    35.08961    62.23321
   497  H   1.0    0.24    1.00    1.43    28.77603    25.13497    61.25551
   498  H   1.0    0.14    0.99    1.43    28.92767    30.58971    60.50933
   499  H   1.0    0.12    0.99    1.43    32.12458    27.33349    62.79472
   500  H   1.0    0.13    0.99    1.43    33.34414    27.08072    59.66798
   501  H   1.0    0.13    1.00    1.43    31.66886    31.72541    64.65772
   502  H   1.0    0.13    1.00    1.43    36.11019    30.23533    58.12264
   503  H   1.0    0.12    1.00    1.43    34.09329    35.67036    65.39109
   504  H   1.0    0.12    1.00    1.43    38.56487    34.10919    58.89015
   505  H   1.0    0.12    1.00    1.43    37.57237    36.78828    62.59247
   506  N   5.0   -0.69    3.00    1.93    24.68476    38.57591    61.75781
   507  C   4.0    0.06    3.98    3.59    26.72002    39.68325    63.19168
   508  C   4.0    0.07    3.00    3.02    29.09330    39.81167    61.52233
   509  O   6.0   -0.39    1.00    1.80    29.96412    37.87210    60.58343
   510  C   4.0   -0.12    3.99    3.60    27.38931    38.08638    65.52094
   511  C   4.0    0.08    3.23    3.04    25.40236    38.11456    67.51027
   512  N   5.0   -0.47    3.14    1.94    25.85443    39.15246    69.83242
   513  C   4.0    0.05    3.36    3.07    22.97270    37.20729    67.62040
   514  C   4.0    0.16    3.43    3.09    23.74591    38.81456    71.21054
   515  N   5.0   -0.39    2.09    1.90    21.96284    37.65549    69.94404
   516  H   1.0    0.29    1.00    1.43    24.97119    36.79836    61.13362
   517  H   1.0    0.11    0.99    1.43    26.06292    41.55296    63.75411
   518  H   1.0    0.13    0.99    1.43    27.78071    36.15791    64.89011
   519  H   1.0    0.12    0.99    1.43    29.12766    38.84783    66.33320
   520  H   1.0    0.28    1.00    1.43    27.44262    40.10323    70.44763
   521  H   1.0    0.11    1.00    1.43    21.84780    36.31570    66.18380
   522  H   1.0    0.10    1.00    1.43    23.60049    39.42263    73.14040
   523  N   5.0   -0.68    3.01    1.93    42.74255    44.32922    63.58593
   524  C   4.0    0.06    3.98    3.58    44.33730    46.57464    63.58550
   525  C   4.0    0.07    3.00    3.02    47.04796    45.65555    63.94710
   526  O   6.0   -0.45    1.00    1.80    47.48095    43.84092    65.33858
   527  C   4.0   -0.13    3.98    3.59    43.41736    48.28148    65.77301
   528  C   4.0   -0.10    3.97    3.58    43.57699    51.16767    65.46001
   529  C   4.0   -0.23    3.98    3.59    46.15185    52.25888    66.17062
   530  C   4.0   -0.23    3.98    3.59    42.73330    52.04806    62.83741
   531  H   1.0    0.32    1.00    1.43    42.61959    43.39321    65.25903
   532  H   1.0    0.10    0.99    1.43    44.07498    47.48245    61.75141
   533  H   1.0    0.14    0.99    1.43    41.41175    47.84074    66.02708
   534  H   1.0    0.14    0.99    1.43    44.37433    47.70454    67.51087
   535  H   1.0    0.12    0.99    1.43    42.20084    51.91330    66.82051
   536  H   1.0    0.10    0.99    1.43    46.13098    54.29919    65.92710
   537  H   1.0    0.10    0.99    1.43    46.60006    51.83906    68.13197
   538  H   1.0    0.10    0.99    1.43    47.65579    51.48078    65.01696
   539  H   1.0    0.10    0.99    1.43    42.20583    54.03256    62.90240
   540  H   1.0    0.10    0.99    1.43    44.22889    51.83802    61.44544
   541  H   1.0    0.11    0.99    1.43    41.09279    50.97490    62.21581
   542  N   5.0   -0.71    3.00    1.93    52.93340    43.48420    66.69542
   543  C   4.0    0.07    3.98    3.59    53.71281    42.81101    69.22929
   544  C   4.0    0.07    3.00    3.02    56.60426    42.65204    69.33829
   545  O   6.0   -0.41    1.00    1.80    57.86628    44.09287    70.62627
   546  C   4.0   -0.09    3.98    3.58    52.53224    40.28529    70.07621
   547  C   4.0   -0.15    3.98    3.58    49.64318    40.46824    70.29500
   548  C   4.0   -0.23    3.98    3.59    53.74128    39.36815    72.53221
   549  C   4.0   -0.22    3.98    3.58    48.67614    42.11181    72.45464
   550  H   1.0    0.26    1.00    1.43    52.98987    42.06710    65.40855
   551  H   1.0    0.13    0.99    1.43    53.13908    44.36261    70.47348
   552  H   1.0    0.10    0.99    1.43    52.92775    38.90602    68.58289
   553  H   1.0    0.13    0.99    1.43    48.91617    41.24260    68.53203
   554  H   1.0    0.11    0.99    1.43    48.90773    38.55089    70.51344
   555  H   1.0    0.10    0.99    1.43    52.84133    37.61529    73.10537
   556  H   1.0    0.11    0.99    1.43    55.74879    39.02455    72.27390
   557  H   1.0    0.11    0.99    1.43    53.51847    40.77833    74.00334
   558  H   1.0    0.14    0.99    1.43    46.62115    42.12928    72.42341
   559  H   1.0    0.10    0.99    1.43    49.31176    41.39918    74.26989
   560  H   1.0    0.11    0.99    1.43    49.30916    44.05123    72.20960
   561  H   1.0    0.29    1.00    1.43    43.89894    21.21373    75.39753
   562  H   1.0    0.13    1.00    1.43    45.57243    23.59272    82.26001
   563  H   1.0    0.29    1.00    1.43    41.95755    35.41213    91.59986
   564  H   1.0    0.12    1.00    1.43    45.59436    30.33463    71.85219
   565  H   1.0    0.30    1.00    1.43    44.32589    29.19996    66.32910
   566  H   1.0    0.13    1.00    1.43    46.44196    29.15969    59.69796
   567  H   1.0    0.29    1.00    1.43    46.80793    37.65460    66.28850
   568  H   1.0    0.12    1.00    1.43    40.78248    44.89521    89.22253
   569  H   1.0    0.29    1.00    1.43    36.70150    52.76114    83.56124
   570  H   1.0    0.14    1.00    1.43    34.06938    48.62604    70.22201
   571  H   1.0    0.32    1.00    1.43    29.24898    48.06045    70.80794
   572  H   1.0    0.16    1.00    1.43    20.85922    51.40206    81.93300
   573  H   1.0    0.29    1.00    1.43    17.10953    51.00320    86.35688
   574  H   1.0    0.15    1.00    1.43    26.17978    51.45860    89.48359
   575  H   1.0    0.29    1.00    1.43    16.76237    35.21342    99.06586
   576  H   1.0    0.14    1.00    1.43    28.27565    29.48204    56.00209
   577  H   1.0    0.29    1.00    1.43    23.28101    38.51788    62.71629
   578  H   1.0    0.12    1.00    1.43    29.93170    41.47393    61.19822
   579  H   1.0    0.30    1.00    1.43    41.15247    44.76212    63.16544
   580  H   1.0    0.11    1.00    1.43    48.46795    46.52662    63.05494
   581  H   1.0    0.33    1.00    1.43    51.32605    44.03930    66.72448
   582  H   1.0    0.12    1.00    1.43    57.51679    41.33700    68.33380

           ------------------------------------------------- 
          |        Self-Consistent Charge Iterations        |
           ------------------------------------------------- 

          ...................................................
          :                      SETUP                      :
          :.................................................:
          :  # basis functions                1437          :
          :  # atomic orbitals                1435          :
          :  # shells                          865          :
          :  # electrons                      1584          :
          :  max. iterations                   250          :
          :  Hamiltonian                  GFN2-xTB          :
          :  restarted?                      false          :
          :  GBSA solvation                   true          :
          :  PC potential                    false          :
          :  electronic temp.          500.0000000     K    :
          :  accuracy                    0.1000000          :
          :  -> integral cutoff          0.3500000E+02      :
          :  -> integral neglect         0.1000000E-08      :
          :  -> SCF convergence          0.1000000E-06 Eh   :
          :  -> wf. convergence          0.1000000E-04 e    :
          :  Broyden damping             0.4000000          :
          ...................................................

 iter      E             dE          RMSdq      gap      omega  full diag
   1   -905.8782558 -0.905878E+03  0.428E+00    2.20       0.0  T
   2   -908.2513410 -0.237309E+01  0.223E+00    1.39       1.0  T
   3   -908.3656091 -0.114268E+00  0.122E+00    1.63       1.0  T
   4   -908.4143360 -0.487269E-01  0.319E-01    0.94       1.0  T
   5   -908.4403441 -0.260081E-01  0.154E-01    1.08       1.0  T
   6   -908.4420419 -0.169774E-02  0.773E-02    1.05       1.0  T
   7   -908.4425708 -0.528994E-03  0.421E-02    1.03       1.0  T
   8   -908.4428576 -0.286738E-03  0.182E-02    1.03       1.0  T
   9   -908.4428876 -0.300611E-04  0.910E-03    1.01       1.0  T
  10   -908.4428956 -0.797827E-05  0.423E-03    1.01       1.0  T
  11   -908.4428972 -0.155679E-05  0.186E-03    1.01       2.2  T
  12   -908.4428975 -0.312263E-06  0.936E-04    1.01       4.4  T
  13   -908.4428976 -0.994424E-07  0.407E-04    1.01      10.2  T
  14   -908.4428976 -0.145136E-07  0.168E-04    1.01      24.7  T
  15   -908.4428976 -0.280443E-08  0.706E-05    1.01      58.7  T
  16   -908.4428976 -0.489536E-09  0.314E-05    1.01     131.9  T

   *** convergence criteria satisfied after 16 iterations ***

         #    Occupation            Energy/Eh            Energy/eV
      -------------------------------------------------------------
         1        2.0000           -0.7441744             -20.2500
       ...           ...                  ...                  ...
       786        2.0000           -0.3627175              -9.8700
       787        2.0000           -0.3608938              -9.8204
       788        2.0000           -0.3556049              -9.6765
       789        2.0000           -0.3526879              -9.5971
       790        2.0000           -0.3501164              -9.5272
       791        2.0000           -0.3446992              -9.3797
       792        2.0000           -0.3415473              -9.2940 (HOMO)
       793        0.0000           -0.3044386              -8.2842 (LUMO)
       794                         -0.2934032              -7.9839
       795                         -0.2911991              -7.9239
       796                         -0.2900118              -7.8916
       797                         -0.2896998              -7.8831
       ...                                ...                  ...
      1435                          0.6824564              18.5706
      -------------------------------------------------------------
                  HL-Gap            0.0371088 Eh            1.0098 eV
             Fermi-level           -0.3228889 Eh           -8.7863 eV

 SCC (total)                   0 d,  0 h,  0 min, 15.517 sec
 SCC setup                      ...        0 min,  0.417 sec (  2.684%)
 Dispersion                     ...        0 min,  0.337 sec (  2.170%)
 integral evaluation            ...        0 min,  1.097 sec (  7.071%)
 zeroth order Hamiltonian       ...        0 min,  0.014 sec (  0.089%)
 iterations                     ...        0 min, 11.432 sec ( 73.673%)
 molecular gradient             ...        0 min,  2.153 sec ( 13.878%)
 printout                       ...        0 min,  0.067 sec (  0.432%)

         :::::::::::::::::::::::::::::::::::::::::::::::::::::
         ::                     SUMMARY                     ::
         :::::::::::::::::::::::::::::::::::::::::::::::::::::
         :: total energy             -897.404384826513 Eh   ::
         :: total w/o Gsasa/hb       -897.303450294494 Eh   ::
         :: gradient norm               0.750039372314 Eh/α ::
         :: HOMO-LUMO gap               1.009780960550 eV   ::
         ::.................................................::
         :: SCC energy               -908.468347484142 Eh   ::
         :: -> isotropic ES             3.161063308122 Eh   ::
         :: -> anisotropic ES          -0.235772317394 Eh   ::
         :: -> anisotropic XC           0.309357949376 Eh   ::
         :: -> dispersion              -0.763364700153 Eh   ::
         :: -> Gsolv                   -1.010328966530 Eh   ::
         ::    -> Gborn                -0.909394434511 Eh   ::
         ::    -> Gsasa                -0.027307318999 Eh   ::
         ::    -> Ghb                  -0.075484656146 Eh   ::
         ::    -> Gshift                0.001857443127 Eh   ::
         :: repulsion energy           10.986473242884 Eh   ::
         :: add. restraining            0.000000000000 Eh   ::
         :::::::::::::::::::::::::::::::::::::::::::::::::::::

           -------------------------------------------------
          |                Property Printout                |
           -------------------------------------------------

    * Orbital Energies and Occupations

         #    Occupation            Energy/Eh            Energy/eV
      -------------------------------------------------------------
         1        2.0000           -0.7441744             -20.2500
       ...           ...                  ...                  ...
       780        2.0000           -0.3727041             -10.1418
       781        2.0000           -0.3716933             -10.1143
       782        2.0000           -0.3709927             -10.0952
       783        2.0000           -0.3690495             -10.0423
       784        2.0000           -0.3682554             -10.0207
       785        2.0000           -0.3677763             -10.0077
       786        2.0000           -0.3627175              -9.8700
       787        2.0000           -0.3608938              -9.8204
       788        2.0000           -0.3556049              -9.6765
       789        2.0000           -0.3526879              -9.5971
       790        2.0000           -0.3501164              -9.5272
       791        2.0000           -0.3446992              -9.3797
       792        2.0000           -0.3415473              -9.2940 (HOMO)
       793        0.0000           -0.3044386              -8.2842 (LUMO)
       794                         -0.2934032              -7.9839
       795                         -0.2911991              -7.9239
       796                         -0.2900118              -7.8916
       797                         -0.2896998              -7.8831
       798                         -0.2893967              -7.8749
       799                         -0.2877683              -7.8306
       800                         -0.2793934              -7.6027
       801                         -0.2755115              -7.4970
       802                         -0.2742259              -7.4621
       803                         -0.2727954              -7.4231
       ...                                ...                  ...
      1435                          0.6824564              18.5706
      -------------------------------------------------------------
                  HL-Gap            0.0371088 Eh            1.0098 eV
             Fermi-level           -0.3228889 Eh           -8.7863 eV

   #   Z        covCN         q      C6AA      α(0)
   1   7 N      2.637    -0.380    29.815     8.110
   2   6 C      3.782     0.032    20.058     6.380
   3   6 C      2.766     0.205    23.646     7.964
   4   8 O      0.856    -0.374    21.165     6.168
   5   6 C      3.829    -0.063    21.690     6.627
   6   6 C      3.796    -0.019    20.911     6.511
   7  16 S      1.964    -0.238   151.242    20.699
   8   6 C      3.744    -0.058    21.686     6.643
   9   1 H      0.860     0.160     1.338     1.812
  10   1 H      0.925     0.070     2.086     2.258
  11   1 H      0.924     0.055     2.260     2.351
  12   1 H      0.924     0.041     2.435     2.440
  13   1 H      0.925     0.059     2.213     2.326
  14   1 H      0.925     0.063     2.158     2.297
  15   1 H      0.925     0.053     2.277     2.360
  16   1 H      0.925     0.072     2.068     2.249
  17   1 H      0.925     0.046     2.375     2.410
  18   7 N      2.634    -0.397    30.282     8.173
  19   6 C      3.787     0.031    20.064     6.380
  20   6 C      2.757     0.274    22.370     7.745
  21   8 O      0.859    -0.472    23.178     6.455
  22   6 C      3.809    -0.079    21.996     6.676
  23   6 C      2.968     0.001    27.999     8.679
  24   6 C      2.924    -0.051    29.262     8.871
  25   6 C      2.925    -0.042    29.042     8.838
  26   6 C      2.920    -0.048    29.185     8.859
  27   6 C      2.919    -0.033    28.833     8.805
  28   6 C      2.918    -0.044    29.085     8.844
  29   1 H      0.860     0.180     1.215     1.727
  30   1 H      0.924     0.039     2.463     2.454
  31   1 H      0.924     0.043     2.409     2.427
  32   1 H      0.925     0.049     2.327     2.386
  33   1 H      0.926     0.043     2.410     2.427
  34   1 H      0.926     0.030     2.587     2.515
  35   1 H      0.926     0.054     2.267     2.355
  36   1 H      0.926     0.028     2.619     2.531
  37   1 H      0.926     0.048     2.349     2.397
  38   7 N      2.691    -0.162    24.503     7.352
  39   6 C      3.797     0.001    20.573     6.458
  40   6 C      2.761     0.267    22.489     7.766
  41   8 O      0.858    -0.471    23.156     6.452
  42   6 C      3.807    -0.087    22.154     6.700
  43   6 C      3.800    -0.079    22.011     6.680
  44   6 C      3.802    -0.093    22.279     6.720
  45   6 C      3.730    -0.049    21.545     6.626
  46   7 N      3.481    -0.168    24.631     7.371
  47   1 H      0.860     0.202     1.097     1.640
  48   1 H      0.924     0.090     1.880     2.144
  49   1 H      0.924     0.076     2.018     2.222
  50   1 H      0.924     0.064     2.151     2.294
  51   1 H      0.924     0.054     2.276     2.359
  52   1 H      0.924     0.061     2.186     2.312
  53   1 H      0.925     0.077     2.007     2.216
  54   1 H      0.925     0.074     2.043     2.235
  55   1 H      0.925     0.111     1.686     2.031
  56   1 H      0.925     0.112     1.679     2.026
  57   1 H      0.859     0.287     0.752     1.358
  58   1 H      0.859     0.284     0.764     1.369
  59   1 H      0.856     0.304     0.701     1.312
  60   7 N      2.689    -0.167    24.621     7.369
  61   6 C      3.795     0.012    20.375     6.428
  62   6 C      2.766     0.191    23.912     8.008
  63   8 O      0.856    -0.352    20.742     6.106
  64   6 C      3.804    -0.076    21.954     6.670
  65   6 C      3.809    -0.112    22.632     6.772
  66   6 C      2.743     0.285    22.178     7.711
  67   8 O      0.859    -0.497    23.723     6.530
  68   7 N      2.639    -0.262    26.800     7.689
  69   1 H      0.860     0.228     0.973     1.545
  70   1 H      0.924     0.107     1.724     2.053
  71   1 H      0.925     0.078     2.003     2.213
  72   1 H      0.924     0.068     2.113     2.273
  73   1 H      0.925     0.078     1.999     2.211
  74   1 H      0.924     0.085     1.925     2.170
  75   1 H      0.860     0.211     1.051     1.606
  76   1 H      0.860     0.218     1.020     1.582
  77   7 N      2.633    -0.377    29.740     8.099
  78   6 C      3.782     0.036    19.986     6.368
  79   6 C      2.766     0.203    23.687     7.971
  80   8 O      0.856    -0.379    21.273     6.184
  81   6 C      3.815    -0.074    21.904     6.661
  82   6 C      2.972     0.002    27.980     8.677
  83   6 C      2.929    -0.048    29.192     8.861
  84   6 C      2.926    -0.040    28.999     8.831
  85   6 C      2.918    -0.085    30.122     9.000
  86   6 C      2.919    -0.058    29.450     8.899
  87   6 C      2.850     0.137    25.006     8.196
  88   8 O      1.659    -0.416    21.167     6.211
  89   1 H      0.860     0.164     1.308     1.792
  90   1 H      0.924     0.067     2.121     2.278
  91   1 H      0.924     0.052     2.295     2.369
  92   1 H      0.924     0.040     2.444     2.445
  93   1 H      0.926     0.050     2.314     2.379
  94   1 H      0.926     0.042     2.422     2.434
  95   1 H      0.926     0.045     2.377     2.411
  96   1 H      0.926     0.050     2.319     2.381
  97   1 H      0.805     0.329     0.640     1.256
  98   7 N      2.632    -0.387    30.010     8.136
  99   6 C      3.737    -0.020    21.014     6.541
 100   6 C      2.751     0.272    22.401     7.750
 101   8 O      0.858    -0.490    23.574     6.510
 102   1 H      0.860     0.162     1.325     1.803
 103   1 H      0.924     0.059     2.215     2.327
 104   1 H      0.924     0.065     2.146     2.291
 105   7 N      2.693    -0.180    24.904     7.412
 106   6 C      3.794     0.012    20.380     6.429
 107   6 C      2.758     0.262    22.580     7.782
 108   8 O      0.859    -0.447    22.637     6.379
 109   6 C      3.806    -0.072    21.880     6.659
 110   6 C      3.800    -0.087    22.163     6.703
 111   6 C      3.741    -0.026    21.115     6.556
 112   7 N      2.697    -0.147    24.190     7.305
 113   6 C      2.737     0.213    23.498     7.937
 114   7 N      2.651    -0.234    26.119     7.590
 115   7 N      2.651    -0.228    25.985     7.571
 116   1 H      0.860     0.226     0.983     1.553
 117   1 H      0.924     0.070     2.088     2.260
 118   1 H      0.924     0.045     2.378     2.411
 119   1 H      0.925     0.051     2.308     2.376
 120   1 H      0.924     0.076     2.023     2.224
 121   1 H      0.925     0.087     1.904     2.158
 122   1 H      0.924     0.069     2.092     2.262
 123   1 H      0.924     0.081     1.966     2.193
 124   1 H      0.860     0.233     0.952     1.529
 125   1 H      0.860     0.255     0.866     1.458
 126   1 H      0.860     0.228     0.973     1.545
 127   1 H      0.860     0.242     0.913     1.497
 128   1 H      0.860     0.230     0.967     1.540
 129   7 N      2.693    -0.157    24.400     7.336
 130   6 C      3.799    -0.001    20.604     6.463
 131   6 C      2.755     0.266    22.505     7.768
 132   8 O      0.858    -0.496    23.687     6.525
 133   6 C      3.802    -0.085    22.124     6.697
 134   6 C      3.806    -0.113    22.649     6.775
 135   6 C      2.743     0.281    22.236     7.721
 136   8 O      0.861    -0.496    23.687     6.525
 137   7 N      2.637    -0.259    26.717     7.677
 138   1 H      0.860     0.185     1.184     1.704
 139   1 H      0.924     0.107     1.720     2.051
 140   1 H      0.924     0.079     1.989     2.205
 141   1 H      0.924     0.063     2.161     2.299
 142   1 H      0.924     0.090     1.875     2.141
 143   1 H      0.924     0.107     1.720     2.051
 144   1 H      0.860     0.214     1.040     1.597
 145   1 H      0.860     0.246     0.900     1.486
 146   7 N      2.697    -0.165    24.576     7.363
 147   6 C      3.794     0.019    20.256     6.409
 148   6 C      2.771     0.200    23.746     7.981
 149   8 O      0.856    -0.339    20.497     6.070
 150   6 C      3.855    -0.019    20.879     6.499
 151   6 C      3.756    -0.126    22.968     6.833
 152   6 C      3.755    -0.120    22.857     6.817
 153   1 H      0.860     0.255     0.864     1.456
 154   1 H      0.924     0.073     2.052     2.240
 155   1 H      0.924     0.067     2.114     2.274
 156   1 H      0.925     0.056     2.248     2.345
 157   1 H      0.925     0.043     2.413     2.429
 158   1 H      0.925     0.045     2.384     2.414
 159   1 H      0.925     0.054     2.276     2.359
 160   1 H      0.925     0.037     2.486     2.466
 161   1 H      0.925     0.052     2.294     2.368
 162   7 N      2.640    -0.386    29.976     8.131
 163   6 C      3.789     0.024    20.185     6.399
 164   6 C      2.758     0.278    22.299     7.733
 165   8 O      0.858    -0.507    23.942     6.560
 166   6 C      3.851    -0.025    20.993     6.517
 167   6 C      3.802    -0.049    21.460     6.595
 168   6 C      3.754    -0.106    22.587     6.777
 169   6 C      3.752    -0.102    22.506     6.765
 170   1 H      0.860     0.155     1.369     1.833
 171   1 H      0.924     0.054     2.271     2.356
 172   1 H      0.924     0.032     2.559     2.501
 173   1 H      0.924     0.022     2.696     2.568
 174   1 H      0.924     0.021     2.712     2.575
 175   1 H      0.925     0.022     2.700     2.569
 176   1 H      0.925     0.037     2.490     2.467
 177   1 H      0.925     0.048     2.350     2.397
 178   1 H      0.925     0.037     2.487     2.466
 179   1 H      0.925     0.046     2.374     2.410
 180   1 H      0.925     0.025     2.653     2.547
 181   7 N      2.690    -0.206    25.488     7.498
 182   6 C      3.796     0.017    20.288     6.414
 183   6 C      2.749     0.266    22.511     7.769
 184   8 O      0.858    -0.436    22.422     6.349
 185   6 C      3.809    -0.077    21.967     6.672
 186   6 C      3.848    -0.010    20.718     6.474
 187   6 C      3.756    -0.114    22.731     6.798
 188   6 C      3.758    -0.125    22.952     6.830
 189   1 H      0.860     0.235     0.942     1.521
 190   1 H      0.924     0.074     2.041     2.234
 191   1 H      0.924     0.063     2.159     2.298
 192   1 H      0.925     0.062     2.172     2.305
 193   1 H      0.924     0.036     2.507     2.476
 194   1 H      0.925     0.045     2.385     2.415
 195   1 H      0.925     0.020     2.734     2.586
 196   1 H      0.925     0.045     2.388     2.417
 197   1 H      0.925     0.051     2.313     2.378
 198   1 H      0.925     0.052     2.297     2.370
 199   1 H      0.925     0.053     2.280     2.361
 200   7 N      2.690    -0.169    24.656     7.375
 201   6 C      3.736    -0.020    21.017     6.542
 202   6 C      2.764     0.206    23.629     7.961
 203   8 O      0.856    -0.354    20.785     6.112
 204   1 H      0.860     0.179     1.222     1.731
 205   1 H      0.924     0.118     1.627     1.994
 206   1 H      0.924     0.092     1.862     2.134
 207   7 N      2.642    -0.383    29.911     8.123
 208   6 C      3.784     0.050    19.761     6.332
 209   6 C      2.765     0.256    22.699     7.803
 210   8 O      0.859    -0.496    23.692     6.526
 211   6 C      3.798    -0.094    22.286     6.722
 212   6 C      2.683     0.367    20.777     7.459
 213   8 O      0.856    -0.599    26.104     6.850
 214   8 O      0.856    -0.599    26.095     6.849
 215   1 H      0.860     0.158     1.347     1.818
 216   1 H      0.924     0.025     2.663     2.552
 217   1 H      0.924     0.011     2.875     2.651
 218   1 H      0.925     0.001     3.042     2.727
 219   7 N      2.752    -0.100    23.200     7.154
 220   6 C      3.818     0.012    20.362     6.422
 221   6 C      2.750     0.273    22.390     7.748
 222   8 O      0.859    -0.468    23.086     6.442
 223   6 C      3.828    -0.087    22.143     6.696
 224   6 C      3.820    -0.077    21.957     6.668
 225   6 C      3.762    -0.007    20.746     6.493
 226   1 H      0.924     0.091     1.872     2.140
 227   1 H      0.925     0.080     1.980     2.200
 228   1 H      0.925     0.090     1.881     2.145
 229   1 H      0.925     0.052     2.296     2.369
 230   1 H      0.925     0.090     1.876     2.142
 231   1 H      0.924     0.046     2.368     2.407
 232   1 H      0.924     0.069     2.091     2.262
 233   7 N      2.689    -0.188    25.075     7.437
 234   6 C      3.795     0.011    20.397     6.431
 235   6 C      2.754     0.294    22.017     7.684
 236   8 O      0.858    -0.462    22.960     6.424
 237   6 C      3.677     0.075    19.543     6.333
 238   8 O      1.656    -0.470    22.265     6.370
 239   1 H      0.860     0.219     1.012     1.576
 240   1 H      0.923     0.106     1.727     2.055
 241   1 H      0.923     0.067     2.119     2.277
 242   1 H      0.923     0.023     2.694     2.567
 243   1 H      0.805     0.341     0.609     1.226
 244   7 N      2.695    -0.179    24.875     7.407
 245   6 C      3.795     0.043    19.863     6.346
 246   6 C      2.762     0.281    22.239     7.723
 247   8 O      0.859    -0.485    23.448     6.492
 248   6 C      3.682     0.088    19.322     6.295
 249   8 O      1.655    -0.446    21.760     6.297
 250   1 H      0.860     0.204     1.085     1.632
 251   1 H      0.924     0.040     2.452     2.449
 252   1 H      0.924     0.030     2.593     2.518
 253   1 H      0.924     0.039     2.468     2.457
 254   1 H      0.805     0.316     0.673     1.289
 255   7 N      2.688    -0.132    23.860     7.255
 256   6 C      3.747    -0.020    21.006     6.537
 257   6 C      2.763     0.213    23.484     7.936
 258   8 O      0.856    -0.361    20.921     6.132
 259   1 H      0.860     0.207     1.071     1.621
 260   1 H      0.924     0.083     1.947     2.182
 261   1 H      0.924     0.137     1.483     1.905
 262   7 N      2.634    -0.389    30.070     8.144
 263   6 C      3.785     0.029    20.107     6.387
 264   6 C      2.756     0.270    22.434     7.756
 265   8 O      0.859    -0.519    24.213     6.597
 266   6 C      3.805    -0.050    21.464     6.596
 267   6 C      3.803    -0.066    21.773     6.643
 268   6 C      3.737    -0.008    20.804     6.509
 269   7 N      2.701    -0.150    24.251     7.314
 270   6 C      2.736     0.235    23.077     7.865
 271   7 N      2.654    -0.259    26.732     7.679
 272   7 N      2.650    -0.236    26.170     7.598
 273   1 H      0.860     0.157     1.356     1.824
 274   1 H      0.923     0.059     2.213     2.326
 275   1 H      0.924     0.023     2.694     2.567
 276   1 H      0.924     0.010     2.898     2.662
 277   1 H      0.924     0.032     2.563     2.504
 278   1 H      0.925     0.069     2.091     2.262
 279   1 H      0.924     0.092     1.864     2.135
 280   1 H      0.924     0.049     2.333     2.389
 281   1 H      0.860     0.223     0.994     1.562
 282   1 H      0.860     0.251     0.878     1.468
 283   1 H      0.860     0.268     0.816     1.415
 284   1 H      0.860     0.236     0.938     1.517
 285   1 H      0.860     0.255     0.864     1.456
 286   7 N      2.690    -0.168    24.645     7.373
 287   6 C      3.797     0.035    19.995     6.367
 288   6 C      2.764     0.210    23.553     7.948
 289   8 O      0.856    -0.352    20.745     6.107
 290   6 C      3.854    -0.017    20.847     6.494
 291   6 C      3.758    -0.124    22.921     6.826
 292   6 C      3.757    -0.105    22.560     6.772
 293   1 H      0.860     0.216     1.029     1.589
 294   1 H      0.924     0.062     2.173     2.305
 295   1 H      0.924     0.062     2.176     2.307
 296   1 H      0.925     0.069     2.094     2.263
 297   1 H      0.925     0.050     2.321     2.383
 298   1 H      0.925     0.069     2.100     2.266
 299   1 H      0.925     0.065     2.143     2.289
 300   1 H      0.925     0.039     2.465     2.455
 301   1 H      0.925     0.008     2.925     2.675
 302   7 N      2.638    -0.452    31.870     8.384
 303   6 C      3.788     0.058    19.616     6.308
 304   6 C      2.758     0.288    22.124     7.703
 305   8 O      0.858    -0.519    24.210     6.597
 306   6 C      3.805    -0.070    21.830     6.651
 307   6 C      2.684     0.381    20.555     7.420
 308   8 O      0.860    -0.612    26.407     6.890
 309   8 O      0.856    -0.627    26.795     6.940
 310   1 H      0.861     0.208     1.068     1.619
 311   1 H      0.923     0.007     2.946     2.684
 312   1 H      0.924    -0.027     3.569     2.954
 313   1 H      0.924     0.012     2.861     2.645
 314   7 N      2.693    -0.216    25.705     7.530
 315   6 C      3.796     0.036    19.971     6.363
 316   6 C      2.761     0.278    22.294     7.732
 317   8 O      0.859    -0.510    24.014     6.570
 318   6 C      3.827    -0.071    21.832     6.649
 319   6 C      3.796    -0.005    20.673     6.474
 320  16 S      1.965    -0.222   150.530    20.650
 321   6 C      3.744    -0.079    22.077     6.703
 322   1 H      0.859     0.217     1.024     1.585
 323   1 H      0.923     0.048     2.347     2.396
 324   1 H      0.924     0.051     2.306     2.375
 325   1 H      0.925     0.073     2.054     2.241
 326   1 H      0.925     0.012     2.858     2.644
 327   1 H      0.925     0.073     2.052     2.240
 328   1 H      0.926     0.109     1.703     2.041
 329   1 H      0.925     0.078     2.003     2.213
 330   1 H      0.925     0.071     2.077     2.254
 331   7 N      2.688    -0.167    24.608     7.368
 332   6 C      3.802     0.011    20.394     6.429
 333   6 C      2.757     0.277    22.307     7.734
 334   8 O      0.859    -0.464    22.999     6.430
 335   6 C      3.850    -0.025    20.979     6.515
 336   6 C      3.756    -0.132    23.093     6.852
 337   6 C      3.754    -0.133    23.112     6.855
 338   1 H      0.860     0.217     1.021     1.583
 339   1 H      0.924     0.100     1.781     2.087
 340   1 H      0.924     0.072     2.066     2.248
 341   1 H      0.925     0.080     1.977     2.199
 342   1 H      0.925     0.062     2.173     2.305
 343   1 H      0.925     0.058     2.222     2.331
 344   1 H      0.925     0.085     1.925     2.170
 345   1 H      0.925     0.046     2.374     2.409
 346   1 H      0.925     0.038     2.477     2.461
 347   7 N      2.688    -0.191    25.147     7.448
 348   6 C      3.799     0.026    20.133     6.389
 349   6 C      2.760     0.304    21.846     7.654
 350   8 O      0.858    -0.482    23.390     6.484
 351   6 C      3.805    -0.066    21.765     6.642
 352   6 C      3.798    -0.096    22.335     6.729
 353   6 C      2.683     0.373    20.679     7.442
 354   8 O      0.856    -0.661    27.679     7.054
 355   8 O      0.856    -0.656    27.545     7.037
 356   1 H      0.860     0.196     1.124     1.661
 357   1 H      0.923     0.091     1.873     2.140
 358   1 H      0.924     0.084     1.934     2.175
 359   1 H      0.924     0.038     2.472     2.459
 360   1 H      0.924     0.025     2.666     2.553
 361   1 H      0.924     0.047     2.355     2.400
 362   7 N      2.690    -0.218    25.754     7.537
 363   6 C      3.806     0.090    19.090     6.220
 364   6 C      2.764     0.301    21.899     7.664
 365   8 O      0.859    -0.529    24.433     6.627
 366   6 C      3.806    -0.066    21.754     6.640
 367   6 C      2.687     0.375    20.651     7.437
 368   8 O      0.856    -0.650    27.384     7.016
 369   8 O      0.856    -0.622    26.670     6.924
 370   1 H      0.860     0.186     1.178     1.700
 371   1 H      0.923     0.001     3.034     2.724
 372   1 H      0.924    -0.014     3.316     2.848
 373   1 H      0.924     0.016     2.790     2.612
 374   7 N      2.691    -0.182    24.940     7.417
 375   6 C      3.796     0.045    19.828     6.341
 376   6 C      2.755     0.261    22.598     7.784
 377   8 O      0.859    -0.465    23.018     6.433
 378   6 C      3.806    -0.069    21.815     6.649
 379   6 C      3.848     0.000    20.544     6.447
 380   6 C      3.759    -0.108    22.611     6.779
 381   6 C      3.757    -0.138    23.217     6.870
 382   1 H      0.860     0.203     1.091     1.636
 383   1 H      0.923     0.041     2.435     2.440
 384   1 H      0.924     0.033     2.540     2.492
 385   1 H      0.925     0.079     1.992     2.207
 386   1 H      0.924    -0.002     3.087     2.748
 387   1 H      0.925     0.047     2.363     2.404
 388   1 H      0.925     0.011     2.875     2.652
 389   1 H      0.925     0.063     2.163     2.300
 390   1 H      0.925     0.054     2.275     2.359
 391   1 H      0.925     0.069     2.096     2.264
 392   1 H      0.925     0.067     2.120     2.277
 393   7 N      2.686    -0.165    24.563     7.361
 394   6 C      3.799     0.011    20.399     6.431
 395   6 C      2.753     0.279    22.284     7.730
 396   8 O      0.859    -0.442    22.537     6.365
 397   6 C      3.849    -0.020    20.905     6.503
 398   6 C      3.804    -0.075    21.939     6.668
 399   6 C      3.756    -0.120    22.857     6.817
 400   6 C      3.751    -0.127    23.009     6.841
 401   1 H      0.860     0.193     1.140     1.673
 402   1 H      0.923     0.109     1.708     2.044
 403   1 H      0.924     0.062     2.173     2.305
 404   1 H      0.924     0.069     2.093     2.262
[...]
   247  O   1.979        C  246 1.590    N  255 0.198
   248  C   3.960        O  249 1.000    C  245 0.976    H  253 0.965    H  252 0.964
   249  O   1.948        C  248 1.000    H  254 0.878
   250  H   0.958        N  244 0.921
   251  H   0.998        C  245 0.954
   252  H   0.999        C  248 0.964
   253  H   0.998        C  248 0.965
   254  H   0.900        O  249 0.878
   255  N   3.505        C  246 1.340    C  256 0.980    H  259 0.922    O  247 0.198
   256  C   3.953        C  257 0.997    N  255 0.980    H  260 0.956    H  261 0.921
   257  C   3.910        O  258 1.869    C  256 0.997    H  572 0.953
   258  O   2.038        C  257 1.869
   259  H   0.957        N  255 0.922
   260  H   0.993        C  256 0.956
   261  H   0.981        C  256 0.921
   262  N   3.001        C  263 1.023    H  573 0.947    H  273 0.938
   263  C   3.987        N  262 1.023    C  266 0.972    H  274 0.958    C  264 0.938
   264  C   3.945        O  265 1.613    N  286 1.319    C  263 0.938
   265  O   1.921        C  264 1.613    N  286 0.196
   266  C   3.992        C  267 1.001    H  276 0.975    H  275 0.972    C  263 0.972
   267  C   3.992        C  268 1.009    C  266 1.001    H  277 0.975    H  278 0.972
   268  C   3.965        C  267 1.009    N  269 0.987    H  280 0.964    H  279 0.955
   269  N   3.451        C  270 1.297    C  268 0.987    H  281 0.916
   270  C   3.976        N  272 1.339    N  271 1.311    N  269 1.297
   271  N   3.377        C  270 1.311    H  282 0.918    H  283 0.909    N  272 0.105
   272  N   3.413        C  270 1.339    H  285 0.914    H  284 0.900    N  271 0.105
   273  H   0.975        N  262 0.938
   274  H   0.996        C  263 0.958
   275  H   0.999        C  266 0.972
   276  H   1.000        C  266 0.975
   277  H   0.999        C  267 0.975
   278  H   0.995        C  267 0.972
   279  H   0.992        C  268 0.955
   280  H   0.998        C  268 0.964
   281  H   0.950        N  269 0.916
   282  H   0.937        N  271 0.918
   283  H   0.928        N  271 0.909
   284  H   0.944        N  272 0.900
   285  H   0.935        N  272 0.914
   286  N   3.484        C  264 1.319    C  287 0.972    H  293 0.909    O  265 0.196
   287  C   3.958        N  286 0.972    C  288 0.968    C  290 0.954    H  294 0.948
   288  C   3.901        O  289 1.905    C  287 0.968    H  574 0.953
   289  O   2.045        C  288 1.905
   290  C   3.982        C  292 1.007    C  291 1.005    H  295 0.958    C  287 0.954
   291  C   3.988        C  290 1.005    H  297 0.982    H  298 0.980    H  296 0.980
   292  C   3.993        C  290 1.007    H  301 0.984    H  300 0.984    H  299 0.976
   293  H   0.953        N  286 0.909
   294  H   0.996        C  287 0.948
   295  H   0.996        C  290 0.958
   296  H   0.995        C  291 0.980
   297  H   0.997        C  291 0.982
   298  H   0.995        C  291 0.980
   299  H   0.994        C  292 0.976
   300  H   0.998        C  292 0.984
   301  H   1.000        C  292 0.984
   302  N   2.955        C  303 1.013    H  575 0.955    H  310 0.851
   303  C   3.992        N  302 1.013    C  306 0.987    H  311 0.957    C  304 0.936
   304  C   3.928        O  305 1.657    N  314 1.263    C  303 0.936
   305  O   1.959        C  304 1.657    N  314 0.183
   306  C   3.987        C  303 0.987    H  312 0.978    H  313 0.967    C  307 0.922
   307  C   3.932        O  309 1.541    O  308 1.442    C  306 0.922
   308  O   1.857        C  307 1.442    O  309 0.206
   309  O   1.825        C  307 1.541    O  308 0.206
   310  H   0.957        N  302 0.851
   311  H   1.000        C  303 0.957
   312  H   0.999        C  306 0.978
   313  H   0.999        C  306 0.967
   314  N   3.407        C  304 1.263    C  315 0.955    H  322 0.919    O  305 0.183
   315  C   3.945        C  318 0.982    H  323 0.956    N  314 0.955    C  316 0.931
   316  C   3.948        O  317 1.630    N  331 1.303    C  315 0.931
   317  O   1.954        C  316 1.630    N  331 0.199
   318  C   3.988        C  319 1.013    C  315 0.982    H  324 0.966    H  325 0.964
   319  C   3.982        C  318 1.013    S  320 0.987    H  326 0.972    H  327 0.970
   320  S   2.090        C  321 1.009    C  319 0.987
   321  C   3.958        S  320 1.009    H  329 0.979    H  330 0.979    H  328 0.970
   322  H   0.953        N  314 0.919
   323  H   0.997        C  315 0.956
   324  H   0.997        C  318 0.966
   325  H   0.995        C  318 0.964
   326  H   1.000        C  319 0.972
   327  H   0.994        C  319 0.970
   328  H   0.988        C  321 0.970
   329  H   0.994        C  321 0.979
   330  H   0.995        C  321 0.979
   331  N   3.467        C  316 1.303    C  332 0.971    H  338 0.907    O  317 0.199
   332  C   3.942        N  331 0.971    C  335 0.953    H  339 0.945    C  333 0.938
   333  C   3.932        O  334 1.653    N  347 1.251    C  332 0.938
   334  O   1.993        C  333 1.653    N  347 0.180
   335  C   3.975        C  337 1.010    C  336 1.004    H  340 0.962    C  332 0.953
   336  C   3.986        C  335 1.004    H  342 0.983    H  343 0.982    H  341 0.980
   337  C   3.991        C  335 1.010    H  346 0.983    H  345 0.979    H  344 0.978
   338  H   0.953        N  331 0.907
   339  H   0.990        C  332 0.945
   340  H   0.994        C  335 0.962
   341  H   0.992        C  336 0.980
   342  H   0.996        C  336 0.983
   343  H   0.997        C  336 0.982
   344  H   0.993        C  337 0.978
   345  H   0.998        C  337 0.979
   346  H   0.999        C  337 0.983
   347  N   3.423        C  333 1.251    C  348 0.983    H  356 0.923    O  334 0.180
   348  C   3.970        C  351 0.985    N  347 0.983    H  357 0.952    C  349 0.932
   349  C   3.924        O  350 1.654    N  362 1.249    C  348 0.932
   350  O   1.963        C  349 1.654    N  362 0.171
   351  C   3.989        C  352 1.009    C  348 0.985    H  358 0.971    H  359 0.965
   352  C   3.994        C  351 1.009    H  360 0.978    H  361 0.964    C  353 0.914
   353  C   3.921        O  355 1.508    O  354 1.471    C  352 0.914
   354  O   1.787        C  353 1.471    O  355 0.206
   355  O   1.800        C  353 1.508    O  354 0.206
   356  H   0.961        N  347 0.923
   357  H   0.991        C  348 0.952
   358  H   0.993        C  351 0.971
   359  H   0.998        C  351 0.965
   360  H   0.999        C  352 0.978
   361  H   0.997        C  352 0.964
   362  N   3.396        C  349 1.249    C  363 0.973    H  370 0.912    O  350 0.171
   363  C   3.973        C  366 0.975    N  362 0.973    H  371 0.954    C  364 0.950
   364  C   3.946        O  365 1.582    N  374 1.325    C  363 0.950
   365  O   1.905        C  364 1.582    N  374 0.181
   366  C   3.983        H  373 0.976    C  363 0.975    H  372 0.974    C  367 0.904
   367  C   3.937        O  368 1.508    O  369 1.501    C  366 0.904
   368  O   1.798        C  367 1.508    O  369 0.219
   369  O   1.798        C  367 1.501    O  368 0.219
   370  H   0.965        N  362 0.912
   371  H   1.000        C  363 0.954
   372  H   0.999        C  366 0.974
   373  H   1.000        C  366 0.976
   374  N   3.461        C  364 1.325    C  375 0.955    H  382 0.917    O  365 0.181
   375  C   3.936        C  378 0.973    N  374 0.955    H  383 0.942    C  376 0.940
   376  C   3.959        O  377 1.599    N  393 1.329    C  375 0.940
   377  O   1.946        C  376 1.599    N  393 0.198
   378  C   3.977        C  379 0.989    C  375 0.973    H  385 0.971    H  384 0.969
   379  C   3.988        C  381 1.008    C  380 1.006    C  378 0.989    H  386 0.965
   380  C   3.994        C  379 1.006    H  388 0.985    H  387 0.983    H  389 0.981
   381  C   3.988        C  379 1.008    H  390 0.983    H  391 0.979    H  392 0.974
   382  H   0.959        N  374 0.917
   383  H   0.998        C  375 0.942
   384  H   0.998        C  378 0.969
   385  H   0.994        C  378 0.971
   386  H   1.000        C  379 0.965
   387  H   0.997        C  380 0.983
   388  H   1.000        C  380 0.985
   389  H   0.996        C  380 0.981
   390  H   0.997        C  381 0.983
   391  H   0.995        C  381 0.979
   392  H   0.995        C  381 0.974
   393  N   3.497        C  376 1.329    C  394 0.966    H  401 0.913    O  377 0.198
   394  C   3.937        N  393 0.966    C  397 0.964    C  395 0.943    H  402 0.913
   395  C   3.938        O  396 1.664    N  412 1.247    C  394 0.943
   396  O   1.987        C  395 1.664    N  412 0.182
   397  C   3.977        C  399 1.010    C  398 0.990    C  394 0.964    H  403 0.963
   398  C   3.987        C  400 1.020    C  397 0.990    H  405 0.974    H  404 0.970
   399  C   3.994        C  397 1.010    H  408 0.985    H  406 0.983    H  407 0.974
   400  C   3.993        C  398 1.020    H  410 0.981    H  411 0.981    H  409 0.980
   401  H   0.963        N  393 0.913
   402  H   0.988        C  394 0.913
   403  H   0.995        C  397 0.963
   404  H   0.994        C  398 0.970
   405  H   0.997        C  398 0.974
   406  H   0.996        C  399 0.983
   407  H   0.999        C  399 0.974
   408  H   0.999        C  399 0.985
   409  H   0.995        C  400 0.980
   410  H   0.999        C  400 0.981
   411  H   0.996        C  400 0.981
   412  N   3.429        C  395 1.247    C  413 0.980    H  421 0.918    O  396 0.182
   413  C   3.964        N  412 0.980    C  416 0.980    H  422 0.948    C  414 0.935
   414  C   3.948        O  415 1.636    N  429 1.299    C  413 0.935
   415  O   1.967        C  414 1.636    N  429 0.200
   416  C   3.992        C  417 1.007    C  413 0.980    H  424 0.972    H  423 0.966
   417  C   3.990        C  416 1.007    C  418 0.968    H  426 0.962    H  425 0.953
   418  C   3.953        O  419 1.636    N  420 1.320    C  417 0.968
   419  O   1.938        C  418 1.636    N  420 0.201
   420  N   3.406        C  418 1.320    H  427 0.928    H  428 0.915    O  419 0.201
   421  H   0.971        N  412 0.918
   422  H   0.989        C  413 0.948
   423  H   0.998        C  416 0.966
   424  H   1.000        C  416 0.972
   425  H   0.995        C  417 0.953
   426  H   0.995        C  417 0.962
   427  H   0.956        N  420 0.928
   428  H   0.936        N  420 0.915
   429  N   3.473        C  414 1.299    C  430 0.974    H  438 0.922    O  415 0.200
   430  C   3.960        C  433 0.978    N  429 0.974    H  439 0.952    C  431 0.937
   431  C   3.955        O  432 1.641    N  444 1.286    C  430 0.937
   432  O   1.970        C  431 1.641    N  444 0.193
   433  C   3.992        C  434 1.013    C  430 0.978    H  440 0.972    H  441 0.971
   434  C   3.986        C  433 1.013    H  443 0.971    H  442 0.971    C  435 0.906
   435  C   3.934        O  436 1.504    O  437 1.500    C  434 0.906
   436  O   1.800        C  435 1.504    O  437 0.215
   437  O   1.787        C  435 1.500    O  436 0.215
   438  H   0.966        N  429 0.922
   439  H   0.994        C  430 0.952
   440  H   1.000        C  433 0.972
   441  H   0.997        C  433 0.971
   442  H   0.998        C  434 0.971
   443  H   1.000        C  434 0.971
   444  N   3.458        C  431 1.286    C  445 0.979    H  448 0.941    O  432 0.193
   445  C   3.947        N  444 0.979    H  450 0.966    C  446 0.948    H  449 0.943
   446  C   3.960        O  447 1.626    N  451 1.311    C  445 0.948
   447  O   1.984        C  446 1.626    N  451 0.197
   448  H   0.970        N  444 0.941
   449  H   0.991        C  445 0.943
   450  H   0.992        C  445 0.966
   451  N   3.483        C  446 1.311    C  452 0.979    H  457 0.914    O  447 0.197
   452  C   3.949        N  451 0.979    C  455 0.965    H  458 0.941    C  453 0.935
   453  C   3.958        O  454 1.667    N  462 1.278    C  452 0.935
   454  O   1.990        C  453 1.667    N  462 0.199
   455  C   3.964        O  456 1.015    H  460 0.967    C  452 0.965    H  459 0.964
   456  O   1.933        C  455 1.015    H  461 0.861
   457  H   0.957        N  451 0.914
   458  H   0.986        C  452 0.941
   459  H   0.998        C  455 0.964
   460  H   0.998        C  455 0.967
   461  H   0.875        O  456 0.861
   462  N   3.464        C  453 1.278    C  463 0.972    H  473 0.927    O  454 0.199
   463  C   3.954        C  466 0.985    N  462 0.972    H  474 0.945    C  464 0.923
   464  C   3.946        O  465 1.655    N  486 1.290    C  463 0.923
   465  O   1.976        C  464 1.655    N  486 0.202
   466  C   3.984        C  467 1.006    C  463 0.985    H  475 0.971    H  476 0.969
   467  C   3.989        C  466 1.006    C  468 0.994    H  477 0.975    H  478 0.968
   468  C   3.957        C  467 0.994    N  469 0.987    H  479 0.965    H  480 0.964
   469  N   3.454        C  470 1.307    C  468 0.987    H  481 0.911
   470  C   3.977        N  472 1.323    N  471 1.318    N  469 1.307
   471  N   3.389        C  470 1.318    H  483 0.917    H  482 0.915    N  472 0.103
   472  N   3.408        C  470 1.323    H  485 0.919    H  484 0.919    N  471 0.103
   473  H   0.963        N  462 0.927
   474  H   0.991        C  463 0.945
   475  H   0.996        C  466 0.971
   476  H   0.993        C  466 0.969
   477  H   0.997        C  467 0.975
   478  H   0.992        C  467 0.968
   479  H   0.991        C  468 0.965
   480  H   0.994        C  468 0.964
   481  H   0.940        N  469 0.911
   482  H   0.935        N  471 0.915
   483  H   0.936        N  471 0.917
   484  H   0.944        N  472 0.919
   485  H   0.938        N  472 0.919
   486  N   3.469        C  464 1.290    C  487 0.971    H  497 0.915    O  465 0.202
   487  C   3.964        C  490 0.979    N  486 0.971    C  488 0.956    H  498 0.940
   488  C   3.898        O  489 1.926    C  487 0.956    H  576 0.954
   489  O   2.064        C  488 1.926
   490  C   3.986        C  491 1.008    C  487 0.979    H  500 0.966    H  499 0.961
   491  C   3.988        C  493 1.420    C  492 1.407    C  490 1.008    C  496 0.110
   492  C   3.992        C  494 1.451    C  491 1.407    H  501 0.969    C  495 0.112
   493  C   3.991        C  495 1.439    C  491 1.420    H  502 0.968    C  494 0.110
   494  C   3.993        C  492 1.451    C  496 1.433    H  503 0.971    C  493 0.110
   495  C   3.992        C  496 1.444    C  493 1.439    H  504 0.970    C  492 0.112
   496  C   3.991        C  495 1.444    C  494 1.433    H  505 0.971    C  491 0.110
   497  H   0.949        N  486 0.915
   498  H   0.993        C  487 0.940
   499  H   0.995        C  490 0.961
   500  H   0.993        C  490 0.966
   501  H   0.999        C  492 0.969
   502  H   0.998        C  493 0.968
   503  H   0.999        C  494 0.971
   504  H   0.998        C  495 0.970
   505  H   0.998        C  496 0.971
   506  N   3.003        C  507 1.019    H  516 0.953    H  577 0.949
   507  C   3.988        N  506 1.019    C  508 0.973    H  517 0.966    C  510 0.942
   508  C   3.899        O  509 1.915    C  507 0.973    H  578 0.955
   509  O   2.048        C  508 1.915
   510  C   3.994        C  511 1.019    H  519 0.969    H  518 0.959    C  507 0.942
   511  C   3.941        C  513 1.534    N  512 1.207    C  510 1.019    C  514 0.102
   512  N   3.593        C  514 1.297    C  511 1.207    H  520 0.848    N  515 0.106
   513  C   3.966        C  511 1.534    N  515 1.294    H  521 0.970
   514  C   3.964        N  515 1.526    N  512 1.297    H  522 0.956    C  511 0.102
   515  N   3.000        C  514 1.526    C  513 1.294    N  512 0.106
   516  H   0.971        N  506 0.953
   517  H   0.998        C  507 0.966
   518  H   0.995        C  510 0.959
   519  H   0.997        C  510 0.969
   520  H   0.949        N  512 0.848
   521  H   0.999        C  513 0.970
   522  H   1.000        C  514 0.956
   523  N   2.988        C  524 1.013    H  579 0.957    H  531 0.937
   524  C   3.986        N  523 1.013    C  525 0.997    H  532 0.955    C  527 0.943
   525  C   3.902        O  526 1.874    C  524 0.997    H  580 0.956
   526  O   2.050        C  525 1.874
   527  C   3.989        C  528 0.992    H  534 0.975    H  533 0.968    C  524 0.943
   528  C   3.995        C  529 1.010    C  530 1.008    C  527 0.992    H  535 0.967
   529  C   3.996        C  528 1.010    H  537 0.986    H  536 0.986    H  538 0.986
   530  C   3.996        C  528 1.008    H  539 0.987    H  541 0.986    H  540 0.985
   531  H   0.969        N  523 0.937
   532  H   0.997        C  524 0.955
   533  H   0.998        C  527 0.968
   534  H   0.998        C  527 0.975
   535  H   0.999        C  528 0.967
   536  H   0.998        C  529 0.986
   537  H   0.999        C  529 0.986
   538  H   0.998        C  529 0.986
   539  H   0.998        C  530 0.987
   540  H   0.998        C  530 0.985
   541  H   0.999        C  530 0.986
   542  N   3.000        C  543 1.007    H  550 0.958    H  581 0.940
   543  C   3.978        N  542 1.007    C  544 0.973    H  551 0.960    C  546 0.950
   544  C   3.889        O  545 1.897    C  543 0.973    H  582 0.954
   545  O   2.030        C  544 1.897
   546  C   3.992        C  548 1.007    C  547 0.994    H  552 0.966    C  543 0.950
   547  C   3.995        C  549 1.020    C  546 0.994    H  554 0.973    H  553 0.965
   548  C   3.993        C  546 1.007    H  557 0.983    H  555 0.981    H  556 0.980
   549  C   3.996        C  547 1.020    H  558 0.986    H  559 0.983    H  560 0.983
   550  H   0.976        N  542 0.958
   551  H   0.996        C  543 0.960
   552  H   0.999        C  546 0.966
   553  H   0.998        C  547 0.965
   554  H   0.997        C  547 0.973
   555  H   0.996        C  548 0.981
   556  H   0.999        C  548 0.980
   557  H   0.996        C  548 0.983
   558  H   0.999        C  549 0.986
   559  H   0.997        C  549 0.983
   560  H   0.999        C  549 0.983
   561  H   0.964        N    1 0.949
   562  H   0.994        C    3 0.954
   563  H   0.969        N   18 0.955
   564  H   0.991        C   62 0.951
   565  H   0.965        N   77 0.944
   566  H   0.995        C   79 0.953
   567  H   0.967        N   98 0.955
   568  H   0.994        C  148 0.954
   569  H   0.966        N  162 0.950
   570  H   0.996        C  202 0.956
   571  H   0.969        N  207 0.950
   572  H   0.994        C  257 0.953
   573  H   0.963        N  262 0.947
   574  H   0.994        C  288 0.953
   575  H   0.965        N  302 0.955
   576  H   0.994        C  488 0.954
   577  H   0.968        N  506 0.949
   578  H   0.994        C  508 0.955
   579  H   0.972        N  523 0.957
   580  H   0.996        C  525 0.956
   581  H   0.966        N  542 0.940
   582  H   0.996        C  544 0.954
 
molecular dipole:
                 x           y           z       tot (Debye)
 q only:       24.531     -51.467    -108.398
   full:       16.602     -50.216    -104.902     298.613
molecular quadrupole (traceless):
                xx          xy          yy          xz          yz          zz
 q only:     9039.639     661.324    2000.170    2558.605   -7254.877  -11039.809
  q+dip:     8253.357     333.413    2026.606    1714.109   -6975.957  -10279.963
   full:     8261.065     336.007    2021.172    1715.897   -6978.708  -10282.236


           -------------------------------------------------
          | TOTAL ENERGY             -897.404384826513 Eh   |
          | GRADIENT NORM               0.750039372314 Eh/α |
          | HOMO-LUMO GAP               1.009780960550 eV   |
           -------------------------------------------------

------------------------------------------------------------------------
 * finished run on 2019/05/31 at 06:33:36.267     
------------------------------------------------------------------------
 total:
 * wall-time:     0 d,  0 h,  0 min, 16.290 sec
 *  cpu-time:     0 d,  0 h,  0 min, 31.386 sec
 * ratio c/w:     1.927 speedup
 SCF:
 * wall-time:     0 d,  0 h,  0 min, 15.522 sec
 *  cpu-time:     0 d,  0 h,  0 min, 30.004 sec
 * ratio c/w:     1.933 speedup

