      -----------------------------------------------------------      
     |                   =====================                   |     
     |                           x T B                           |     
     |                   =====================                   |     
     |                         S. Grimme                         |     
     |          Mulliken Center for Theoretical Chemistry        |     
     |                    University of Bonn                     |     
     |                Version 6.1 RC1 (SAW190329)                |     
      -----------------------------------------------------------      

   This program is distributed in the hope that it will be useful,
   but WITHOUT ANY WARRANTY; without even the implied warranty of
   MERCHANTABILITY or FITNESS FOR A PARTICULAR PURPOSE.
   
   FOR NON-COMMERCIAL, ACADEMIA USE ONLY.
   
   Cite this work as:
   S. Grimme, C. Bannwarth, P. Shushkov, J. Comput. Theory Chem., 2017,
   13, 1989-2009. DOI: 10.1021/acs.jctc.7b00118
   C. Bannwarth, S. Ehlert and S. Grimme., J. Comput. Theory Chem., 2019,
   just accepted. DOI: 10.1021/acs.jctc.8b01176
   
   for sTDA-xTB:
   S. Grimme and C. Bannwarth, J. Chem. Phys., 2016, 145, 054103.
   DOI: 10.1063/1.4959605
   
   in the mass-spec context:
   V. Asgeirsson, C. Bauer and S. Grimme, Chem. Sci., 2017, 8, 4879.
   DOI: 10.1039/c7sc00601b
   
   for metadynamics refer to:
   S. Grimme, ChemRxiv, Preprint. DOI: 10.26434/chemrxiv.7660532.v1
   
   with help from (in alphabetical order)
   C. Bannwarth, F. Bohle, G. Brandenburg, E. Caldeweyher, M. Checinski,
   S. Dohm, S. Ehlert, S. Ehrlich, F. März, H. Neugebauer, J. Pisarek,
   P. Pracht, P. Shushkov, and S. Spicher.
   
 * started run on 2019/05/31 at 06:33:06.105     

           -------------------------------------------------
          |                Calculation Setup                |
           -------------------------------------------------

          program call               : /home/lum/qr/xtb-190329/bin/xtb xtb_tmp.xyz --chrg 0 --grad --gfn 2 --etemp 500 --acc 0.1 --gbsa h2o --parallel 2
          hostname                   : cu39
          coordinate file            : xtb_tmp.xyz
          omp threads                :                     2
          number of atoms            :                   540
          number of electrons        :                  1428
          charge                     :                     0
          spin                       :                   0.0
          first test random number   :      0.77750278734031


molecular fragmentation (1/2 indicates fragments):
111111111111111111122222222222222222222222222222222222222222222222222222
222222222222222222222222222222222222222222222222222222222222222222222222
222222222222222222222222222222222222222222222222222222222222222222222222
222222222222222222222222222222222222222222222222222222222222222222222222
222222222222222222222222222222222222222222222222222222222222222222222222
222222222222222222222222222222222222222222222222222222222222222222222222
222222222222222222222222222222222222222222222222222222222222222222222222
222222222222222211222222222222222222
# atoms in fragment 1/2:    21   519
 fragment masses (1/2) :      115.17     3475.20
CMA distance (Bohr)    :  24.725
constraining FC (au)   :  0.0500

########################################################################
# WARNING! Please study the warnings concerning your input carefully
#  - XTBPATH is not set, using XTBHOME instead
#  - Process number higher than OMP_NUM_THREADS, I hope you know what you are doing.
########################################################################

           ------------------------------------------------- 
          |                 G F N 2 - x T B                 |
          | Geometry, Frequencies, Noncovalent interactions |
          |            JCTC 2018 parametrisation            |
           ------------------------------------------------- 
 
             k(s)              :                1.8500
             k(p)              :                2.2300
             k(d)              :                2.2300
             k(f)              :                2.0000
             kEN (H0ij)        :               -2.0000
             D4 a1             :                0.5200
             D4 a2             :                5.0000
             D4 s6             :                1.0000
             D4 s8             :                2.7000
             D4 s9             :                5.0000
             alphaj            :                2.0000

  Z AO/shell   Hii/eV     exponent
  1     Wed Apr 25 08:07:45 CEST 2018   EN: 2.200 GM2: 0.406  GM3: 0.0800  RAES: 1.40
     1s    -10.707211    1.230000
  6     Wed Apr 25 08:07:45 CEST 2018   EN: 2.550 GM2: 0.538  GM3: 0.1500  RAES: 3.00
     2s    -13.970922    2.096432
     2p    -10.063292    1.800000
  7     Wed Apr 25 08:07:45 CEST 2018   EN: 3.040 GM2: 0.461  GM3:-0.0640  RAES: 1.90
     2s    -16.686243    2.339881
     2p    -12.523956    2.014332
  8     Wed Apr 25 08:07:45 CEST 2018   EN: 3.440 GM2: 0.452  GM3:-0.0517  RAES: 1.80
     2s    -20.229985    2.439742
     2p    -15.503117    2.137023

 Solvent             : h2o
 Using internal parameter file: .param_gbsa2_h2o
 Gsolv ref. state (COSMO-RS): gsolv [1 M gas/solution]
 temperature (mdtemp)       :    298.150000000000     
 dielectric constant        :    80.2000000000000     
 rho                        :    1.00000000000000     
 mass                       :    18.0000000000000     
 surface tension            :    15.5689454083859     
 probe radius               :   0.975313790000000     
 vdW radii scaling          :    1.00000000000000     
 Gshift (Eh)                :   1.857443126794793E-003
 c1                         :    1.55243817000000     
 soset                      :   0.130326360000000     
 HB correction              :  T
 Number of grid points      :          230

            Z     q(EN)     CN     RAES       Cart. coordinates
     1  N   5.0   -0.71    3.00    1.93    98.82946    45.97019    71.52020
     2  C   4.0    0.06    3.98    3.58    96.26663    45.50515    72.38851
     3  C   4.0    0.07    3.00    3.02    95.80681    46.79892    74.92950
     4  O   6.0   -0.42    1.00    1.80    93.95420    48.13797    75.31820
     5  C   4.0   -0.14    3.99    3.60    95.91393    42.63096    72.48487
     6  C   4.0   -0.10    3.97    3.58    93.18412    41.63693    72.51026
     7  C   4.0   -0.21    3.98    3.59    91.77375    42.34989    74.92837
     8  C   4.0   -0.22    3.98    3.59    91.70909    42.43889    70.15267
     9  H   1.0    0.25    1.00    1.43    99.91843    44.45764    71.06826
    10  H   1.0    0.11    0.99    1.43    94.94804    46.37507    71.04882
    11  H   1.0    0.10    0.99    1.43    96.87264    41.91861    70.80145
    12  H   1.0    0.11    0.99    1.43    96.91648    41.94109    74.14826
    13  H   1.0    0.11    0.99    1.43    93.33942    39.57611    72.50339
    14  H   1.0    0.11    0.99    1.43    90.00448    41.30961    75.05294
    15  H   1.0    0.11    0.99    1.43    92.90270    41.93507    76.60042
    16  H   1.0    0.14    0.99    1.43    91.33351    44.35523    74.95528
    17  H   1.0    0.11    0.99    1.43    90.00395    41.30820    69.95864
    18  H   1.0    0.10    0.99    1.43    91.13313    44.40445    70.31044
    19  H   1.0    0.10    0.99    1.43    92.83979    42.23260    68.44794
    20  N   5.0   -0.71    3.00    1.93    63.19038    54.57264    50.55643
    21  C   4.0    0.06    3.98    3.59    64.63578    53.19552    48.65652
    22  C   4.0    0.29    3.03    3.02    64.57611    50.40717    49.48258
    23  O   6.0   -0.43    1.00    1.80    66.30906    49.44087    50.65976
    24  C   4.0   -0.13    3.99    3.60    67.40536    53.97463    48.55278
    25  C   4.0   -0.11    3.98    3.58    68.05280    56.46844    47.24314
    26  C   4.0   -0.22    3.98    3.59    67.48220    56.36680    44.41659
    27  C   4.0   -0.22    3.98    3.59    66.71943    58.71339    48.46600
    28  H   1.0    0.26    1.00    1.43    64.19668    55.37514    51.96242
    29  H   1.0    0.10    0.99    1.43    63.71229    53.42431    46.82409
    30  H   1.0    0.11    0.99    1.43    68.14001    53.99558    50.48591
    31  H   1.0    0.13    0.99    1.43    68.35045    52.44693    47.53405
    32  H   1.0    0.10    0.99    1.43    70.09660    56.72546    47.47440
    33  H   1.0    0.10    0.99    1.43    68.43828    57.92048    43.46692
    34  H   1.0    0.12    0.99    1.43    68.16012    54.61068    43.59185
    35  H   1.0    0.10    0.99    1.43    65.46415    56.54201    44.08049
    36  H   1.0    0.10    0.99    1.43    67.29750    60.45980    47.55004
    37  H   1.0    0.10    0.99    1.43    64.68333    58.54666    48.27748
    38  H   1.0    0.10    0.99    1.43    67.19278    58.86582    50.46382
    39  N   5.0   -0.48    3.01    1.93    62.43515    49.17336    48.92730
    40  C   4.0    0.08    4.00    3.63    62.06416    46.71260    50.07303
    41  C   4.0    0.26    3.01    3.02    64.13790    44.86558    49.24405
    42  O   6.0   -0.44    1.00    1.80    65.04178    43.37929    50.77721
    43  C   4.0   -0.14    3.99    3.60    59.36741    45.77658    49.65636
    44  C   4.0   -0.04    3.03    3.02    57.48406    47.45922    50.97132
    45  C   4.0   -0.11    3.03    3.02    55.47194    48.48663    49.63777
    46  C   4.0   -0.10    3.03    3.02    57.70548    48.00208    53.53486
    47  C   4.0   -0.10    3.03    3.02    53.65501    49.90948    50.85506
    48  C   4.0   -0.07    3.02    3.02    55.92028    49.44786    54.77013
    49  C   4.0    0.11    3.03    3.02    53.83849    50.35691    53.43756
    50  O   6.0   -0.46    1.99    1.83    52.04987    51.68305    54.67679
    51  H   1.0    0.23    1.00    1.43    60.89681    50.17058    48.34492
    52  H   1.0    0.13    0.99    1.43    62.40218    46.88976    52.11648
    53  H   1.0    0.10    0.99    1.43    58.93667    45.68596    47.64458
    54  H   1.0    0.10    0.99    1.43    59.26252    43.85667    50.40740
    55  H   1.0    0.11    1.00    1.43    55.31378    48.15182    47.63510
    56  H   1.0    0.11    0.99    1.43    59.29377    47.28221    54.59861
    57  H   1.0    0.11    1.00    1.43    52.07677    50.65546    49.80559
    58  H   1.0    0.14    1.00    1.43    56.13463    49.83827    56.75967
    59  H   1.0    0.25    0.99    1.43    50.62994    51.97344    53.55826
    60  N   5.0   -0.31    3.04    1.93    64.92888    45.00571    46.84870
    61  C   4.0    0.07    4.05    3.71    67.05409    43.55347    45.91524
    62  C   4.0    0.28    3.01    3.02    68.96517    45.40259    44.77203
    63  O   6.0   -0.38    1.00    1.80    68.57281    47.66290    44.59293
    64  C   4.0   -0.14    4.01    3.64    65.82567    42.03165    43.77886
    65  C   4.0   -0.15    4.01    3.63    64.11249    44.02729    42.55153
    66  C   4.0   -0.03    4.03    3.67    63.59128    45.98336    44.65755
    67  H   1.0    0.14    0.99    1.43    67.92003    42.41412    47.40465
    68  H   1.0    0.10    0.99    1.43    67.18243    41.20653    42.47617
    69  H   1.0    0.11    0.99    1.43    64.70944    40.50333    44.59637
    70  H   1.0    0.11    0.99    1.43    65.07138    44.91708    40.96334
    71  H   1.0    0.09    0.99    1.43    62.37247    43.18363    41.86362
    72  H   1.0    0.14    0.99    1.43    64.38198    47.82401    44.15200
    73  H   1.0    0.10    0.99    1.43    61.58870    46.17370    45.05314
    74  N   5.0   -0.50    3.00    1.93    71.08506    44.31892    43.88542
    75  C   4.0    0.01    3.99    3.61    72.74769    45.64834    42.15923
    76  C   4.0    0.31    3.00    3.02    72.88500    48.49074    42.67563
    77  O   6.0   -0.41    1.00    1.80    72.80783    50.05540    40.99312
    78  H   1.0    0.24    1.00    1.43    71.37966    42.46006    44.19034
    79  H   1.0    0.10    0.99    1.43    74.66362    44.89541    42.35089
    80  H   1.0    0.11    0.99    1.43    72.12424    45.38843    40.20010
    81  N   5.0   -0.44    3.01    1.93    73.31660    49.08958    45.11158
    82  C   4.0    0.06    3.99    3.60    74.17339    51.57836    45.84512
    83  C   4.0    0.27    3.01    3.02    77.02935    51.72150    45.34929
    84  O   6.0   -0.42    1.00    1.80    78.18680    49.85543    44.59189
    85  C   4.0   -0.23    3.98    3.59    73.61427    52.00110    48.63884
    86  H   1.0    0.24    1.00    1.43    73.74109    47.68064    46.32629
    87  H   1.0    0.13    0.99    1.43    73.19169    52.95079    44.65264
    88  H   1.0    0.09    0.99    1.43    73.55168    54.00389    49.07680
    89  H   1.0    0.11    0.99    1.43    71.78843    51.18996    49.11402
    90  H   1.0    0.10    0.99    1.43    75.06385    51.10690    49.78997
    91  N   5.0   -0.50    3.01    1.93    78.17343    53.91686    45.79026
    92  C   4.0    0.07    4.00    3.61    80.90651    54.08398    46.10502
    93  C   4.0    0.26    3.02    3.02    81.26301    55.75510    48.44112
    94  O   6.0   -0.43    1.00    1.80    80.45589    57.92602    48.46854
    95  C   4.0   -0.13    3.99    3.59    82.29053    55.23486    43.83557
    96  C   4.0   -0.10    3.98    3.58    85.07089    54.40819    43.73994
    97  C   4.0   -0.22    3.98    3.59    85.31503    51.61979    43.02574
    98  C   4.0   -0.23    3.98    3.59    86.48112    56.06032    41.83726
    99  H   1.0    0.24    1.00    1.43    77.18918    55.45233    46.35119
   100  H   1.0    0.15    0.99    1.43    81.59354    52.17085    46.46333
   101  H   1.0    0.12    0.99    1.43    81.36457    54.66617    42.08597
   102  H   1.0    0.12    0.99    1.43    82.19191    57.28845    44.00203
   103  H   1.0    0.12    0.99    1.43    85.90925    54.70584    45.61385
   104  H   1.0    0.09    0.99    1.43    87.30006    51.12925    42.85077
   105  H   1.0    0.12    0.99    1.43    84.49359    50.40505    44.46487
   106  H   1.0    0.11    0.99    1.43    84.38546    51.26783    41.22769
   107  H   1.0    0.10    0.99    1.43    88.49273    55.64057    41.85400
   108  H   1.0    0.10    0.99    1.43    85.76224    55.74717    39.93844
   109  H   1.0    0.11    0.99    1.43    86.21789    58.03565    42.32924
   110  N   5.0   -0.48    3.01    1.93    82.33588    54.60857    50.40515
   111  C   4.0    0.06    3.99    3.60    82.75369    55.76902    52.83895
   112  C   4.0    0.06    3.00    3.02    85.59864    56.07859    53.25563
   113  O   6.0   -0.44    1.00    1.80    87.15632    54.65833    52.30133
   114  C   4.0   -0.14    3.99    3.60    81.69173    54.08355    54.95856
   115  C   4.0   -0.11    3.98    3.58    78.88531    54.49197    55.53216
   116  C   4.0   -0.21    3.98    3.59    77.28174    54.37603    53.14609
   117  C   4.0   -0.24    3.99    3.60    78.00917    52.44655    57.37009
   118  H   1.0    0.29    1.00    1.43    82.98123    52.80835    50.19155
   119  H   1.0    0.13    0.99    1.43    81.82730    57.62021    52.87360
   120  H   1.0    0.12    0.99    1.43    81.95301    52.11231    54.40340
   121  H   1.0    0.09    0.99    1.43    82.77533    54.41353    56.68211
   122  H   1.0    0.10    0.99    1.43    78.64985    56.34856    56.40131
   123  H   1.0    0.09    0.99    1.43    75.29645    54.27390    53.65874
   124  H   1.0    0.13    0.99    1.43    77.54670    56.04846    51.98824
   125  H   1.0    0.12    0.99    1.43    77.79720    52.71746    52.04927
   126  H   1.0    0.10    0.99    1.43    76.05399    52.75769    57.92354
   127  H   1.0    0.10    0.99    1.43    78.14992    50.60401    56.46664
   128  H   1.0    0.09    0.99    1.43    79.18182    52.44327    59.05465
   129  N   5.0   -0.69    3.00    1.93    90.76066    56.30520    59.25030
   130  C   4.0    0.06    3.98    3.59    91.13865    55.52657    61.84916
   131  C   4.0    0.08    3.00    3.02    93.30454    57.13610    62.92413
   132  O   6.0   -0.40    1.00    1.80    95.42122    57.17562    62.02986
   133  C   4.0   -0.09    3.98    3.58    91.53907    52.64941    62.08419
   134  C   4.0   -0.21    3.98    3.59    93.79613    51.72799    60.54510
   135  C   4.0   -0.24    3.98    3.59    91.78535    51.91640    64.86521
   136  H   1.0    0.31    1.00    1.43    92.21977    56.04283    58.04575
   137  H   1.0    0.09    0.99    1.43    89.39843    56.02586    62.85120
   138  H   1.0    0.09    0.99    1.43    89.81679    51.76860    61.33600
   139  H   1.0    0.09    0.99    1.43    93.99628    49.69989    60.79668
   140  H   1.0    0.13    0.99    1.43    93.49706    52.11770    58.54856
   141  H   1.0    0.13    0.99    1.43    95.52042    52.67027    61.15917
   142  H   1.0    0.09    0.99    1.43    91.86450    49.87422    65.02642
   143  H   1.0    0.11    0.99    1.43    93.48257    52.71774    65.70721
   144  H   1.0    0.09    0.99    1.43    90.16651    52.57602    65.94437
   145  N   5.0   -0.72    3.00    1.93    83.74544    59.85872    67.58115
   146  C   4.0    0.06    3.98    3.58    82.61445    57.37509    67.22252
   147  C   4.0    0.07    3.00    3.02    82.26175    56.13596    69.80580
   148  O   6.0   -0.49    1.00    1.80    80.23946    55.17495    70.41937
   149  C   4.0   -0.14    3.98    3.59    84.21267    55.71272    65.47361
   150  C   4.0   -0.11    3.98    3.58    82.69051    53.57611    64.21603
   151  C   4.0   -0.24    3.98    3.59    84.32764    52.27357    62.22659
   152  C   4.0   -0.21    3.98    3.59    81.71291    51.61795    66.09537
   153  H   1.0    0.26    1.00    1.43    85.12820    60.44630    66.40424
   154  H   1.0    0.11    0.99    1.43    80.70948    57.61854    66.43378
   155  H   1.0    0.10    0.99    1.43    84.97994    56.91405    63.97784
   156  H   1.0    0.10    0.99    1.43    85.78861    54.91581    66.54178
   157  H   1.0    0.10    0.99    1.43    81.05951    54.44039    63.28147
   158  H   1.0    0.09    0.99    1.43    83.21808    50.85968    61.23335
   159  H   1.0    0.09    0.99    1.43    85.03011    53.64616    60.86845
   160  H   1.0    0.09    0.99    1.43    85.91888    51.34795    63.13852
   161  H   1.0    0.11    0.99    1.43    80.73205    50.12299    65.08601
   162  H   1.0    0.10    0.99    1.43    83.26814    50.80706    67.16694
   163  H   1.0    0.15    0.99    1.43    80.38240    52.44804    67.41300
   164  N   5.0   -0.72    3.00    1.93    76.87001    57.66542    73.16609
   165  C   4.0    0.07    3.98    3.58    74.75246    56.78573    71.68449
   166  C   4.0    0.05    3.00    3.02    73.47736    58.91798    70.18694
   167  O   6.0   -0.40    1.00    1.80    71.18707    59.01314    69.91160
   168  C   4.0   -0.06    3.99    3.60    72.84562    55.30334    73.28168
   169  C   4.0    0.28    3.00    3.02    73.63329    52.58988    73.75521
   170  O   6.0   -0.46    1.00    1.80    72.41408    50.80544    72.93396
   171  N   5.0   -0.64    3.00    1.93    75.70907    52.26370    75.14792
   172  H   1.0    0.33    1.00    1.43    78.55883    56.95467    72.58685
   173  H   1.0    0.14    0.99    1.43    75.57180    55.52351    70.25864
   174  H   1.0    0.13    0.99    1.43    72.62120    56.24533    75.09906
   175  H   1.0    0.15    0.99    1.43    71.01925    55.31230    72.32961
   176  H   1.0    0.28    1.00    1.43    76.33700    50.49836    75.49572
   177  H   1.0    0.29    1.00    1.43    76.79292    53.71067    75.74489
   178  N   5.0   -0.67    3.00    1.93    67.58524    31.33366    45.30071
   179  C   4.0    0.07    3.98    3.59    69.01745    32.29244    43.17759
   180  C   4.0    0.07    3.00    3.02    70.46617    30.11426    41.91707
   181  O   6.0   -0.39    1.00    1.80    71.13699    28.25945    43.12512
   182  C   4.0   -0.08    3.98    3.58    70.81965    34.38425    44.13803
   183  C   4.0   -0.19    3.98    3.59    73.15515    33.28813    45.42807
   184  C   4.0   -0.24    3.98    3.59    71.62896    36.13695    42.00523
   185  H   1.0    0.30    1.00    1.43    68.52343    31.17987    46.95369
   186  H   1.0    0.10    0.99    1.43    67.64753    33.07974    41.84046
   187  H   1.0    0.13    0.99    1.43    69.74013    35.46683    45.53951
   188  H   1.0    0.11    0.99    1.43    74.28481    34.81249    46.21831
   189  H   1.0    0.14    0.99    1.43    72.63792    32.00735    46.94684
   190  H   1.0    0.12    0.99    1.43    74.31395    32.26279    44.07316
   191  H   1.0    0.10    0.99    1.43    72.71973    37.69106    42.78919
   192  H   1.0    0.10    0.99    1.43    72.81271    35.10853    40.67429
   193  H   1.0    0.09    0.99    1.43    69.98450    36.89345    41.04237
   194  N   5.0   -0.69    3.00    1.93    77.00882    27.46707    39.05461
   195  C   4.0    0.07    3.98    3.59    79.62971    27.94998    39.68088
   196  C   4.0    0.28    3.01    3.02    80.95349    29.33318    37.50536
   197  O   6.0   -0.39    1.00    1.80    80.52980    28.88876    35.27792
   198  C   4.0   -0.20    3.98    3.59    81.04913    25.51413    40.27429
   199  H   1.0    0.27    1.00    1.43    76.54200    25.96057    37.94764
   200  H   1.0    0.11    0.99    1.43    79.59347    29.19731    41.33488
   201  H   1.0    0.12    0.99    1.43    82.96438    25.98371    40.84759
   202  H   1.0    0.11    0.99    1.43    80.09461    24.52286    41.79629
   203  H   1.0    0.13    0.99    1.43    81.06482    24.31978    38.60181
   204  N   5.0   -0.48    3.01    1.93    82.76240    30.93723    38.28881
   205  C   4.0    0.07    3.99    3.61    84.18009    32.51018    36.54986
   206  C   4.0    0.07    3.00    3.02    86.82461    31.37080    36.28421
   207  O   6.0   -0.39    1.00    1.80    88.11632    30.83973    38.12232
   208  C   4.0   -0.09    3.98    3.59    84.30404    35.23785    37.52087
   209  C   4.0   -0.23    3.98    3.59    85.95278    36.80851    35.75242
   210  C   4.0   -0.22    3.98    3.59    81.63206    36.30340    37.71748
   211  H   1.0    0.24    1.00    1.43    82.81985    31.44006    40.12985
   212  H   1.0    0.13    0.99    1.43    83.19190    32.47121    34.72746
   213  H   1.0    0.12    0.99    1.43    85.16235    35.21335    39.40361
   214  H   1.0    0.09    0.99    1.43    85.91730    38.78804    36.29747
   215  H   1.0    0.11    0.99    1.43    87.90237    36.16028    35.79541
   216  H   1.0    0.10    0.99    1.43    85.26206    36.68388    33.81711
   217  H   1.0    0.10    0.99    1.43    81.67271    38.24904    38.37127
   218  H   1.0    0.11    0.99    1.43    80.70954    36.25246    35.87457
   219  H   1.0    0.12    0.99    1.43    80.47119    35.20193    39.00853
   220  N   5.0   -0.50    3.02    1.93    98.95769    54.33646    55.01587
   221  C   4.0    0.06    4.01    3.64    98.16883    52.54417    53.08926
   222  C   4.0    0.27    3.00    3.02    95.28365    52.64874    52.67672
   223  O   6.0   -0.40    1.00    1.80    93.88929    53.95150    53.97175
   224  C   4.0   -0.14    4.01    3.64    99.16602    50.00351    54.05354
   225  C   4.0   -0.14    4.00    3.62    99.20489    50.31297    56.92562
   226  C   4.0   -0.03    4.01    3.64    99.95222    53.07517    57.24760
   227  H   1.0    0.09    0.99    1.43    99.01100    53.11174    51.28460
   228  H   1.0    0.11    0.99    1.43    97.93417    48.47440    53.48405
   229  H   1.0    0.10    0.99    1.43   101.06734    49.72033    53.31965
   230  H   1.0    0.11    0.99    1.43    97.32677    49.99575    57.71153
   231  H   1.0    0.09    0.99    1.43   100.58957    49.10194    57.84327
   232  H   1.0    0.12    0.99    1.43    99.21026    53.91028    58.97314
   233  H   1.0    0.10    0.99    1.43   102.00925    53.26454    57.33837
   234  N   5.0   -0.50    3.01    1.93    94.48378    51.25722    50.69414
   235  C   4.0    0.07    3.99    3.60    91.91344    51.32636    49.78083
   236  C   4.0    0.26    3.00    3.02    90.49435    48.89995    50.49083
   237  O   6.0   -0.45    1.00    1.80    91.52496    46.84446    50.66962
   238  C   4.0   -0.14    3.98    3.59    91.78310    51.88613    46.91601
   239  C   4.0   -0.09    3.97    3.58    93.58637    50.33258    45.24565
   240  C   4.0   -0.23    3.98    3.59    92.47579    49.95399    42.60475
   241  C   4.0   -0.22    3.98    3.59    96.14839    51.64640    44.95135
   242  H   1.0    0.24    1.00    1.43    95.63757    49.96995    49.89275
   243  H   1.0    0.16    0.99    1.43    91.01093    52.89410    50.78619
   244  H   1.0    0.10    0.99    1.43    89.83619    51.58734    46.30842
   245  H   1.0    0.11    0.99    1.43    92.21660    53.88246    46.64081
   246  H   1.0    0.15    0.99    1.43    93.83847    48.46287    46.08516
   247  H   1.0    0.11    0.99    1.43    93.83419    48.97244    41.41572
   248  H   1.0    0.09    0.99    1.43    90.75307    48.83601    42.65494
   249  H   1.0    0.09    0.99    1.43    92.04816    51.76560    41.73623
   250  H   1.0    0.10    0.99    1.43    97.42381    50.43870    43.88149
   251  H   1.0    0.10    0.99    1.43    95.89944    53.41382    43.92405
   252  H   1.0    0.11    0.99    1.43    97.00456    52.07130    46.76794
   253  N   5.0   -0.49    3.01    1.93    88.00667    49.26711    50.83226
   254  C   4.0    0.08    3.99    3.60    86.28377    47.45489    51.95537
   255  C   4.0    0.26    3.01    3.02    83.79369    47.56341    50.48356
   256  O   6.0   -0.48    1.00    1.80    83.14137    49.53669    49.45399
   257  C   4.0   -0.09    3.98    3.58    85.83716    48.12308    54.78415
   258  C   4.0   -0.21    3.98    3.59    84.28238    46.10112    56.11752
   259  C   4.0   -0.21    3.98    3.59    88.33347    48.48903    56.18871
   260  H   1.0    0.28    1.00    1.43    87.33905    51.06396    50.76547
   261  H   1.0    0.12    0.99    1.43    87.11286    45.57290    51.80268
   262  H   1.0    0.11    0.99    1.43    84.81166    49.91688    54.85008
   263  H   1.0    0.11    0.99    1.43    83.72784    46.73262    57.98852
   264  H   1.0    0.13    0.99    1.43    82.56704    45.66111    55.08775
   265  H   1.0    0.13    0.99    1.43    85.37181    44.37539    56.33569
   266  H   1.0    0.09    0.99    1.43    87.94304    48.68816    58.19461
   267  H   1.0    0.12    0.99    1.43    89.57771    46.87271    55.94150
   268  H   1.0    0.13    0.99    1.43    89.32526    50.17080    55.55096
   269  N   5.0   -0.50    3.00    1.93    82.37321    45.47710    50.44220
   270  C   4.0    0.08    3.99    3.61    79.88254    45.46144    49.28932
   271  C   4.0    0.27    3.01    3.02    78.00958    44.02917    50.94446
   272  O   6.0   -0.44    1.00    1.80    78.64161    42.25280    52.27907
   273  C   4.0   -0.11    3.98    3.59    79.85541    44.39045    46.56828
   274  C   4.0   -0.02    3.02    3.02    80.26531    41.58976    46.28690
   275  C   4.0   -0.08    3.04    3.02    82.37045    40.38202    47.28389
   276  C   4.0   -0.10    3.04    3.02    78.62322    40.15733    44.81404
   277  C   4.0   -0.10    3.03    3.02    82.83861    37.85252    46.81717
   278  C   4.0   -0.09    3.03    3.02    79.10450    37.64887    44.27703
   279  C   4.0    0.09    3.03    3.02    81.24165    36.47410    45.25653
   280  O   6.0   -0.49    1.99    1.83    81.74524    34.03524    44.60428
   281  H   1.0    0.29    1.00    1.43    82.90875    43.87562    51.35730
   282  H   1.0    0.14    0.99    1.43    79.29902    47.44019    49.15694
   283  H   1.0    0.12    0.99    1.43    78.05164    44.88877    45.69968
   284  H   1.0    0.12    0.99    1.43    81.30232    45.42811    45.51782
   285  H   1.0    0.15    1.00    1.43    83.70660    41.41956    48.41199
   286  H   1.0    0.11    1.00    1.43    76.95589    41.02077    44.01617
   287  H   1.0    0.12    0.99    1.43    84.51383    36.97717    47.59476
   288  H   1.0    0.11    1.00    1.43    77.85521    36.59194    43.06623
   289  H   1.0    0.25    0.99    1.43    83.25634    33.48251    45.47204
   290  N   5.0   -0.50    3.01    1.93    75.62433    44.90671    50.91252
   291  C   4.0    0.08    4.01    3.63    73.70268    43.59687    52.37710
   292  C   4.0    0.29    3.01    3.02    73.07479    41.09770    51.05098
   293  O   6.0   -0.42    1.00    1.80    72.95624    40.90456    48.75705
   294  C   4.0   -0.08    3.98    3.58    71.36241    45.22093    52.95536
   295  C   4.0   -0.16    3.98    3.59    72.24203    47.70590    54.19094
   296  C   4.0   -0.20    3.98    3.59    69.56793    43.70697    54.63624
   297  C   4.0   -0.23    3.98    3.58    70.20840    49.05370    55.72216
   298  H   1.0    0.23    1.00    1.43    75.08201    46.21356    49.63396
   299  H   1.0    0.12    0.99    1.43    74.61931    43.11458    54.17215
   300  H   1.0    0.15    0.99    1.43    70.34196    45.65176    51.20466
   301  H   1.0    0.10    0.99    1.43    73.84684    47.32003    55.42143
   302  H   1.0    0.10    0.99    1.43    72.89406    48.97433    52.71006
   303  H   1.0    0.12    0.99    1.43    67.87433    44.79662    55.00951
   304  H   1.0    0.15    0.99    1.43    68.95714    41.99645    53.68136
   305  H   1.0    0.12    0.99    1.43    70.44234    43.17923    56.41959
   306  H   1.0    0.10    0.99    1.43    70.91553    50.87146    56.36708
   307  H   1.0    0.14    0.99    1.43    68.52941    49.35448    54.57772
   308  H   1.0    0.10    0.99    1.43    69.70698    47.95988    57.38483
   309  N   5.0   -0.51    3.01    1.93    72.78862    39.17795    52.67772
   310  C   4.0    0.09    3.99    3.60    72.57716    36.56408    51.94552
   311  C   4.0    0.29    3.01    3.02    69.86249    35.56723    52.05845
   312  O   6.0   -0.45    1.00    1.80    68.92650    34.40739    50.29889
   313  C   4.0    0.00    3.98    3.59    74.30939    35.02694    53.73011
   314  O   6.0   -0.47    1.99    1.82    74.32655    32.43041    53.21514
   315  H   1.0    0.26    1.00    1.43    72.79423    39.53589    54.56012
   316  H   1.0    0.14    0.99    1.43    73.21147    36.39661    49.98344
   317  H   1.0    0.14    0.99    1.43    76.21361    35.82522    53.61597
   318  H   1.0    0.15    0.99    1.43    73.61306    35.27418    55.66439
   319  H   1.0    0.27    0.99    1.43    75.81014    32.03027    52.23464
   320  N   5.0   -0.47    3.01    1.93    68.63283    36.03819    54.21743
   321  C   4.0    0.10    4.00    3.61    66.14229    35.03153    54.69551
   322  C   4.0    0.29    3.01    3.02    64.81657    36.62200    56.72797
   323  O   6.0   -0.43    1.00    1.80    65.96754    38.09538    58.08447
   324  C   4.0   -0.00    3.98    3.58    66.27700    32.25494    55.56099
   325  O   6.0   -0.46    1.99    1.82    66.96867    32.17396    58.12962
   326  H   1.0    0.28    1.00    1.43    69.40655    37.05142    55.64336
   327  H   1.0    0.12    0.99    1.43    65.06231    35.07709    52.92920
   328  H   1.0    0.10    0.99    1.43    64.42743    31.37623    55.24564
   329  H   1.0    0.14    0.99    1.43    67.68887    31.28641    54.38738
   330  H   1.0    0.25    0.99    1.43    67.01304    30.43450    58.67245
   331  N   5.0   -0.48    3.01    1.93    62.33596    36.18578    56.84244
   332  C   4.0    0.07    3.98    3.59    60.53736    37.60036    58.35540
   333  C   4.0    0.06    3.00    3.02    58.20778    35.93303    58.75140
   334  O   6.0   -0.41    1.00    1.80    57.65523    34.26002    57.24017
   335  C   4.0   -0.08    3.98    3.58    59.87776    40.11223    56.98552
   336  C   4.0   -0.20    3.98    3.59    58.61864    39.62401    54.43778
   337  C   4.0   -0.23    3.98    3.59    58.25920    41.85799    58.60675
   338  H   1.0    0.25    1.00    1.43    61.55534    34.90715    55.64870
   339  H   1.0    0.12    0.99    1.43    61.39525    38.07144    60.17707
   340  H   1.0    0.13    0.99    1.43    61.69884    41.04030    56.65104
   341  H   1.0    0.10    0.99    1.43    58.18381    41.41475    53.52934
   342  H   1.0    0.12    0.99    1.43    59.87468    38.55401    53.21229
   343  H   1.0    0.13    0.99    1.43    56.86979    38.57130    54.67595
   344  H   1.0    0.10    0.99    1.43    58.19443    43.72111    57.74277
   345  H   1.0    0.11    0.99    1.43    56.34333    41.13804    58.77986
   346  H   1.0    0.11    0.99    1.43    59.06053    42.05252    60.48335
   347  N   5.0   -0.70    3.00    1.93    64.18853    41.22322    66.14793
   348  C   4.0    0.07    3.98    3.59    65.98448    41.87631    64.19639
   349  C   4.0    0.27    3.02    3.02    68.51842    40.58286    64.75513
   350  O   6.0   -0.43    1.00    1.80    69.47399    40.72192    66.85239
   351  C   4.0   -0.12    4.00    3.61    66.59481    44.73593    64.34608
   352  C   4.0   -0.04    3.02    3.02    64.53494    46.50570    63.51697
   353  C   4.0   -0.10    3.04    3.02    64.73800    47.70172    61.19023
   354  C   4.0   -0.10    3.03    3.02    62.52736    47.15677    65.08355
   355  C   4.0   -0.10    3.03    3.02    63.06212    49.56401    60.47813
   356  C   4.0   -0.07    3.03    3.02    60.81569    49.00298    64.38579
   357  C   4.0    0.10    3.03    3.02    61.11203    50.26750    62.09516
   358  O   6.0   -0.45    1.99    1.83    59.47973    52.14419    61.48047
   359  H   1.0    0.29    1.00    1.43    64.86495    41.44045    67.92197
   360  H   1.0    0.13    0.99    1.43    65.19340    41.34696    62.36446
   361  H   1.0    0.13    0.99    1.43    67.07575    45.13430    66.31527
   362  H   1.0    0.11    0.99    1.43    68.27134    45.09555    63.19869
   363  H   1.0    0.11    1.00    1.43    66.26056    47.20929    59.92540
   364  H   1.0    0.12    0.99    1.43    62.31119    46.24372    66.89686
   365  H   1.0    0.11    1.00    1.43    63.30235    50.53892    58.70309
   366  H   1.0    0.13    1.00    1.43    59.28443    49.52542    65.63024
   367  H   1.0    0.25    0.99    1.43    60.05535    52.95562    59.92932
   368  N   5.0   -0.50    3.01    1.93    69.69713    39.48821    62.79510
   369  C   4.0    0.09    3.99    3.61    72.31714    38.73122    62.94870
   370  C   4.0    0.28    3.01    3.02    73.62207    39.28152    60.44244
   371  O   6.0   -0.47    1.00    1.80    72.49309    39.29845    58.41491
   372  C   4.0    0.05    3.97    3.57    72.71108    35.90554    63.72658
   373  O   6.0   -0.47    1.99    1.82    75.21249    35.14831    63.26398
   374  C   4.0   -0.16    3.98    3.59    70.96995    34.11671    62.30147
   375  H   1.0    0.28    1.00    1.43    68.81354    39.24524    61.11335
   376  H   1.0    0.13    0.99    1.43    73.21188    39.90615    64.40937
   377  H   1.0    0.12    0.99    1.43    72.27628    35.76324    65.76033
   378  H   1.0    0.30    0.99    1.43    76.38232    36.15391    64.26843
   379  H   1.0    0.12    0.99    1.43    71.33411    32.20256    62.95162
   380  H   1.0    0.14    0.99    1.43    69.00797    34.59642    62.65043
   381  H   1.0    0.15    0.99    1.43    71.34117    34.21736    60.28586
   382  N   5.0   -0.49    3.01    1.93    76.07140    39.86408    60.67218
   383  C   4.0    0.10    4.00    3.62    77.57848    40.47349    58.49424
   384  C   4.0    0.29    3.01    3.02    79.82400    38.69404    58.20455
   385  O   6.0   -0.44    1.00    1.80    80.76250    37.53258    59.96525
   386  C   4.0    0.04    3.98    3.58    78.58161    43.24042    58.56020
   387  O   6.0   -0.49    1.99    1.82    80.64348    43.50152    60.20736
   388  C   4.0   -0.21    3.98    3.59    76.47415    45.09705    59.19560
   389  H   1.0    0.29    1.00    1.43    77.01312    39.52166    62.30532
   390  H   1.0    0.13    0.99    1.43    76.35975    40.27058    56.83910
   391  H   1.0    0.13    0.99    1.43    79.33563    43.61249    56.66849
   392  H   1.0    0.26    0.99    1.43    79.98660    43.77970    61.88850
   393  H   1.0    0.09    0.99    1.43    76.97608    46.97676    58.54206
   394  H   1.0    0.11    0.99    1.43    74.71351    44.51875    58.31884
   395  H   1.0    0.14    0.99    1.43    76.16188    45.20528    61.22552
   396  N   5.0   -0.48    3.02    1.93    80.64107    38.56716    55.81872
   397  C   4.0    0.07    3.99    3.60    82.87871    37.21067    55.04804
   398  C   4.0    0.26    3.02    3.02    84.77469    39.13601    54.02903
   399  O   6.0   -0.46    1.00    1.80    84.07718    41.02025    52.89132
   400  C   4.0   -0.01    3.98    3.59    82.18235    35.32150    52.94230
   401  O   6.0   -0.48    1.99    1.82    80.25669    33.66302    53.68405
   402  H   1.0    0.29    1.00    1.43    79.88945    39.69671    54.46062
   403  H   1.0    0.12    0.99    1.43    83.61930    36.20521    56.69809
   404  H   1.0    0.14    0.99    1.43    81.43245    36.36462    51.32256
   405  H   1.0    0.11    0.99    1.43    83.89730    34.30089    52.36410
   406  H   1.0    0.26    0.99    1.43    80.71061    32.85575    55.25702
   407  N   5.0   -0.49    3.01    1.93    87.21971    38.71151    54.48931
   408  C   4.0    0.07    4.00    3.62    89.08345    40.48900    53.56304
   409  C   4.0    0.27    3.01    3.02    89.76195    39.80252    50.82427
   410  O   6.0   -0.42    1.00    1.80    89.89310    37.60158    50.10822
   411  C   4.0   -0.13    3.99    3.60    91.44049    40.53125    55.23773
   412  C   4.0   -0.03    3.02    3.02    91.09926    41.78804    57.78137
   413  C   4.0   -0.08    3.03    3.02    88.90408    41.53320    59.19930
   414  C   4.0   -0.10    3.04    3.02    93.07641    43.19044    58.79922
   415  C   4.0   -0.10    3.03    3.02    88.69988    42.63136    61.56506
   416  C   4.0   -0.11    3.03    3.02    92.89192    44.25185    61.18213
   417  C   4.0   -0.11    3.03    3.02    90.69994    43.97352    62.57966
   418  H   1.0    0.23    1.00    1.43    87.85337    37.04668    55.21919
   419  H   1.0    0.12    0.99    1.43    88.19877    42.35735    53.55949
   420  H   1.0    0.12    0.99    1.43    92.02143    38.56940    55.51638
   421  H   1.0    0.11    0.99    1.43    92.91620    41.51953    54.19105
   422  H   1.0    0.14    1.00    1.43    87.31618    40.49981    58.45714
   423  H   1.0    0.11    1.00    1.43    94.76731    43.49408    57.70892
   424  H   1.0    0.12    1.00    1.43    86.96198    42.43444    62.61013
   425  H   1.0    0.10    1.00    1.43    94.46782    45.29259    61.94579
   426  H   1.0    0.10    1.00    1.43    90.53996    44.80954    64.42975
   427  N   5.0   -0.50    3.01    1.93    90.19053    41.78341    49.30897
   428  C   4.0    0.07    3.99    3.60    90.68513    41.51749    46.62751
   429  C   4.0    0.07    3.00    3.02    93.49664    41.95282    46.06351
   430  O   6.0   -0.44    1.00    1.80    94.31396    43.87961    45.11869
   431  C   4.0   -0.12    3.98    3.59    89.06973    43.35696    45.08676
   432  C   4.0   -0.11    3.98    3.58    88.44403    42.39516    42.42103
   433  C   4.0   -0.21    3.98    3.59    90.82228    41.70605    40.93950
   434  C   4.0   -0.22    3.98    3.59    86.58388    40.18999    42.47270
   435  H   1.0    0.28    1.00    1.43    90.27861    43.55877    50.03026
   436  H   1.0    0.13    0.99    1.43    90.21800    39.55402    46.16590
   437  H   1.0    0.12    0.99    1.43    87.30839    43.70265    46.09991
   438  H   1.0    0.13    0.99    1.43    90.12090    45.12762    44.93425
   439  H   1.0    0.10    0.99    1.43    87.52834    43.96576    41.43319
   440  H   1.0    0.09    0.99    1.43    90.31165    41.10135    39.04502
   441  H   1.0    0.12    0.99    1.43    92.07467    43.32942    40.81982
   442  H   1.0    0.11    0.99    1.43    91.86304    40.16454    41.81621
   443  H   1.0    0.10    0.99    1.43    86.32956    39.43601    40.58241
   444  H   1.0    0.11    0.99    1.43    87.24774    38.66536    43.67936
   445  H   1.0    0.11    0.99    1.43    84.75525    40.80709    43.17153
   446  N   5.0   -0.71    3.01    1.93    89.02230    34.83194    61.28441
   447  C   4.0    0.07    3.98    3.59    86.35237    35.37881    61.50119
   448  C   4.0    0.27    3.02    3.02    85.92522    36.24686    64.23490
   449  O   6.0   -0.43    1.00    1.80    87.53241    35.89494    65.84539
   450  C   4.0   -0.21    3.98    3.59    84.79475    33.00737    60.89714
   451  H   1.0    0.30    1.00    1.43    89.85913    34.58076    62.99458
   452  H   1.0    0.12    0.99    1.43    85.84292    36.89990    60.19502
   453  H   1.0    0.13    0.99    1.43    82.78029    33.38072    61.02688
   454  H   1.0    0.10    0.99    1.43    85.23931    32.38459    58.98668
   455  H   1.0    0.11    0.99    1.43    85.28509    31.48389    62.18552
   456  N   5.0   -0.51    3.01    1.93    83.70909    37.39117    64.67098
   457  C   4.0    0.11    4.00    3.61    82.94746    38.11198    67.18559
   458  C   4.0    0.28    3.01    3.02    80.09492    37.89398    67.45007
   459  O   6.0   -0.48    1.00    1.80    78.65864    38.31800    65.67139
   460  C   4.0    0.04    3.98    3.58    83.77233    40.84755    67.87346
   461  O   6.0   -0.48    1.99    1.83    83.24398    41.12189    70.47102
   462  C   4.0   -0.20    3.98    3.58    82.44851    42.84285    66.27009
   463  H   1.0    0.30    1.00    1.43    82.41244    37.56070    63.26344
   464  H   1.0    0.14    0.99    1.43    83.90015    36.86616    68.54394
   465  H   1.0    0.11    0.99    1.43    85.82804    40.94041    67.54046
   466  H   1.0    0.25    0.99    1.43    83.57183    42.84444    70.97549
   467  H   1.0    0.09    0.99    1.43    83.25555    44.70026    66.62445
   468  H   1.0    0.12    0.99    1.43    82.69055    42.38039    64.28618
   469  H   1.0    0.14    0.99    1.43    80.44121    42.89270    66.72047
   470  N   5.0   -0.49    3.01    1.93    79.28826    37.18893    69.73249
   471  C   4.0    0.07    3.99    3.61    76.64130    37.28172    70.44123
   472  C   4.0    0.27    3.01    3.02    76.25100    39.72342    71.95620
   473  O   6.0   -0.40    1.00    1.80    77.70149    40.33993    73.63730
   474  C   4.0   -0.12    3.99    3.60    75.84650    34.97745    72.01927
   475  C   4.0   -0.03    3.03    3.02    74.95034    32.81230    70.40347
   476  C   4.0   -0.08    3.03    3.02    76.31355    32.02937    68.29990
   477  C   4.0   -0.09    3.03    3.02    72.70116    31.58570    70.97572
   478  C   4.0   -0.09    3.03    3.02    75.42260    30.10235    66.77479
   479  C   4.0   -0.10    3.03    3.02    71.82592    29.63224    69.47328
   480  C   4.0   -0.10    3.03    3.02    73.17888    28.89207    67.36024
   481  H   1.0    0.26    1.00    1.43    80.52705    37.21779    71.18941
   482  H   1.0    0.13    0.99    1.43    75.53457    37.35065    68.69844
   483  H   1.0    0.12    0.99    1.43    77.43955    34.38803    73.19059
   484  H   1.0    0.12    0.99    1.43    74.32528    35.55633    73.28629
   485  H   1.0    0.14    1.00    1.43    78.07177    32.94649    67.82640
   486  H   1.0    0.12    1.00    1.43    71.61817    32.17537    72.60210
   487  H   1.0    0.12    1.00    1.43    76.48103    29.56472    65.11699
   488  H   1.0    0.12    1.00    1.43    70.07946    28.69153    69.94756
   489  H   1.0    0.12    1.00    1.43    72.49286    27.37759    66.17698
   490  N   5.0   -0.48    3.01    1.93    74.28791    41.13709    71.21298
   491  C   4.0    0.07    3.99    3.61    73.71461    43.53667    72.40532
   492  C   4.0    0.27    3.02    3.02    71.03137    43.41793    73.46340
   493  O   6.0   -0.41    1.00    1.80    70.12898    41.38794    74.12411
   494  C   4.0   -0.13    3.98    3.59    74.31772    45.71959    70.60598
   495  C   4.0   -0.10    3.99    3.60    72.60763    45.78608    68.27489
   496  C   4.0    0.27    3.00    3.02    73.45747    47.92465    66.56525
   497  O   6.0   -0.44    1.00    1.80    74.68683    47.59035    64.63765
   498  N   5.0   -0.65    3.01    1.93    72.77686    50.21576    67.39397
   499  H   1.0    0.26    1.00    1.43    73.01928    40.49404    69.93950
   500  H   1.0    0.15    0.99    1.43    74.99581    43.64914    74.03834
   501  H   1.0    0.14    0.99    1.43    74.16256    47.50517    71.61643
   502  H   1.0    0.13    0.99    1.43    76.27713    45.49539    69.99450
   503  H   1.0    0.14    0.99    1.43    72.71145    44.00612    67.24441
   504  H   1.0    0.14    0.99    1.43    70.65173    46.11034    68.82907
   505  H   1.0    0.31    1.00    1.43    71.91970    50.45367    69.08504
   506  H   1.0    0.28    1.00    1.43    73.29678    51.75879    66.41287
   507  N   5.0   -0.49    3.01    1.93    69.75484    45.58883    73.73720
   508  C   4.0    0.07    4.00    3.61    67.24915    45.49714    74.82208
   509  C   4.0    0.06    3.00    3.02    65.59587    47.50300    73.57518
   510  O   6.0   -0.38    1.00    1.80    66.39100    48.83530    71.87098
   511  C   4.0   -0.09    3.98    3.59    67.37677    45.66216    77.73166
   512  C   4.0    0.27    3.00    3.02    65.66016    43.73423    79.01732
   513  O   6.0   -0.38    1.00    1.80    64.00260    44.35113    80.49586
   514  N   5.0   -0.65    3.00    1.93    66.14213    41.33801    78.37185
   515  H   1.0    0.29    1.00    1.43    70.46394    47.30508    73.27677
   516  H   1.0    0.15    0.99    1.43    66.46061    43.65234    74.29383
   517  H   1.0    0.13    0.99    1.43    69.31423    45.23003    78.29621
   518  H   1.0    0.13    0.99    1.43    66.94190    47.55875    78.41156
   519  H   1.0    0.29    1.00    1.43    65.13355    39.93707    79.17637
   520  H   1.0    0.30    1.00    1.43    67.57777    40.88725    77.18733
   521  H   1.0    0.29    1.00    1.43    98.78750    46.91909    70.10939
   522  H   1.0    0.14    1.00    1.43    97.03794    46.56711    76.34430
   523  H   1.0    0.28    1.00    1.43    62.33497    55.83954    49.81089
   524  H   1.0    0.12    1.00    1.43    86.24725    57.48216    54.34208
   525  H   1.0    0.29    1.00    1.43    89.45649    55.44140    58.58280
   526  H   1.0    0.12    1.00    1.43    93.00944    58.22669    64.43892
   527  H   1.0    0.29    1.00    1.43    82.54463    61.05496    67.44103
   528  H   1.0    0.14    1.00    1.43    83.69410    56.09548    71.03779
   529  H   1.0    0.31    1.00    1.43    76.96946    59.36018    73.06380
   530  H   1.0    0.13    1.00    1.43    74.52644    60.28079    69.40383
   531  H   1.0    0.30    1.00    1.43    66.26620    32.36272    45.60686
   532  H   1.0    0.12    1.00    1.43    70.87848    30.19508    40.07464
   533  H   1.0    0.30    1.00    1.43    76.12076    27.21572    40.48315
   534  H   1.0    0.12    1.00    1.43    87.54290    31.04005    34.56789
   535  H   1.0    0.26    1.00    1.43   100.05666    55.44637    54.34287
   536  H   1.0    0.12    1.00    1.43    57.10355    36.19580    60.26226
   537  H   1.0    0.29    1.00    1.43    62.81279    42.21330    66.00779
   538  H   1.0    0.13    1.00    1.43    94.76193    40.61136    46.47653
   539  H   1.0    0.29    1.00    1.43    89.23852    33.40781    60.38017
   540  H   1.0    0.13    1.00    1.43    63.81337    47.75034    74.15187

           ------------------------------------------------- 
          |        Self-Consistent Charge Iterations        |
           ------------------------------------------------- 

          ...................................................
          :                      SETUP                      :
          :.................................................:
          :  # basis functions                1302          :
          :  # atomic orbitals                1302          :
          :  # shells                          794          :
          :  # electrons                      1428          :
          :  max. iterations                   250          :
          :  Hamiltonian                  GFN2-xTB          :
          :  restarted?                      false          :
          :  GBSA solvation                   true          :
          :  PC potential                    false          :
          :  electronic temp.          500.0000000     K    :
          :  accuracy                    0.1000000          :
          :  -> integral cutoff          0.3500000E+02      :
          :  -> integral neglect         0.1000000E-08      :
          :  -> SCF convergence          0.1000000E-06 Eh   :
          :  -> wf. convergence          0.1000000E-04 e    :
          :  Broyden damping             0.4000000          :
          ...................................................

 iter      E             dE          RMSdq      gap      omega  full diag
   1   -813.1427700 -0.813143E+03  0.408E+00    2.02       0.0  T
   2   -815.0151639 -0.187239E+01  0.211E+00    1.27       1.0  T
   3   -815.0751137 -0.599498E-01  0.114E+00    1.67       1.0  T
   4   -815.1095605 -0.344468E-01  0.251E-01    1.11       1.0  T
   5   -815.1299145 -0.203540E-01  0.889E-02    1.23       1.0  T
   6   -815.1302771 -0.362642E-03  0.409E-02    1.24       1.0  T
   7   -815.1304013 -0.124158E-03  0.177E-02    1.24       1.0  T
   8   -815.1304448 -0.435801E-04  0.612E-03    1.25       1.0  T
   9   -815.1304490 -0.417252E-05  0.289E-03    1.24       1.5  T
  10   -815.1304497 -0.660274E-06  0.124E-03    1.24       3.5  T
  11   -815.1304498 -0.121288E-06  0.522E-04    1.24       8.3  T
  12   -815.1304498 -0.465836E-07  0.237E-04    1.24      18.1  T
  13   -815.1304498 -0.804414E-08  0.122E-04    1.24      35.3  T
  14   -815.1304499 -0.178181E-08  0.638E-05    1.24      67.5  T
  15   -815.1304499 -0.590148E-09  0.259E-05    1.24     166.2  T

   *** convergence criteria satisfied after 15 iterations ***

         #    Occupation            Energy/Eh            Energy/eV
      -------------------------------------------------------------
         1        2.0000           -0.7408477             -20.1595
       ...           ...                  ...                  ...
       708        2.0000           -0.3670738              -9.9886
       709        2.0000           -0.3657478              -9.9525
       710        2.0000           -0.3636660              -9.8959
       711        2.0000           -0.3636189              -9.8946
       712        2.0000           -0.3628443              -9.8735
       713        2.0000           -0.3538979              -9.6301
       714        2.0000           -0.3445646              -9.3761 (HOMO)
       715        0.0000           -0.2988947              -8.1333 (LUMO)
       716                         -0.2950717              -8.0293
       717                         -0.2949114              -8.0249
       718                         -0.2930075              -7.9731
       719                         -0.2897474              -7.8844
       ...                                ...                  ...
      1302                          0.6660709              18.1247
      -------------------------------------------------------------
                  HL-Gap            0.0456699 Eh            1.2427 eV
             Fermi-level           -0.3218722 Eh           -8.7586 eV

 SCC (total)                   0 d,  0 h,  0 min, 11.749 sec
 SCC setup                      ...        0 min,  0.218 sec (  1.860%)
 Dispersion                     ...        0 min,  0.127 sec (  1.081%)
 integral evaluation            ...        0 min,  1.039 sec (  8.847%)
 zeroth order Hamiltonian       ...        0 min,  0.026 sec (  0.225%)
 iterations                     ...        0 min,  8.471 sec ( 72.098%)
 molecular gradient             ...        0 min,  1.814 sec ( 15.442%)
 printout                       ...        0 min,  0.052 sec (  0.446%)

         :::::::::::::::::::::::::::::::::::::::::::::::::::::
         ::                     SUMMARY                     ::
         :::::::::::::::::::::::::::::::::::::::::::::::::::::
         :: total energy             -804.827302570223 Eh   ::
         :: total w/o Gsasa/hb       -804.743164633113 Eh   ::
         :: gradient norm               0.701349732059 Eh/α ::
         :: HOMO-LUMO gap               1.242742387873 eV   ::
         ::.................................................::
         :: SCC energy               -815.155753948441 Eh   ::
         :: -> isotropic ES             1.773257325578 Eh   ::
         :: -> anisotropic ES           0.020340954917 Eh   ::
         :: -> anisotropic XC           0.278860774992 Eh   ::
         :: -> dispersion              -0.694874095595 Eh   ::
         :: -> Gsolv                   -0.230279156680 Eh   ::
         ::    -> Gborn                -0.146141219570 Eh   ::
         ::    -> Gsasa                -0.027161540623 Eh   ::
         ::    -> Ghb                  -0.058833839613 Eh   ::
         ::    -> Gshift                0.001857443127 Eh   ::
         :: repulsion energy           10.256363523494 Eh   ::
         :: add. restraining            0.000000000000 Eh   ::
         :::::::::::::::::::::::::::::::::::::::::::::::::::::

           -------------------------------------------------
          |                Property Printout                |
           -------------------------------------------------

    * Orbital Energies and Occupations

         #    Occupation            Energy/Eh            Energy/eV
      -------------------------------------------------------------
         1        2.0000           -0.7408477             -20.1595
       ...           ...                  ...                  ...
       702        2.0000           -0.3851110             -10.4794
       703        2.0000           -0.3837017             -10.4411
       704        2.0000           -0.3830804             -10.4241
       705        2.0000           -0.3800030             -10.3404
       706        2.0000           -0.3745158             -10.1911
       707        2.0000           -0.3685483             -10.0287
       708        2.0000           -0.3670738              -9.9886
       709        2.0000           -0.3657478              -9.9525
       710        2.0000           -0.3636660              -9.8959
       711        2.0000           -0.3636189              -9.8946
       712        2.0000           -0.3628443              -9.8735
       713        2.0000           -0.3538979              -9.6301
       714        2.0000           -0.3445646              -9.3761 (HOMO)
       715        0.0000           -0.2988947              -8.1333 (LUMO)
       716                         -0.2950717              -8.0293
       717                         -0.2949114              -8.0249
       718                         -0.2930075              -7.9731
       719                         -0.2897474              -7.8844
       720                         -0.2893588              -7.8739
       721                         -0.2868050              -7.8044
       722                         -0.2830372              -7.7018
       723                         -0.2780547              -7.5663
       724                         -0.2724622              -7.4141
       725                         -0.2468730              -6.7178
       ...                                ...                  ...
      1302                          0.6660709              18.1247
      -------------------------------------------------------------
                  HL-Gap            0.0456699 Eh            1.2427 eV
             Fermi-level           -0.3218722 Eh           -8.7586 eV

   #   Z        covCN         q      C6AA      α(0)
   1   7 N      2.638    -0.397    30.293     8.174
   2   6 C      3.781     0.041    19.900     6.355
   3   6 C      2.764     0.206    23.633     7.961
   4   8 O      0.856    -0.384    21.371     6.198
   5   6 C      3.808    -0.071    21.854     6.655
   6   6 C      3.848    -0.014    20.783     6.485
   7   6 C      3.753    -0.113    22.716     6.796
   8   6 C      3.753    -0.111    22.678     6.791
   9   1 H      0.860     0.168     1.287     1.777
  10   1 H      0.924     0.051     2.313     2.378
  11   1 H      0.924     0.055     2.255     2.348
  12   1 H      0.924     0.047     2.359     2.402
  13   1 H      0.924     0.038     2.479     2.462
  14   1 H      0.925     0.042     2.418     2.432
  15   1 H      0.925     0.031     2.578     2.511
  16   1 H      0.925     0.039     2.465     2.455
  17   1 H      0.925     0.037     2.486     2.466
  18   1 H      0.925     0.040     2.443     2.444
  19   1 H      0.925     0.042     2.426     2.436
  20   7 N      2.638    -0.394    30.218     8.164
  21   6 C      3.785     0.031    20.072     6.382
  22   6 C      2.774     0.274    22.376     7.747
  23   8 O      0.859    -0.481    23.376     6.482
  24   6 C      3.811    -0.070    21.829     6.650
  25   6 C      3.849    -0.011    20.730     6.476
  26   6 C      3.755    -0.112    22.705     6.794
  27   6 C      3.755    -0.111    22.678     6.790
  28   1 H      0.860     0.164     1.312     1.794
  29   1 H      0.924     0.037     2.495     2.470
  30   1 H      0.924     0.044     2.390     2.418
  31   1 H      0.924     0.041     2.430     2.438
  32   1 H      0.924     0.027     2.630     2.536
  33   1 H      0.925     0.037     2.485     2.465
  34   1 H      0.925     0.033     2.542     2.493
  35   1 H      0.925     0.039     2.461     2.453
  36   1 H      0.925     0.038     2.477     2.461
  37   1 H      0.925     0.041     2.439     2.442
  38   1 H      0.925     0.037     2.490     2.468
  39   7 N      2.689    -0.190    25.127     7.445
  40   6 C      3.807     0.030    20.061     6.376
  41   6 C      2.756     0.270    22.442     7.758
  42   8 O      0.859    -0.502    23.827     6.545
  43   6 C      3.810    -0.075    21.924     6.665
  44   6 C      2.970    -0.004    28.130     8.700
  45   6 C      2.925    -0.045    29.105     8.847
  46   6 C      2.925    -0.040    28.984     8.829
  47   6 C      2.918    -0.077    29.913     8.969
  48   6 C      2.916    -0.059    29.463     8.901
  49   6 C      2.848     0.148    24.785     8.159
  50   8 O      1.660    -0.432    21.478     6.256
  51   1 H      0.860     0.208     1.065     1.617
  52   1 H      0.923     0.067     2.123     2.279
  53   1 H      0.925     0.059     2.216     2.328
  54   1 H      0.924     0.063     2.164     2.300
  55   1 H      0.926     0.047     2.362     2.403
  56   1 H      0.926     0.036     2.501     2.473
  57   1 H      0.926     0.046     2.371     2.408
  58   1 H      0.926     0.051     2.309     2.376
  59   1 H      0.805     0.351     0.585     1.201
  60   7 N      2.766    -0.075    22.688     7.074
  61   6 C      3.853     0.020    20.204     6.393
  62   6 C      2.760     0.275    22.343     7.741
  63   8 O      0.859    -0.459    22.892     6.415
  64   6 C      3.832    -0.073    21.868     6.653
  65   6 C      3.828    -0.074    21.891     6.657
  66   6 C      3.778    -0.016    20.882     6.510
  67   1 H      0.924     0.066     2.135     2.285
  68   1 H      0.925     0.059     2.209     2.324
  69   1 H      0.924     0.063     2.159     2.298
  70   1 H      0.925     0.056     2.244     2.343
  71   1 H      0.925     0.070     2.085     2.258
  72   1 H      0.924     0.074     2.041     2.234
  73   1 H      0.925     0.068     2.105     2.269
  74   7 N      2.686    -0.178    24.855     7.404
  75   6 C      3.745    -0.028    21.150     6.560
  76   6 C      2.751     0.301    21.896     7.662
  77   8 O      0.858    -0.482    23.385     6.483
  78   1 H      0.860     0.207     1.069     1.620
  79   1 H      0.924     0.082     1.957     2.188
  80   1 H      0.924     0.086     1.919     2.167
  81   7 N      2.694    -0.163    24.526     7.355
  82   6 C      3.794     0.022    20.213     6.402
  83   6 C      2.758     0.265    22.532     7.773
  84   8 O      0.859    -0.485    23.444     6.492
  85   6 C      3.757    -0.131    23.073     6.848
  86   1 H      0.860     0.178     1.228     1.736
  87   1 H      0.924     0.078     1.997     2.210
  88   1 H      0.925     0.071     2.070     2.250
  89   1 H      0.925     0.080     1.978     2.199
  90   1 H      0.925     0.051     2.302     2.373
  91   7 N      2.695    -0.171    24.705     7.382
  92   6 C      3.798     0.011    20.399     6.431
  93   6 C      2.761     0.271    22.424     7.755
  94   8 O      0.858    -0.499    23.762     6.536
  95   6 C      3.808    -0.072    21.878     6.658
  96   6 C      3.849    -0.010    20.724     6.475
  97   6 C      3.755    -0.118    22.808     6.810
  98   6 C      3.757    -0.116    22.781     6.805
  99   1 H      0.860     0.202     1.097     1.641
 100   1 H      0.924     0.089     1.889     2.149
 101   1 H      0.925     0.055     2.258     2.350
 102   1 H      0.924     0.050     2.322     2.383
 103   1 H      0.924     0.023     2.682     2.561
 104   1 H      0.925     0.049     2.336     2.390
 105   1 H      0.925     0.037     2.489     2.467
 106   1 H      0.925     0.044     2.391     2.418
 107   1 H      0.925     0.045     2.381     2.413
 108   1 H      0.925     0.046     2.376     2.411
 109   1 H      0.925     0.038     2.482     2.463
 110   7 N      2.692    -0.174    24.762     7.391
 111   6 C      3.789     0.023    20.194     6.400
 112   6 C      2.769     0.195    23.843     7.997
 113   8 O      0.856    -0.361    20.916     6.132
 114   6 C      3.812    -0.073    21.886     6.659
 115   6 C      3.850    -0.015    20.811     6.489
 116   6 C      3.757    -0.118    22.818     6.811
 117   6 C      3.759    -0.119    22.827     6.811
 118   1 H      0.860     0.231     0.960     1.535
 119   1 H      0.924     0.096     1.822     2.111
 120   1 H      0.924     0.061     2.189     2.314
 121   1 H      0.924     0.063     2.165     2.301
 122   1 H      0.924     0.049     2.336     2.390
 123   1 H      0.925     0.052     2.301     2.372
 124   1 H      0.925     0.038     2.473     2.459
 125   1 H      0.925     0.032     2.563     2.503
 126   1 H      0.925     0.051     2.303     2.373
 127   1 H      0.925     0.038     2.481     2.463
 128   1 H      0.925     0.051     2.308     2.376
 129   7 N      2.637    -0.378    29.764     8.103
 130   6 C      3.784     0.033    20.032     6.375
 131   6 C      2.766     0.207    23.610     7.958
 132   8 O      0.856    -0.367    21.042     6.150
 133   6 C      3.849    -0.017    20.847     6.494
 134   6 C      3.754    -0.106    22.576     6.775
 135   6 C      3.755    -0.115    22.755     6.802
 136   1 H      0.860     0.166     1.298     1.784
 137   1 H      0.924     0.051     2.305     2.374
 138   1 H      0.924     0.042     2.421     2.433
 139   1 H      0.925     0.039     2.466     2.456
 140   1 H      0.925     0.044     2.396     2.421
 141   1 H      0.925     0.042     2.423     2.434
 142   1 H      0.925     0.048     2.346     2.395
 143   1 H      0.925     0.031     2.565     2.505
 144   1 H      0.925     0.042     2.429     2.437
 145   7 N      2.636    -0.395    30.227     8.165
 146   6 C      3.782     0.041    19.904     6.355
 147   6 C      2.767     0.196    23.811     7.992
 148   8 O      0.856    -0.374    21.162     6.168
 149   6 C      3.806    -0.072    21.864     6.656
 150   6 C      3.849    -0.016    20.818     6.490
 151   6 C      3.757    -0.116    22.771     6.803
 152   6 C      3.756    -0.119    22.827     6.812
 153   1 H      0.860     0.171     1.268     1.764
 154   1 H      0.923     0.044     2.400     2.423
 155   1 H      0.924     0.058     2.228     2.334
 156   1 H      0.924     0.048     2.346     2.395
 157   1 H      0.924     0.037     2.495     2.470
 158   1 H      0.925     0.045     2.381     2.413
 159   1 H      0.925     0.034     2.524     2.484
 160   1 H      0.925     0.046     2.372     2.408
 161   1 H      0.925     0.043     2.409     2.427
 162   1 H      0.925     0.034     2.528     2.486
 163   1 H      0.925     0.043     2.411     2.428
 164   7 N      2.633    -0.384    29.931     8.125
 165   6 C      3.782     0.038    19.951     6.363
 166   6 C      2.763     0.190    23.927     8.011
 167   8 O      0.856    -0.382    21.332     6.192
 168   6 C      3.808    -0.111    22.614     6.769
 169   6 C      2.743     0.288    22.121     7.701
 170   8 O      0.859    -0.501    23.805     6.542
 171   7 N      2.639    -0.270    26.988     7.716
 172   1 H      0.860     0.192     1.150     1.680
 173   1 H      0.924     0.082     1.959     2.189
 174   1 H      0.925     0.087     1.911     2.162
 175   1 H      0.925     0.084     1.934     2.175
 176   1 H      0.860     0.227     0.979     1.550
 177   1 H      0.860     0.239     0.927     1.509
 178   7 N      2.637    -0.383    29.910     8.123
 179   6 C      3.783     0.033    20.042     6.377
 180   6 C      2.764     0.202    23.708     7.974
 181   8 O      0.856    -0.370    21.097     6.158
 182   6 C      3.852    -0.016    20.817     6.489
 183   6 C      3.756    -0.102    22.503     6.764
 184   6 C      3.757    -0.122    22.895     6.822
 185   1 H      0.860     0.162     1.320     1.800
 186   1 H      0.924     0.055     2.264     2.353
 187   1 H      0.924     0.046     2.365     2.405
 188   1 H      0.925     0.037     2.483     2.464
 189   1 H      0.925     0.042     2.425     2.435
 190   1 H      0.925     0.033     2.544     2.494
 191   1 H      0.925     0.046     2.370     2.408
 192   1 H      0.925     0.047     2.359     2.402
 193   1 H      0.925     0.046     2.376     2.410
 194   7 N      2.634    -0.383    29.892     8.120
 195   6 C      3.787     0.034    20.012     6.372
 196   6 C      2.755     0.272    22.404     7.751
 197   8 O      0.858    -0.486    23.476     6.496
 198   6 C      3.756    -0.121    22.871     6.819
 199   1 H      0.860     0.157     1.352     1.822
 200   1 H      0.924     0.043     2.410     2.428
 201   1 H      0.925     0.046     2.367     2.406
 202   1 H      0.925     0.057     2.232     2.336
 203   1 H      0.925     0.045     2.378     2.411
 204   7 N      2.694    -0.173    24.746     7.388
 205   6 C      3.797     0.022    20.205     6.400
 206   6 C      2.768     0.205    23.648     7.964
 207   8 O      0.856    -0.362    20.934     6.134
 208   6 C      3.853    -0.013    20.778     6.483
 209   6 C      3.756    -0.120    22.846     6.815
 210   6 C      3.756    -0.120    22.861     6.817
 211   1 H      0.860     0.206     1.078     1.626
 212   1 H      0.924     0.081     1.964     2.192
 213   1 H      0.924     0.055     2.254     2.348
 214   1 H      0.925     0.060     2.199     2.319
 215   1 H      0.925     0.040     2.455     2.450
 216   1 H      0.925     0.051     2.302     2.373
 217   1 H      0.925     0.060     2.201     2.320
 218   1 H      0.924     0.048     2.343     2.394
 219   1 H      0.925     0.046     2.368     2.407
 220   7 N      2.702    -0.286    27.370     7.770
 221   6 C      3.812     0.027    20.111     6.383
 222   6 C      2.749     0.267    22.489     7.765
 223   8 O      0.858    -0.470    23.135     6.449
 224   6 C      3.834    -0.064    21.694     6.627
 225   6 C      3.824    -0.065    21.724     6.632
 226   6 C      3.767     0.018    20.314     6.424
 227   1 H      0.924     0.024     2.680     2.560
 228   1 H      0.925     0.037     2.486     2.466
 229   1 H      0.925     0.047     2.359     2.402
 230   1 H      0.924     0.049     2.331     2.387
 231   1 H      0.925     0.045     2.380     2.412
 232   1 H      0.925     0.038     2.478     2.462
 233   1 H      0.924     0.011     2.872     2.650
 234   7 N      2.688    -0.178    24.861     7.405
 235   6 C      3.794     0.012    20.376     6.428
 236   6 C      2.749     0.274    22.361     7.743
 237   8 O      0.858    -0.478    23.298     6.471
 238   6 C      3.804    -0.079    22.014     6.680
 239   6 C      3.848    -0.012    20.765     6.482
 240   6 C      3.758    -0.110    22.658     6.787
 241   6 C      3.757    -0.117    22.785     6.806
 242   1 H      0.860     0.197     1.123     1.660
 243   1 H      0.924     0.086     1.920     2.167
 244   1 H      0.924     0.057     2.239     2.340
 245   1 H      0.924     0.057     2.233     2.337
 246   1 H      0.924     0.043     2.415     2.430
 247   1 H      0.925     0.046     2.374     2.410
 248   1 H      0.925     0.035     2.510     2.478
 249   1 H      0.925     0.040     2.453     2.449
 250   1 H      0.925     0.044     2.399     2.422
 251   1 H      0.925     0.043     2.406     2.426
 252   1 H      0.925     0.033     2.551     2.497
 253   7 N      2.693    -0.176    24.804     7.397
 254   6 C      3.790     0.016    20.309     6.418
 255   6 C      2.758     0.266    22.505     7.769
 256   8 O      0.859    -0.482    23.380     6.483
 257   6 C      3.850    -0.021    20.910     6.504
 258   6 C      3.757    -0.121    22.869     6.818
 259   6 C      3.756    -0.110    22.663     6.788
 260   1 H      0.860     0.217     1.025     1.586
 261   1 H      0.924     0.063     2.169     2.303
 262   1 H      0.924     0.046     2.368     2.406
 263   1 H      0.925     0.068     2.109     2.271
 264   1 H      0.925     0.036     2.501     2.473
 265   1 H      0.925     0.047     2.358     2.402
 266   1 H      0.925     0.059     2.211     2.325
 267   1 H      0.925     0.040     2.443     2.444
 268   1 H      0.925     0.039     2.464     2.455
 269   7 N      2.687    -0.175    24.799     7.396
 270   6 C      3.795     0.025    20.167     6.395
 271   6 C      2.760     0.270    22.433     7.756
 272   8 O      0.859    -0.471    23.159     6.452
 273   6 C      3.807    -0.070    21.836     6.652
 274   6 C      2.964    -0.003    28.087     8.693
 275   6 C      2.927    -0.039    28.964     8.826
 276   6 C      2.928    -0.040    28.999     8.831
 277   6 C      2.918    -0.074    29.854     8.960
 278   6 C      2.918    -0.059    29.475     8.903
 279   6 C      2.845     0.142    24.900     8.178
 280   8 O      1.659    -0.428    21.390     6.244
 281   1 H      0.860     0.244     0.909     1.493
 282   1 H      0.924     0.071     2.079     2.255
 283   1 H      0.924     0.055     2.263     2.353
 284   1 H      0.924     0.078     2.003     2.213
 285   1 H      0.926     0.049     2.327     2.385
 286   1 H      0.926     0.037     2.493     2.469
 287   1 H      0.925     0.037     2.488     2.467
 288   1 H      0.926     0.057     2.234     2.337
 289   1 H      0.805     0.341     0.610     1.226
 290   7 N      2.689    -0.168    24.631     7.371
 291   6 C      3.808     0.014    20.341     6.420
 292   6 C      2.752     0.276    22.340     7.740
 293   8 O      0.858    -0.478    23.293     6.471
 294   6 C      3.849    -0.015    20.801     6.487
 295   6 C      3.804    -0.071    21.849     6.655
 296   6 C      3.756    -0.112    22.692     6.792
 297   6 C      3.751    -0.110    22.674     6.791
 298   1 H      0.860     0.190     1.161     1.688
 299   1 H      0.924     0.065     2.143     2.289
 300   1 H      0.924     0.040     2.451     2.448
 301   1 H      0.925     0.045     2.383     2.414
 302   1 H      0.925     0.043     2.410     2.428
 303   1 H      0.925     0.066     2.133     2.284
 304   1 H      0.925     0.034     2.535     2.490
 305   1 H      0.925     0.041     2.439     2.442
 306   1 H      0.925     0.045     2.383     2.414
 307   1 H      0.925     0.053     2.277     2.360
 308   1 H      0.925     0.037     2.486     2.466
 309   7 N      2.694    -0.195    25.228     7.460
 310   6 C      3.791     0.009    20.441     6.439
 311   6 C      2.755     0.275    22.345     7.741
 312   8 O      0.859    -0.471    23.141     6.450
 313   6 C      3.680     0.071    19.605     6.342
 314   8 O      1.656    -0.466    22.164     6.355
 315   1 H      0.860     0.214     1.036     1.594
 316   1 H      0.924     0.085     1.931     2.173
 317   1 H      0.924     0.052     2.292     2.368
 318   1 H      0.924     0.048     2.348     2.396
 319   1 H      0.805     0.344     0.601     1.218
 320   7 N      2.690    -0.164    24.555     7.360
 321   6 C      3.798     0.017    20.299     6.415
 322   6 C      2.752     0.280    22.259     7.726
 323   8 O      0.858    -0.467    23.065     6.439
 324   6 C      3.676     0.074    19.554     6.336
 325   8 O      1.656    -0.478    22.421     6.392
 326   1 H      0.860     0.214     1.036     1.594
 327   1 H      0.924     0.071     2.077     2.254
 328   1 H      0.924     0.043     2.406     2.426
 329   1 H      0.923     0.048     2.349     2.397
 330   1 H      0.805     0.348     0.594     1.210
 331   7 N      2.694    -0.160    24.466     7.346
 332   6 C      3.787     0.019    20.272     6.413
 333   6 C      2.766     0.201    23.726     7.977
 334   8 O      0.856    -0.359    20.878     6.126
 335   6 C      3.850    -0.013    20.767     6.482
 336   6 C      3.755    -0.116    22.773     6.805
 337   6 C      3.755    -0.125    22.945     6.830
 338   1 H      0.860     0.211     1.049     1.605
 339   1 H      0.924     0.092     1.859     2.132
 340   1 H      0.924     0.056     2.252     2.347
 341   1 H      0.925     0.054     2.265     2.353
 342   1 H      0.925     0.041     2.437     2.441
 343   1 H      0.925     0.050     2.326     2.385
 344   1 H      0.925     0.060     2.201     2.320
 345   1 H      0.925     0.055     2.261     2.351
 346   1 H      0.925     0.050     2.322     2.383
 347   7 N      2.637    -0.385    29.960     8.129
 348   6 C      3.783     0.033    20.045     6.378
 349   6 C      2.765     0.272    22.413     7.753
 350   8 O      0.859    -0.488    23.530     6.504
 351   6 C      3.818    -0.066    21.757     6.638
 352   6 C      2.966    -0.002    28.065     8.690
 353   6 C      2.927    -0.040    28.992     8.830
 354   6 C      2.924    -0.041    29.025     8.835
 355   6 C      2.917    -0.074    29.854     8.960
 356   6 C      2.917    -0.061    29.519     8.909
 357   6 C      2.847     0.145    24.849     8.170
 358   8 O      1.658    -0.429    21.427     6.249
 359   1 H      0.860     0.158     1.349     1.820
 360   1 H      0.924     0.048     2.350     2.397
 361   1 H      0.924     0.046     2.372     2.408
 362   1 H      0.924     0.030     2.583     2.513
 363   1 H      0.926     0.036     2.509     2.477
 364   1 H      0.926     0.037     2.488     2.467
 365   1 H      0.926     0.042     2.423     2.434
 366   1 H      0.926     0.050     2.316     2.380
 367   1 H      0.804     0.345     0.601     1.218
 368   7 N      2.688    -0.180    24.888     7.409
 369   6 C      3.796     0.013    20.357     6.425
 370   6 C      2.760     0.277    22.321     7.737
 371   8 O      0.858    -0.490    23.573     6.510
 372   6 C      3.722     0.124    18.659     6.169
 373   8 O      1.655    -0.477    22.394     6.388
 374   6 C      3.753    -0.123    22.920     6.827
 375   1 H      0.860     0.220     1.011     1.575
 376   1 H      0.923     0.057     2.231     2.336
 377   1 H      0.923     0.017     2.778     2.606
 378   1 H      0.804     0.321     0.661     1.277
 379   1 H      0.925     0.066     2.133     2.284
 380   1 H      0.925     0.060     2.201     2.320
 381   1 H      0.925     0.058     2.222     2.331
 382   7 N      2.690    -0.165    24.576     7.363
 383   6 C      3.803     0.004    20.518     6.449
 384   6 C      2.755     0.276    22.337     7.739
 385   8 O      0.858    -0.469    23.102     6.444
 386   6 C      3.726     0.108    18.908     6.208
 387   8 O      1.656    -0.460    22.041     6.338
 388   6 C      3.752    -0.138    23.221     6.872
 389   1 H      0.860     0.229     0.969     1.542
 390   1 H      0.924     0.063     2.160     2.298
 391   1 H      0.924     0.053     2.286     2.365
 392   1 H      0.805     0.321     0.662     1.278
 393   1 H      0.925     0.069     2.101     2.267
 394   1 H      0.925     0.045     2.380     2.413
 395   1 H      0.925     0.075     2.026     2.226
 396   7 N      2.698    -0.175    24.777     7.393
 397   6 C      3.791     0.004    20.526     6.452
 398   6 C      2.766     0.264    22.550     7.777
 399   8 O      0.860    -0.461    22.934     6.421
 400   6 C      3.679     0.070    19.612     6.344
 401   8 O      1.656    -0.460    22.044     6.338
 402   1 H      0.860     0.231     0.962     1.536
 403   1 H      0.924     0.079     1.986     2.204
 404   1 H      0.924     0.066     2.130     2.283
 405   1 H      0.923     0.045     2.385     2.415
 406   1 H      0.805     0.334     0.628     1.245
 407   7 N      2.690    -0.157    24.405     7.337
 408   6 C      3.802     0.022    20.208     6.400
 409   6 C      2.754     0.268    22.476     7.763
 410   8 O      0.858    -0.486    23.466     6.495
 411   6 C      3.809    -0.078    21.991     6.675
 412   6 C      2.965     0.012    27.739     8.639
 413   6 C      2.925    -0.038    28.943     8.823
 414   6 C      2.927    -0.040    29.006     8.832
 415   6 C      2.920    -0.030    28.737     8.791
 416   6 C      2.920    -0.032    28.787     8.798
 417   6 C      2.920    -0.033    28.826     8.804
 418   1 H      0.860     0.213     1.044     1.601
 419   1 H      0.924     0.074     2.045     2.236
 420   1 H      0.924     0.075     2.036     2.231
 421   1 H      0.924     0.064     2.151     2.294
 422   1 H      0.926     0.030     2.586     2.515
 423   1 H      0.926     0.038     2.478     2.462
 424   1 H      0.926     0.035     2.522     2.483
 425   1 H      0.926     0.039     2.467     2.456
 426   1 H      0.926     0.039     2.458     2.452
 427   7 N      2.689    -0.180    24.900     7.411
 428   6 C      3.790     0.026    20.140     6.391
 429   6 C      2.765     0.202    23.697     7.972
 430   8 O      0.856    -0.340    20.520     6.073
 431   6 C      3.807    -0.075    21.920     6.665
 432   6 C      3.849    -0.014    20.797     6.486
 433   6 C      3.755    -0.113    22.726     6.797
 434   6 C      3.755    -0.120    22.857     6.817
 435   1 H      0.860     0.220     1.009     1.573
 436   1 H      0.924     0.090     1.881     2.145
 437   1 H      0.924     0.046     2.370     2.407
 438   1 H      0.924     0.065     2.141     2.288
 439   1 H      0.924     0.045     2.379     2.412
 440   1 H      0.925     0.048     2.346     2.395
 441   1 H      0.925     0.044     2.395     2.420
 442   1 H      0.925     0.028     2.617     2.530
 443   1 H      0.925     0.051     2.312     2.378
 444   1 H      0.925     0.035     2.523     2.484
 445   1 H      0.925     0.039     2.459     2.452
 446   7 N      2.640    -0.398    30.327     8.179
 447   6 C      3.784     0.031    20.064     6.380
 448   6 C      2.761     0.273    22.381     7.747
 449   8 O      0.858    -0.486    23.476     6.496
 450   6 C      3.754    -0.123    22.924     6.827
 451   1 H      0.860     0.167     1.292     1.781
 452   1 H      0.924     0.041     2.442     2.444
 453   1 H      0.925     0.055     2.257     2.349
 454   1 H      0.925     0.049     2.339     2.391
 455   1 H      0.925     0.044     2.400     2.423
 456   7 N      2.689    -0.191    25.147     7.448
 457   6 C      3.798     0.021    20.222     6.403
 458   6 C      2.758     0.275    22.348     7.741
 459   8 O      0.858    -0.491    23.581     6.511
 460   6 C      3.725     0.120    18.721     6.178
 461   8 O      1.656    -0.489    22.666     6.427
 462   6 C      3.751    -0.136    23.174     6.865
 463   1 H      0.860     0.230     0.965     1.539
 464   1 H      0.923     0.073     2.055     2.242
 465   1 H      0.923     0.033     2.542     2.493
 466   1 H      0.805     0.347     0.596     1.212
 467   1 H      0.925     0.066     2.130     2.282
 468   1 H      0.925     0.067     2.118     2.276
 469   1 H      0.925     0.046     2.372     2.408
 470   7 N      2.693    -0.158    24.420     7.339
 471   6 C      3.797     0.022    20.208     6.401
[...]
   208  C   3.987        C  210 1.008    C  209 1.007    H  213 0.961    C  205 0.950
   209  C   3.993        C  208 1.007    H  216 0.985    H  215 0.983    H  214 0.980
   210  C   3.992        C  208 1.008    H  218 0.985    H  219 0.983    H  217 0.981
   211  H   0.958        N  204 0.923
   212  H   0.993        C  205 0.953
   213  H   0.997        C  208 0.961
   214  H   0.996        C  209 0.980
   215  H   0.998        C  209 0.983
   216  H   0.997        C  209 0.985
   217  H   0.996        C  210 0.981
   218  H   0.998        C  210 0.985
   219  H   0.998        C  210 0.983
   220  N   3.064        C  221 1.010    C  226 1.006    H  535 0.957
   221  C   3.988        N  220 1.010    C  224 0.978    H  227 0.956    C  222 0.933
   222  C   3.941        O  223 1.664    N  234 1.267    C  221 0.933
   223  O   1.978        C  222 1.664    N  234 0.192
   224  C   3.996        C  225 1.007    H  229 0.978    H  228 0.978    C  221 0.978
   225  C   3.996        C  224 1.007    C  226 1.005    H  231 0.979    H  230 0.974
   226  C   3.986        N  220 1.006    C  225 1.005    H  233 0.976    H  232 0.971
   227  H   0.999        C  221 0.956
   228  H   0.999        C  224 0.978
   229  H   0.998        C  224 0.978
   230  H   0.998        C  225 0.974
   231  H   0.998        C  225 0.979
   232  H   0.999        C  226 0.971
   233  H   1.000        C  226 0.976
   234  N   3.452        C  222 1.267    C  235 0.989    H  242 0.923    O  223 0.192
   235  C   3.964        N  234 0.989    C  238 0.965    H  243 0.946    C  236 0.938
   236  C   3.945        O  237 1.623    N  253 1.299    C  235 0.938
   237  O   1.981        C  236 1.623    N  253 0.193
   238  C   3.987        C  239 0.995    H  245 0.973    H  244 0.967    C  235 0.965
   239  C   3.994        C  241 1.009    C  240 1.008    C  238 0.995    H  246 0.964
   240  C   3.995        C  239 1.008    H  249 0.985    H  247 0.984    H  248 0.979
   241  C   3.995        C  239 1.009    H  250 0.986    H  251 0.985    H  252 0.981
   242  H   0.961        N  234 0.923
   243  H   0.992        C  235 0.946
   244  H   0.996        C  238 0.967
   245  H   0.996        C  238 0.973
   246  H   0.998        C  239 0.964
   247  H   0.998        C  240 0.984
   248  H   0.999        C  240 0.979
   249  H   0.998        C  240 0.985
   250  H   0.998        C  241 0.986
   251  H   0.998        C  241 0.985
   252  H   0.999        C  241 0.981
   253  N   3.467        C  236 1.299    C  254 0.987    H  260 0.902    O  237 0.193
   254  C   3.965        N  253 0.987    C  255 0.946    H  261 0.944    C  257 0.943
   255  C   3.948        O  256 1.590    N  269 1.327    C  254 0.946
   256  O   1.976        C  255 1.590    N  269 0.193
   257  C   3.987        C  258 1.010    C  259 1.007    H  262 0.955    C  254 0.943
   258  C   3.990        C  257 1.010    H  265 0.979    H  263 0.979    H  264 0.975
   259  C   3.993        C  257 1.007    H  268 0.985    H  267 0.984    H  266 0.980
   260  H   0.953        N  253 0.902
   261  H   0.996        C  254 0.944
   262  H   0.997        C  257 0.955
   263  H   0.994        C  258 0.979
   264  H   0.999        C  258 0.975
   265  H   0.998        C  258 0.979
   266  H   0.995        C  259 0.980
   267  H   0.998        C  259 0.984
   268  H   0.998        C  259 0.985
   269  N   3.487        C  255 1.327    C  270 0.988    H  281 0.871    O  256 0.193
   270  C   3.969        N  269 0.988    H  282 0.950    C  271 0.950    C  273 0.949
   271  C   3.947        O  272 1.628    N  290 1.288    C  270 0.950
   272  O   1.982        C  271 1.628    N  290 0.193
   273  C   3.986        C  274 1.013    H  283 0.967    H  284 0.954    C  270 0.949
   274  C   3.988        C  275 1.411    C  276 1.400    C  273 1.013
   275  C   3.991        C  277 1.443    C  274 1.411    H  285 0.959    C  278 0.107
   276  C   3.990        C  278 1.461    C  274 1.400    H  286 0.966    C  277 0.105
   277  C   3.987        C  275 1.443    C  279 1.374    H  287 0.964    C  276 0.105
   278  C   3.988        C  276 1.461    C  279 1.364    H  288 0.965    C  275 0.107
   279  C   3.941        C  277 1.374    C  278 1.364    O  280 1.071
   280  O   2.093        C  279 1.071    H  289 0.863
   281  H   0.940        N  269 0.871
   282  H   0.994        C  270 0.950
   283  H   0.996        C  273 0.967
   284  H   0.993        C  273 0.954
   285  H   0.998        C  275 0.959
   286  H   0.999        C  276 0.966
   287  H   0.998        C  277 0.964
   288  H   0.996        C  278 0.965
   289  H   0.884        O  280 0.863
   290  N   3.464        C  271 1.288    C  291 0.977    H  298 0.922    O  272 0.193
   291  C   3.959        N  290 0.977    C  294 0.965    H  299 0.942    C  292 0.929
   292  C   3.948        O  293 1.646    N  309 1.290    C  291 0.929
   293  O   1.961        C  292 1.646    N  309 0.197
   294  C   3.985        C  296 1.008    C  295 0.988    H  300 0.968    C  291 0.965
   295  C   3.993        C  297 1.019    C  294 0.988    H  302 0.971    H  301 0.970
   296  C   3.992        C  294 1.008    H  304 0.982    H  305 0.982    H  303 0.979
   297  C   3.993        C  295 1.019    H  306 0.985    H  308 0.983    H  307 0.982
   298  H   0.964        N  290 0.922
   299  H   0.995        C  291 0.942
   300  H   0.998        C  294 0.968
   301  H   0.998        C  295 0.970
   302  H   0.998        C  295 0.971
   303  H   0.995        C  296 0.979
   304  H   0.999        C  296 0.982
   305  H   0.998        C  296 0.982
   306  H   0.997        C  297 0.985
   307  H   0.997        C  297 0.982
   308  H   0.998        C  297 0.983
   309  N   3.461        C  292 1.290    C  310 0.986    H  315 0.897    O  293 0.197
   310  C   3.962        N  309 0.986    C  313 0.954    H  316 0.951    C  311 0.933
   311  C   3.951        O  312 1.644    N  320 1.301    C  310 0.933
   312  O   1.966        C  311 1.644    N  320 0.201
   313  C   3.959        O  314 1.017    H  317 0.967    H  318 0.965    C  310 0.954
   314  O   1.949        C  313 1.017    H  319 0.869
   315  H   0.954        N  309 0.897
   316  H   0.992        C  310 0.951
   317  H   0.997        C  313 0.967
   318  H   0.998        C  313 0.965
   319  H   0.881        O  314 0.869
   320  N   3.478        C  311 1.301    C  321 0.993    H  326 0.912    O  312 0.201
   321  C   3.971        N  320 0.993    C  324 0.963    H  327 0.949    C  322 0.936
   322  C   3.956        O  323 1.644    N  331 1.308    C  321 0.936
   323  O   1.980        C  322 1.644    N  331 0.200
   324  C   3.960        O  325 1.006    H  328 0.967    H  329 0.967    C  321 0.963
   325  O   1.929        C  324 1.006    H  330 0.865
   326  H   0.954        N  320 0.912
   327  H   0.995        C  321 0.949
   328  H   0.998        C  324 0.967
   329  H   0.998        C  324 0.967
   330  H   0.879        O  325 0.865
   331  N   3.476        C  322 1.308    C  332 0.982    H  338 0.916    O  323 0.200
   332  C   3.962        C  333 0.994    N  331 0.982    H  339 0.943    C  335 0.924
   333  C   3.903        O  334 1.894    C  332 0.994    H  536 0.952
   334  O   2.053        C  333 1.894
   335  C   3.984        C  336 1.011    C  337 1.009    H  340 0.963    C  332 0.924
   336  C   3.994        C  335 1.011    H  342 0.985    H  343 0.984    H  341 0.977
   337  C   3.991        C  335 1.009    H  345 0.985    H  346 0.984    H  344 0.981
   338  H   0.955        N  331 0.916
   339  H   0.991        C  332 0.943
   340  H   0.997        C  335 0.963
   341  H   0.997        C  336 0.977
   342  H   0.998        C  336 0.985
   343  H   0.998        C  336 0.984
   344  H   0.996        C  337 0.981
   345  H   0.997        C  337 0.985
   346  H   0.998        C  337 0.984
   347  N   2.998        C  348 1.024    H  359 0.956    H  537 0.947
   348  C   3.984        N  347 1.024    H  360 0.963    C  349 0.945    C  351 0.943
   349  C   3.940        O  350 1.631    N  368 1.289    C  348 0.945
   350  O   1.949        C  349 1.631    N  368 0.190
   351  C   3.993        C  352 1.011    H  362 0.972    H  361 0.965    C  348 0.943
   352  C   3.987        C  353 1.403    C  354 1.403    C  351 1.011
   353  C   3.991        C  355 1.457    C  352 1.403    H  363 0.965    C  356 0.107
   354  C   3.991        C  356 1.457    C  352 1.403    H  364 0.966    C  355 0.103
   355  C   3.987        C  353 1.457    C  357 1.367    H  365 0.965    C  354 0.103
   356  C   3.988        C  354 1.457    C  357 1.364    H  366 0.968    C  353 0.107
   357  C   3.938        C  355 1.367    C  356 1.364    O  358 1.077
   358  O   2.096        C  357 1.077    H  367 0.859
   359  H   0.975        N  347 0.956
   360  H   0.998        C  348 0.963
   361  H   0.997        C  351 0.965
   362  H   0.999        C  351 0.972
   363  H   0.999        C  353 0.965
   364  H   0.999        C  354 0.966
   365  H   0.998        C  355 0.965
   366  H   0.997        C  356 0.968
   367  H   0.881        O  358 0.859
   368  N   3.463        C  349 1.289    C  369 0.995    H  375 0.911    O  350 0.190
   369  C   3.969        N  368 0.995    C  370 0.952    H  376 0.951    C  372 0.924
   370  C   3.950        O  371 1.605    N  382 1.313    C  369 0.952
   371  O   1.961        C  370 1.605    N  382 0.194
   372  C   3.956        C  374 1.008    O  373 1.004    H  377 0.958    C  369 0.924
   373  O   1.948        C  372 1.004    H  378 0.839
   374  C   3.989        C  372 1.008    H  381 0.983    H  380 0.982    H  379 0.980
   375  H   0.952        N  368 0.911
   376  H   0.997        C  369 0.951
   377  H   0.999        C  372 0.958
   378  H   0.897        O  373 0.839
   379  H   0.996        C  374 0.980
   380  H   0.996        C  374 0.982
   381  H   0.997        C  374 0.983
   382  N   3.482        C  370 1.313    C  383 0.995    H  389 0.898    O  371 0.194
   383  C   3.965        N  382 0.995    H  390 0.943    C  384 0.940    C  386 0.928
   384  C   3.953        O  385 1.626    N  396 1.307    C  383 0.940
   385  O   1.979        C  384 1.626    N  396 0.197
   386  C   3.956        O  387 1.004    C  388 1.002    H  391 0.952    C  383 0.928
   387  O   1.962        C  386 1.004    H  392 0.870
   388  C   3.986        C  386 1.002    H  393 0.976    H  394 0.975    H  395 0.972
   389  H   0.947        N  382 0.898
   390  H   0.996        C  383 0.943
   391  H   0.996        C  386 0.952
   392  H   0.897        O  387 0.870
   393  H   0.995        C  388 0.976
   394  H   0.998        C  388 0.975
   395  H   0.994        C  388 0.972
   396  N   3.476        C  384 1.307    C  397 0.990    H  402 0.889    O  385 0.197
   397  C   3.967        N  396 0.990    C  400 0.955    H  403 0.947    C  398 0.937
   398  C   3.953        O  399 1.621    N  407 1.307    C  397 0.937
   399  O   1.992        C  398 1.621    N  407 0.198
   400  C   3.956        O  401 1.013    H  405 0.965    H  404 0.965    C  397 0.955
   401  O   1.960        C  400 1.013    H  406 0.872
   402  H   0.946        N  396 0.889
   403  H   0.993        C  397 0.947
   404  H   0.995        C  400 0.965
   405  H   0.997        C  400 0.965
   406  H   0.889        O  401 0.872
   407  N   3.488        C  398 1.307    C  408 0.979    H  418 0.921    O  399 0.198
   408  C   3.959        N  407 0.979    C  411 0.975    H  419 0.939    C  409 0.927
   409  C   3.951        O  410 1.636    N  427 1.305    C  408 0.927
   410  O   1.957        C  409 1.636    N  427 0.200
   411  C   3.986        C  412 1.005    C  408 0.975    H  421 0.967    H  420 0.954
   412  C   3.987        C  413 1.416    C  414 1.410    C  411 1.005    C  417 0.109
   413  C   3.992        C  415 1.441    C  412 1.416    H  422 0.960    C  416 0.111
   414  C   3.990        C  416 1.446    C  412 1.410    H  423 0.969    C  415 0.112
   415  C   3.992        C  413 1.441    C  417 1.441    H  424 0.968    C  414 0.112
   416  C   3.991        C  414 1.446    C  417 1.438    H  425 0.968    C  413 0.111
   417  C   3.991        C  415 1.441    C  416 1.438    H  426 0.970    C  412 0.109
   418  H   0.954        N  407 0.921
   419  H   0.994        C  408 0.939
   420  H   0.994        C  411 0.954
   421  H   0.995        C  411 0.967
   422  H   0.999        C  413 0.960
   423  H   0.999        C  414 0.969
   424  H   0.999        C  415 0.968
   425  H   0.998        C  416 0.968
   426  H   0.998        C  417 0.970
   427  N   3.476        C  409 1.305    C  428 0.970    H  435 0.883    O  410 0.200
   428  C   3.961        C  431 0.987    N  427 0.970    C  429 0.959    H  436 0.934
   429  C   3.903        O  430 1.915    C  428 0.959    H  538 0.955
   430  O   2.064        C  429 1.915
   431  C   3.988        C  432 0.993    C  428 0.987    H  437 0.972    H  438 0.966
   432  C   3.994        C  433 1.010    C  434 1.010    C  431 0.993    H  439 0.967
   433  C   3.995        C  432 1.010    H  441 0.985    H  440 0.984    H  442 0.981
   434  C   3.995        C  432 1.010    H  445 0.981    H  444 0.980    H  443 0.979
   435  H   0.951        N  427 0.883
   436  H   0.992        C  428 0.934
   437  H   0.998        C  431 0.972
   438  H   0.996        C  431 0.966
   439  H   0.997        C  432 0.967
   440  H   0.998        C  433 0.984
   441  H   0.998        C  433 0.985
   442  H   0.999        C  433 0.981
   443  H   0.997        C  434 0.979
   444  H   0.999        C  434 0.980
   445  H   0.998        C  434 0.981
   446  N   2.986        C  447 1.025    H  539 0.954    H  451 0.942
   447  C   3.988        N  446 1.025    C  450 0.985    H  452 0.944    C  448 0.941
   448  C   3.940        O  449 1.643    N  456 1.289    C  447 0.941
   449  O   1.971        C  448 1.643    N  456 0.190
   450  C   3.993        H  455 0.987    C  447 0.985    H  453 0.982    H  454 0.981
   451  H   0.972        N  446 0.942
   452  H   0.998        C  447 0.944
   453  H   0.997        C  450 0.982
   454  H   0.997        C  450 0.981
   455  H   0.998        C  450 0.987
   456  N   3.454        C  448 1.289    C  457 0.996    H  463 0.891    O  449 0.190
   457  C   3.972        N  456 0.996    C  458 0.954    H  464 0.950    C  460 0.935
   458  C   3.949        O  459 1.581    N  470 1.325    C  457 0.954
   459  O   1.961        C  458 1.581    N  470 0.189
   460  C   3.954        C  462 1.004    O  461 0.993    H  465 0.956    C  457 0.935
   461  O   1.929        C  460 0.993    H  466 0.862
   462  C   3.991        C  460 1.004    H  469 0.984    H  467 0.981    H  468 0.972
   463  H   0.947        N  456 0.891
   464  H   0.994        C  457 0.950
   465  H   0.998        C  460 0.956
   466  H   0.880        O  461 0.862
   467  H   0.996        C  462 0.981
   468  H   0.995        C  462 0.972
   469  H   0.998        C  462 0.984
   470  N   3.490        C  458 1.325    C  471 0.977    H  481 0.914    O  459 0.189
   471  C   3.962        N  470 0.977    C  474 0.968    H  482 0.954    C  472 0.927
   472  C   3.951        O  473 1.650    N  490 1.299    C  471 0.927
   473  O   1.976        C  472 1.650    N  490 0.203
   474  C   3.987        C  475 1.008    H  484 0.969    C  471 0.968    H  483 0.957
   475  C   3.988        C  477 1.414    C  476 1.413    C  474 1.008    C  480 0.109
   476  C   3.993        C  478 1.445    C  475 1.413    H  485 0.968    C  479 0.112
   477  C   3.990        C  479 1.444    C  475 1.414    H  486 0.968    C  478 0.111
   478  C   3.992        C  476 1.445    C  480 1.438    H  487 0.971    C  477 0.111
   479  C   3.992        C  477 1.444    C  480 1.439    H  488 0.970    C  476 0.112
   480  C   3.991        C  479 1.439    C  478 1.438    H  489 0.971    C  475 0.109
   481  H   0.950        N  470 0.914
   482  H   0.996        C  471 0.954
   483  H   0.994        C  474 0.957
   484  H   0.995        C  474 0.969
   485  H   0.999        C  476 0.968
   486  H   0.998        C  477 0.968
   487  H   0.998        C  478 0.971
   488  H   0.998        C  479 0.970
   489  H   0.998        C  480 0.971
   490  N   3.479        C  472 1.299    C  491 0.980    H  499 0.923    O  473 0.203
   491  C   3.962        N  490 0.980    C  494 0.980    C  492 0.948    H  500 0.929
   492  C   3.952        O  493 1.623    N  507 1.305    C  491 0.948
   493  O   1.962        C  492 1.623    N  507 0.196
   494  C   3.985        C  495 0.991    C  491 0.980    H  502 0.973    H  501 0.951
   495  C   3.994        C  494 0.991    H  503 0.969    C  496 0.967    H  504 0.962
   496  C   3.947        O  497 1.637    N  498 1.316    C  495 0.967
   497  O   1.941        C  496 1.637    N  498 0.201
   498  N   3.404        C  496 1.316    H  506 0.932    H  505 0.910    O  497 0.201
   499  H   0.959        N  490 0.923
   500  H   0.989        C  491 0.929
   501  H   0.991        C  494 0.951
   502  H   0.996        C  494 0.973
   503  H   0.997        C  495 0.969
   504  H   0.997        C  495 0.962
   505  H   0.947        N  498 0.910
   506  H   0.953        N  498 0.932
   507  N   3.477        C  492 1.305    C  508 0.994    H  515 0.897    O  493 0.196
   508  C   3.971        N  507 0.994    C  509 0.992    C  511 0.952    H  516 0.913
   509  C   3.911        O  510 1.905    C  508 0.992    H  540 0.951
   510  O   2.058        C  509 1.905
   511  C   3.986        H  518 0.973    C  512 0.960    H  517 0.954    C  508 0.952
   512  C   3.949        O  513 1.646    N  514 1.319    C  511 0.960
   513  O   1.952        C  512 1.646    N  514 0.206
   514  N   3.405        C  512 1.319    H  519 0.925    H  520 0.909    O  513 0.206
   515  H   0.945        N  507 0.897
   516  H   0.988        C  508 0.913
   517  H   0.992        C  511 0.954
   518  H   0.993        C  511 0.973
   519  H   0.946        N  514 0.925
   520  H   0.944        N  514 0.909
   521  H   0.966        N    1 0.955
   522  H   0.995        C    3 0.954
   523  H   0.966        N   20 0.951
   524  H   0.992        C  112 0.952
   525  H   0.971        N  129 0.954
   526  H   0.996        C  131 0.956
   527  H   0.966        N  145 0.955
   528  H   0.994        C  147 0.954
   529  H   0.968        N  164 0.953
   530  H   0.995        C  166 0.952
   531  H   0.968        N  178 0.955
   532  H   0.996        C  180 0.955
   533  H   0.969        N  194 0.957
   534  H   0.994        C  206 0.954
   535  H   0.972        N  220 0.957
   536  H   0.991        C  333 0.952
   537  H   0.965        N  347 0.947
   538  H   0.996        C  429 0.955
   539  H   0.967        N  446 0.954
   540  H   0.992        C  509 0.951
 
molecular dipole:
                 x           y           z       tot (Debye)
 q only:       -1.390       5.018       2.897
   full:       -0.175       5.329       2.787      15.293
molecular quadrupole (traceless):
                xx          xy          yy          xz          yz          zz
 q only:     -466.287     452.481     332.523     317.802     585.609     133.764
  q+dip:     -264.894     540.141     297.554     424.510     592.016     -32.660
   full:     -267.822     543.307     301.889     423.281     589.525     -34.067


           -------------------------------------------------
          | TOTAL ENERGY             -804.827302570223 Eh   |
          | GRADIENT NORM               0.701349732059 Eh/α |
          | HOMO-LUMO GAP               1.242742387873 eV   |
           -------------------------------------------------

------------------------------------------------------------------------
 * finished run on 2019/05/31 at 06:33:18.449     
------------------------------------------------------------------------
 total:
 * wall-time:     0 d,  0 h,  0 min, 12.343 sec
 *  cpu-time:     0 d,  0 h,  0 min, 24.225 sec
 * ratio c/w:     1.963 speedup
 SCF:
 * wall-time:     0 d,  0 h,  0 min, 11.753 sec
 *  cpu-time:     0 d,  0 h,  0 min, 23.199 sec
 * ratio c/w:     1.974 speedup

