      -----------------------------------------------------------      
     |                   =====================                   |     
     |                           x T B                           |     
     |                   =====================                   |     
     |                         S. Grimme                         |     
     |          Mulliken Center for Theoretical Chemistry        |     
     |                    University of Bonn                     |     
     |                Version 6.1 RC1 (SAW190329)                |     
      -----------------------------------------------------------      

   This program is distributed in the hope that it will be useful,
   but WITHOUT ANY WARRANTY; without even the implied warranty of
   MERCHANTABILITY or FITNESS FOR A PARTICULAR PURPOSE.
   
   FOR NON-COMMERCIAL, ACADEMIA USE ONLY.
   
   Cite this work as:
   S. Grimme, C. Bannwarth, P. Shushkov, J. Comput. Theory Chem., 2017,
   13, 1989-2009. DOI: 10.1021/acs.jctc.7b00118
   C. Bannwarth, S. Ehlert and S. Grimme., J. Comput. Theory Chem., 2019,
   just accepted. DOI: 10.1021/acs.jctc.8b01176
   
   for sTDA-xTB:
   S. Grimme and C. Bannwarth, J. Chem. Phys., 2016, 145, 054103.
   DOI: 10.1063/1.4959605
   
   in the mass-spec context:
   V. Asgeirsson, C. Bauer and S. Grimme, Chem. Sci., 2017, 8, 4879.
   DOI: 10.1039/c7sc00601b
   
   for metadynamics refer to:
   S. Grimme, ChemRxiv, Preprint. DOI: 10.26434/chemrxiv.7660532.v1
   
   with help from (in alphabetical order)
   C. Bannwarth, F. Bohle, G. Brandenburg, E. Caldeweyher, M. Checinski,
   S. Dohm, S. Ehlert, S. Ehrlich, F. März, H. Neugebauer, J. Pisarek,
   P. Pracht, P. Shushkov, and S. Spicher.
   
 * started run on 2019/05/31 at 05:35:15.837     

           -------------------------------------------------
          |                Calculation Setup                |
           -------------------------------------------------

          program call               : /home/lum/install/xtb/xtb-190329/bin/xtb xtb_tmp.xyz --chrg 1 --grad --gfn 2 --etemp 500 --acc 0.1 --gbsa h2o --parallel 2
          hostname                   : cpu02
          coordinate file            : xtb_tmp.xyz
          omp threads                :                     2
          number of atoms            :                   256
          number of electrons        :                   702
          charge                     :                     1
          spin                       :                   0.0
          first test random number   :      0.90738095116214


molecular fragmentation (1/2 indicates fragments):
111111111111111111111111111111111111111111111111111111111111111111111111
111111111111111111111111111111111111111111111111111111111111111111111111
111111111111111111111111111111111111111111111111111111112222222222222222
2222222222222222222222222222222222221122
# atoms in fragment 1/2:   202    54
 fragment masses (1/2) :     1429.57      342.44
CMA distance (Bohr)    :  16.671
constraining FC (au)   :  0.0500

########################################################################
# WARNING! Please study the warnings concerning your input carefully
#  - XTBPATH is not set, using XTBHOME instead
#  - Process number higher than OMP_NUM_THREADS, I hope you know what you are doing.
########################################################################

           ------------------------------------------------- 
          |                 G F N 2 - x T B                 |
          | Geometry, Frequencies, Noncovalent interactions |
          |            JCTC 2018 parametrisation            |
           ------------------------------------------------- 
 
             k(s)              :                1.8500
             k(p)              :                2.2300
             k(d)              :                2.2300
             k(f)              :                2.0000
             kEN (H0ij)        :               -2.0000
             D4 a1             :                0.5200
             D4 a2             :                5.0000
             D4 s6             :                1.0000
             D4 s8             :                2.7000
             D4 s9             :                5.0000
             alphaj            :                2.0000

  Z AO/shell   Hii/eV     exponent
  1     Wed Apr 25 08:07:45 CEST 2018   EN: 2.200 GM2: 0.406  GM3: 0.0800  RAES: 1.40
     1s    -10.707211    1.230000
  6     Wed Apr 25 08:07:45 CEST 2018   EN: 2.550 GM2: 0.538  GM3: 0.1500  RAES: 3.00
     2s    -13.970922    2.096432
     2p    -10.063292    1.800000
  7     Wed Apr 25 08:07:45 CEST 2018   EN: 3.040 GM2: 0.461  GM3:-0.0640  RAES: 1.90
     2s    -16.686243    2.339881
     2p    -12.523956    2.014332
  8     Wed Apr 25 08:07:45 CEST 2018   EN: 3.440 GM2: 0.452  GM3:-0.0517  RAES: 1.80
     2s    -20.229985    2.439742
     2p    -15.503117    2.137023

 Solvent             : h2o
 Using internal parameter file: .param_gbsa2_h2o
 Gsolv ref. state (COSMO-RS): gsolv [1 M gas/solution]
 temperature (mdtemp)       :    298.150000000000     
 dielectric constant        :    80.2000000000000     
 rho                        :    1.00000000000000     
 mass                       :    18.0000000000000     
 surface tension            :    15.5689454083859     
 probe radius               :   0.975313790000000     
 vdW radii scaling          :    1.00000000000000     
 Gshift (Eh)                :   1.857443126794793E-003
 c1                         :    1.55243817000000     
 soset                      :   0.130326360000000     
 HB correction              :  T
 Number of grid points      :          230

            Z     q(EN)     CN     RAES       Cart. coordinates
     1  N   5.0   -0.72    3.00    1.93   235.58735   116.24666   267.28110
     2  C   4.0    0.07    3.99    3.60   235.48540   118.75145   266.16595
     3  C   4.0    0.27    3.01    3.02   237.97788   120.11489   266.70378
     4  O   6.0   -0.47    1.00    1.80   239.16228   121.16342   265.00208
     5  C   4.0   -0.09    3.98    3.58   233.18993   120.26951   267.09548
     6  C   4.0   -0.16    3.98    3.59   230.75302   119.08139   266.06181
     7  C   4.0   -0.22    3.98    3.59   233.46098   123.02435   266.27119
     8  C   4.0   -0.23    3.98    3.58   228.35722   120.35985   267.03018
     9  H   1.0    0.25    1.00    1.43   234.11285   115.64118   268.35568
    10  H   1.0    0.10    0.99    1.43   235.38809   118.56768   264.09744
    11  H   1.0    0.11    0.99    1.43   233.18274   120.17858   269.15934
    12  H   1.0    0.10    0.99    1.43   230.78989   119.16251   263.99883
    13  H   1.0    0.10    0.99    1.43   230.70048   117.09108   266.59582
    14  H   1.0    0.10    0.99    1.43   231.87328   124.13931   266.93016
    15  H   1.0    0.12    0.99    1.43   235.18150   123.85074   267.02912
    16  H   1.0    0.11    0.99    1.43   233.55501   123.15746   264.22117
    17  H   1.0    0.11    0.99    1.43   226.70979   119.29557   266.42115
    18  H   1.0    0.11    0.99    1.43   228.36870   120.43197   269.08108
    19  H   1.0    0.11    0.99    1.43   228.18418   122.27000   266.29953
    20  N   5.0   -0.49    3.01    1.93   238.77819   120.09388   269.09109
    21  C   4.0    0.06    4.00    3.62   241.23613   121.14990   269.73676
    22  C   4.0    0.31    3.01    3.02   243.20171   120.08615   267.88775
    23  O   6.0   -0.47    1.00    1.80   244.60724   121.45497   266.62940
    24  C   4.0   -0.15    3.98    3.59   241.99284   120.50429   272.44876
    25  C   4.0   -0.17    3.98    3.59   240.17975   121.57748   274.42744
    26  C   4.0   -0.15    3.98    3.59   241.08727   120.89150   277.08759
    27  C   4.0   -0.06    3.98    3.58   239.04643   121.46232   279.04177
    28  N   5.0   -0.73    3.98    2.82   239.98198   120.87672   281.63122
    29  H   1.0    0.23    1.00    1.43   237.73516   119.21199   270.44141
    30  H   1.0    0.12    0.99    1.43   241.18589   123.20787   269.46714
    31  H   1.0    0.11    0.99    1.43   242.07542   118.45270   272.61886
    32  H   1.0    0.12    0.99    1.43   243.89626   121.24009   272.74783
    33  H   1.0    0.11    0.99    1.43   240.06790   123.62382   274.22534
    34  H   1.0    0.10    0.99    1.43   238.29926   120.79760   274.11032
    35  H   1.0    0.11    0.99    1.43   241.57077   118.88685   277.12054
    36  H   1.0    0.11    0.99    1.43   242.80085   121.96071   277.49520
    37  H   1.0    0.11    0.99    1.43   238.52658   123.45343   278.94001
    38  H   1.0    0.11    0.99    1.43   237.37514   120.31732   278.66012
    39  H   1.0    0.25    1.00    1.43   238.60736   121.22082   282.96693
    40  H   1.0    0.24    1.00    1.43   240.52589   119.00778   281.73871
    41  H   1.0    0.24    1.00    1.43   241.53534   121.98044   282.03640
    42  N   5.0   -0.48    3.00    1.93   243.20632   117.58304   267.74642
    43  C   4.0    0.03    3.99    3.61   244.90629   116.17764   266.14978
    44  C   4.0    0.28    3.00    3.02   244.79096   116.95138   263.38365
    45  O   6.0   -0.48    1.00    1.80   246.68426   116.75469   262.03807
    46  H   1.0    0.24    1.00    1.43   242.04604   116.56504   268.89382
    47  H   1.0    0.16    0.99    1.43   246.85643   116.42968   266.79941
    48  H   1.0    0.10    0.99    1.43   244.41315   114.18150   266.26857
    49  N   5.0   -0.47    3.01    1.93   242.57061   117.79044   262.58043
    50  C   4.0    0.08    3.99    3.61   242.04806   118.60550   260.04129
    51  C   4.0    0.29    3.02    3.02   242.71036   121.37932   259.63744
    52  O   6.0   -0.48    1.00    1.80   243.04974   122.17138   257.47541
    53  C   4.0   -0.14    3.99    3.60   239.27667   118.19379   259.31847
    54  C   4.0   -0.10    3.98    3.58   238.43363   115.42220   259.30219
    55  C   4.0   -0.23    3.98    3.59   235.59172   115.31485   258.80358
    56  C   4.0   -0.21    3.98    3.59   239.85091   113.85816   257.33828
    57  H   1.0    0.27    1.00    1.43   241.06326   117.63882   263.75968
    58  H   1.0    0.12    0.99    1.43   243.26951   117.56135   258.73703
    59  H   1.0    0.12    0.99    1.43   238.12342   119.26269   260.65478
    60  H   1.0    0.12    0.99    1.43   239.01193   119.00927   257.44090
    61  H   1.0    0.12    0.99    1.43   238.81920   114.62370   261.16718
    62  H   1.0    0.11    0.99    1.43   234.95310   113.36625   258.70765
    63  H   1.0    0.09    0.99    1.43   234.54961   116.27565   260.29044
    64  H   1.0    0.11    0.99    1.43   235.16149   116.23187   257.01569
    65  H   1.0    0.11    0.99    1.43   239.09140   111.95120   257.26160
    66  H   1.0    0.13    0.99    1.43   239.69565   114.67361   255.45855
    67  H   1.0    0.11    0.99    1.43   241.84857   113.70291   257.79078
    68  N   5.0   -0.47    3.01    1.93   242.92952   122.85477   261.66162
    69  C   4.0    0.08    4.00    3.62   244.03271   125.34436   261.37723
    70  C   4.0    0.31    3.01    3.02   246.85367   124.97001   260.84902
    71  O   6.0   -0.47    1.00    1.80   247.97991   126.20673   259.24682
    72  C   4.0    0.04    3.98    3.58   243.60745   127.10955   263.67473
    73  O   6.0   -0.47    1.99    1.82   245.17065   126.51889   265.72283
    74  C   4.0   -0.21    3.98    3.59   240.81345   127.19306   264.40416
    75  H   1.0    0.31    1.00    1.43   242.35995   122.24334   263.38661
    76  H   1.0    0.12    0.99    1.43   243.21064   126.23674   259.69791
    77  H   1.0    0.12    0.99    1.43   244.20546   128.99912   263.07027
    78  H   1.0    0.31    0.99    1.43   244.78333   124.81286   266.31966
    79  H   1.0    0.11    0.99    1.43   240.58454   128.44708   266.01353
    80  H   1.0    0.10    0.99    1.43   239.69625   127.90737   262.83895
    81  H   1.0    0.14    0.99    1.43   240.12046   125.32396   264.89526
    82  N   5.0   -0.46    3.01    1.93   247.95363   123.17604   262.24061
    83  C   4.0    0.07    3.99    3.61   250.51675   122.34963   261.73923
    84  C   4.0    0.30    3.02    3.02   250.66738   121.32891   259.02521
    85  O   6.0   -0.43    1.00    1.80   252.24316   122.11863   257.52409
    86  C   4.0   -0.14    3.98    3.59   251.33539   120.33770   263.64480
    87  C   4.0   -0.11    3.98    3.59   251.41351   121.34829   266.36586
    88  C   4.0    0.28    3.00    3.02   251.46637   119.11810   268.17606
    89  O   6.0   -0.40    1.00    1.80   249.55502   118.27215   269.15680
    90  N   5.0   -0.65    3.00    1.93   253.75356   118.11855   268.59367
    91  H   1.0    0.29    1.00    1.43   246.95761   122.25458   263.59625
    92  H   1.0    0.13    0.99    1.43   251.78486   123.98703   261.81236
    93  H   1.0    0.16    0.99    1.43   250.01696   118.75649   263.52996
    94  H   1.0    0.12    0.99    1.43   253.19418   119.64973   263.08051
    95  H   1.0    0.11    0.99    1.43   253.06979   122.53495   266.64274
    96  H   1.0    0.15    0.99    1.43   249.71303   122.44174   266.75886
    97  H   1.0    0.26    1.00    1.43   255.30302   118.74397   267.69104
    98  H   1.0    0.29    1.00    1.43   253.90301   116.56631   269.68736
    99  N   5.0   -0.47    3.00    1.93   248.91778   119.61512   258.39429
   100  C   4.0    0.08    4.00    3.62   249.04151   118.46017   255.91303
   101  C   4.0    0.30    3.01    3.02   248.59411   120.42912   253.84942
   102  O   6.0   -0.48    1.00    1.80   249.60254   120.17461   251.77783
   103  C   4.0   -0.20    3.98    3.59   247.19821   116.26426   255.64371
   104  H   1.0    0.30    1.00    1.43   247.92562   118.65236   259.74997
   105  H   1.0    0.14    0.99    1.43   250.97451   117.76580   255.60004
   106  H   1.0    0.13    0.99    1.43   247.74796   115.12293   254.02701
   107  H   1.0    0.13    0.99    1.43   247.27721   115.09935   257.33339
   108  H   1.0    0.12    0.99    1.43   245.28668   116.94911   255.33170
   109  N   5.0   -0.47    3.01    1.93   247.11617   122.37859   254.45590
   110  C   4.0    0.10    3.99    3.61   246.74839   124.50054   252.77018
   111  C   4.0    0.32    3.02    3.02   249.29149   125.80047   252.34031
   112  O   6.0   -0.42    1.00    1.80   250.08325   126.20803   250.20223
   113  C   4.0   -0.01    3.98    3.59   244.83783   126.35916   253.89528
   114  O   6.0   -0.46    1.99    1.82   244.60444   128.44015   252.24848
   115  H   1.0    0.31    1.00    1.43   245.88644   122.25045   255.93525
   116  H   1.0    0.14    0.99    1.43   246.08627   123.87931   250.90443
   117  H   1.0    0.13    0.99    1.43   243.03565   125.36447   254.11887
   118  H   1.0    0.14    0.99    1.43   245.52870   126.97725   255.75099
   119  H   1.0    0.26    0.99    1.43   243.15482   129.42235   252.76512
   120  N   5.0   -0.47    3.01    1.93   250.56103   126.43765   254.42343
   121  C   4.0    0.08    4.00    3.62   253.11758   127.40474   254.19929
   122  C   4.0    0.32    3.01    3.02   254.55430   125.75845   252.29030
   123  O   6.0   -0.43    1.00    1.80   255.59957   126.72867   250.46191
   124  C   4.0   -0.14    3.98    3.59   254.51057   127.47636   256.72364
   125  C   4.0   -0.15    3.98    3.59   253.27362   129.28313   258.61425
   126  C   4.0   -0.03    3.99    3.60   254.74174   129.31481   261.10108
   127  N   5.0   -0.47    3.02    1.93   253.22356   130.49270   263.06747
   128  C   4.0    0.38    3.00    3.02   253.85346   130.63449   265.49671
   129  N   5.0   -0.64    3.02    1.93   256.06211   129.74095   266.29988
   130  N   5.0   -0.64    3.02    1.93   252.23040   131.62148   267.14475
   131  H   1.0    0.30    1.00    1.43   249.87760   126.01154   256.16643
   132  H   1.0    0.13    0.99    1.43   253.05379   129.30717   253.36796
   133  H   1.0    0.15    0.99    1.43   254.55788   125.56318   257.48497
   134  H   1.0    0.13    0.99    1.43   256.45626   128.03779   256.32037
   135  H   1.0    0.12    0.99    1.43   253.20191   131.17600   257.80443
   136  H   1.0    0.15    0.99    1.43   251.34883   128.63499   258.96453
   137  H   1.0    0.12    0.99    1.43   255.18239   127.36174   261.62369
   138  H   1.0    0.12    0.99    1.43   256.51620   130.34359   260.83165
   139  H   1.0    0.24    1.00    1.43   251.53932   131.19250   262.50810
   140  H   1.0    0.27    1.00    1.43   257.36699   129.12974   265.05817
   141  H   1.0    0.27    1.00    1.43   256.58721   129.93541   268.11930
   142  H   1.0    0.27    1.00    1.43   250.52527   132.25184   266.58469
   143  H   1.0    0.27    1.00    1.43   252.66859   131.76827   268.99114
   144  N   5.0   -0.45    3.01    1.93   254.46189   123.27730   252.73806
   145  C   4.0    0.09    3.99    3.61   255.91737   121.49012   251.26083
   146  C   4.0    0.29    3.01    3.02   255.14860   121.56839   248.47068
   147  O   6.0   -0.47    1.00    1.80   256.72311   121.39502   246.76603
   148  C   4.0   -0.10    3.99    3.61   255.46393   118.78497   252.16565
   149  C   4.0    0.28    2.99    3.02   256.27664   118.26909   254.87996
   150  O   6.0   -0.36    1.00    1.80   257.25473   119.80611   256.28129
   151  N   5.0   -0.65    3.01    1.93   255.74414   115.89302   255.62947
   152  H   1.0    0.31    1.00    1.43   253.79782   122.66782   254.43475
   153  H   1.0    0.16    0.99    1.43   257.93188   121.99621   251.37492
   154  H   1.0    0.14    0.99    1.43   253.45254   118.36014   251.96154
   155  H   1.0    0.11    0.99    1.43   256.51445   117.51616   250.92313
   156  H   1.0    0.29    1.00    1.43   256.36489   115.30585   257.33186
   157  H   1.0    0.26    1.00    1.43   255.02087   114.62014   254.41572
   158  N   5.0   -0.47    3.01    1.93   252.67679   121.65094   248.04566
   159  C   4.0    0.07    4.00    3.62   251.62915   121.67405   245.51798
   160  C   4.0    0.30    3.01    3.02   252.59657   124.00842   244.12626
   161  O   6.0   -0.39    1.00    1.80   253.31108   123.90246   241.92118
   162  C   4.0   -0.20    3.99    3.59   248.75566   121.71166   245.63424
   163  H   1.0    0.32    1.00    1.43   251.42209   121.57920   249.50591
   164  H   1.0    0.12    0.99    1.43   252.29273   120.01292   244.46491
   165  H   1.0    0.12    0.99    1.43   247.99357   121.55550   243.73502
   166  H   1.0    0.12    0.99    1.43   248.08838   120.13304   246.76490
   167  H   1.0    0.15    0.99    1.43   248.11530   123.47863   246.46381
   168  N   5.0   -0.45    3.01    1.93   252.57937   126.09046   245.52528
   169  C   4.0    0.09    4.00    3.61   253.39077   128.53331   244.62824
   170  C   4.0    0.30    3.01    3.02   256.23509   128.50929   244.12887
   171  O   6.0   -0.35    1.00    1.80   257.11926   129.55741   242.24726
   172  C   4.0   -0.09    3.99    3.60   252.60677   130.53824   246.54279
   173  C   4.0    0.30    3.00    3.02   249.72293   130.52808   246.82540
   174  O   6.0   -0.36    1.00    1.80   248.33269   129.50754   245.30404
   175  N   5.0   -0.63    3.00    1.93   248.86462   131.79504   248.84073
   176  H   1.0    0.32    1.00    1.43   251.86392   126.02018   247.30238
   177  H   1.0    0.16    0.99    1.43   252.47066   128.91878   242.80733
   178  H   1.0    0.14    0.99    1.43   253.51043   130.11881   248.34697
   179  H   1.0    0.12    0.99    1.43   253.22346   132.39484   245.89279
   180  H   1.0    0.31    1.00    1.43   247.00176   131.71239   249.23310
   181  H   1.0    0.27    1.00    1.43   250.05081   132.57380   250.10129
   182  N   5.0   -0.46    3.01    1.93   257.62037   127.20949   245.76668
   183  C   4.0    0.09    4.00    3.62   260.27419   126.75884   245.30863
   184  C   4.0    0.30    3.02    3.02   260.51519   125.44965   242.76219
   185  O   6.0   -0.34    1.00    1.80   262.10240   126.10419   241.20531
   186  C   4.0   -0.09    3.98    3.59   261.43785   125.12754   247.36362
   187  C   4.0    0.33    2.99    3.02   261.49784   126.53271   249.97955
   188  O   6.0   -0.35    1.00    1.80   262.06027   128.81207   249.94276
   189  O   6.0   -0.36    1.00    1.80   261.02533   125.21073   251.86426
   190  H   1.0    0.32    1.00    1.43   256.89013   126.64063   247.44992
   191  H   1.0    0.17    0.99    1.43   261.30644   128.56122   245.22346
   192  H   1.0    0.15    0.99    1.43   260.40421   123.35914   247.56407
   193  H   1.0    0.13    0.99    1.43   263.39531   124.70824   246.85766
   194  N   5.0   -0.46    3.00    1.93   258.89102   123.56117   242.38416
   195  C   4.0    0.03    3.99    3.60   258.76619   122.15656   240.04635
   196  C   4.0    0.12    3.00    3.02   258.32990   123.89918   237.78015
   197  O   6.0   -0.34    1.00    1.80   259.73006   123.85957   235.93034
   198  H   1.0    0.31    1.00    1.43   257.80844   122.96650   243.85249
   199  H   1.0    0.14    0.99    1.43   260.52887   121.12284   239.71518
   200  H   1.0    0.12    0.99    1.43   257.18359   120.84601   240.18753
   201  N   5.0   -0.69    3.00    1.93   256.95397   107.19625   243.44244
   202  C   4.0    0.08    3.99    3.60   256.12089   109.21103   245.11111
   203  C   4.0    0.29    3.01    3.02   253.58012   108.49399   246.29503
   204  O   6.0   -0.41    1.00    1.80   251.59247   108.52890   245.10916
   205  C   4.0   -0.08    3.98    3.59   255.84076   111.73593   243.70222
   206  C   4.0   -0.16    3.98    3.58   258.23475   112.42879   242.22458
   207  C   4.0   -0.22    3.98    3.59   255.06049   113.79472   245.57302
   208  C   4.0   -0.22    3.98    3.58   260.56000   112.95374   243.84037
   209  H   1.0    0.27    1.00    1.43   256.26014   107.20671   241.65852
   210  H   1.0    0.11    0.99    1.43   257.54473   109.36028   246.60560
   211  H   1.0    0.13    0.99    1.43   254.32701   111.47683   242.31784
   212  H   1.0    0.11    0.99    1.43   258.64585   110.90406   240.89345
   213  H   1.0    0.11    0.99    1.43   257.81843   114.11148   241.10805
   214  H   1.0    0.11    0.99    1.43   254.94560   115.60746   244.61426
   215  H   1.0    0.13    0.99    1.43   253.22484   113.36205   246.38924
   216  H   1.0    0.11    0.99    1.43   256.42389   113.94849   247.10068
   217  H   1.0    0.12    0.99    1.43   262.13263   113.46441   242.62067
   218  H   1.0    0.11    0.99    1.43   260.22061   114.51821   245.12414
   219  H   1.0    0.11    0.99    1.43   261.10321   111.29334   244.92376
   220  N   5.0   -0.48    3.01    1.93   253.66388   107.87071   248.74210
   221  C   4.0    0.09    3.99    3.61   251.38471   107.22461   250.13300
   222  C   4.0    0.28    3.01    3.02   249.64287   109.55849   250.17308
   223  O   6.0   -0.43    1.00    1.80   250.38728   111.57504   251.01809
   224  C   4.0   -0.13    3.98    3.59   252.08271   106.46892   252.82893
   225  C   4.0   -0.12    3.99    3.60   249.78561   105.55365   254.30716
   226  C   4.0    0.27    3.00    3.02   248.71675   103.08175   253.29647
   227  O   6.0   -0.38    1.00    1.80   249.91838   101.60995   251.97348
   228  N   5.0   -0.64    3.01    1.93   246.35626   102.63729   254.07369
   229  H   1.0    0.23    1.00    1.43   255.33838   107.69916   249.63695
   230  H   1.0    0.15    0.99    1.43   250.42250   105.65548   249.18233
   231  H   1.0    0.13    0.99    1.43   253.46823   104.94281   252.74678
   232  H   1.0    0.12    0.99    1.43   252.89802   108.10729   253.77672
   233  H   1.0    0.11    0.99    1.43   250.32843   105.19966   256.26663
   234  H   1.0    0.11    0.99    1.43   248.28692   106.96845   254.31474
   235  H   1.0    0.26    1.00    1.43   245.40865   103.96623   255.06749
   236  H   1.0    0.29    1.00    1.43   245.44822   101.02829   253.58111
   237  N   5.0   -0.50    3.00    1.93   247.31978   109.15863   249.26881
   238  C   4.0    0.07    3.99    3.60   245.39654   111.09059   249.19608
   239  C   4.0    0.05    3.00    3.02   243.03381   110.44930   250.73080
   240  O   6.0   -0.44    1.00    1.80   241.69725   112.14343   251.55348
   241  C   4.0   -0.08    3.98    3.58   244.59571   111.81299   246.47848
   242  C   4.0   -0.21    3.98    3.59   246.86796   112.84291   245.03780
   243  C   4.0   -0.21    3.98    3.59   243.38304   109.61720   245.05446
   244  H   1.0    0.24    1.00    1.43   246.88418   107.44366   248.54303
   245  H   1.0    0.15    0.99    1.43   246.22856   112.77338   250.07497
   246  H   1.0    0.12    0.99    1.43   243.18422   113.31211   246.68892
   247  H   1.0    0.11    0.99    1.43   246.29218   113.43384   243.16000
   248  H   1.0    0.11    0.99    1.43   247.67847   114.44734   246.03350
   249  H   1.0    0.15    0.99    1.43   248.31244   111.39121   244.85311
   250  H   1.0    0.11    0.99    1.43   242.76108   110.25520   243.20438
   251  H   1.0    0.12    0.99    1.43   244.71783   108.07903   244.77537
   252  H   1.0    0.12    0.99    1.43   241.75369   108.88583   246.07087
   253  H   1.0    0.29    1.00    1.43   235.72123   115.08177   266.04916
   254  H   1.0    0.18    1.00    1.43   256.87667   125.10715   237.78309
   255  H   1.0    0.29    1.00    1.43   258.64541   107.25955   243.27637
   256  H   1.0    0.13    1.00    1.43   242.58273   108.64415   251.06099

           ------------------------------------------------- 
          |        Self-Consistent Charge Iterations        |
           ------------------------------------------------- 

          ...................................................
          :                      SETUP                      :
          :.................................................:
          :  # basis functions                 628          :
          :  # atomic orbitals                 628          :
          :  # shells                          380          :
          :  # electrons                       702          :
          :  max. iterations                   250          :
          :  Hamiltonian                  GFN2-xTB          :
          :  restarted?                      false          :
          :  GBSA solvation                   true          :
          :  PC potential                    false          :
          :  electronic temp.          500.0000000     K    :
          :  accuracy                    0.1000000          :
          :  -> integral cutoff          0.3500000E+02      :
          :  -> integral neglect         0.1000000E-08      :
          :  -> SCF convergence          0.1000000E-06 Eh   :
          :  -> wf. convergence          0.1000000E-04 e    :
          :  Broyden damping             0.4000000          :
          ...................................................

 iter      E             dE          RMSdq      gap      omega  full diag
   1   -404.1237762 -0.404124E+03  0.427E+00    1.18       0.0  T
   2   -405.3089955 -0.118522E+01  0.223E+00    1.63       1.0  T
   3   -405.3483958 -0.394003E-01  0.117E+00    2.29       1.0  T
   4   -405.3554989 -0.710313E-02  0.254E-01    1.35       1.0  T
   5   -405.3628960 -0.739715E-02  0.114E-01    1.62       1.0  T
   6   -405.3633734 -0.477359E-03  0.506E-02    1.63       1.0  T
   7   -405.3634123 -0.389012E-04  0.176E-02    1.68       1.0  T
   8   -405.3634268 -0.144924E-04  0.741E-03    1.68       1.0  T
   9   -405.3634290 -0.222512E-05  0.316E-03    1.68       2.0  T
  10   -405.3634293 -0.266961E-06  0.116E-03    1.68       5.4  T
  11   -405.3634293 -0.576667E-07  0.421E-04    1.68      14.8  T
  12   -405.3634294 -0.104793E-07  0.200E-04    1.68      31.2  T
  13   -405.3634294 -0.127739E-08  0.848E-05    1.68      73.7  T
  14   -405.3634294 -0.284274E-09  0.288E-05    1.68     216.6  T

   *** convergence criteria satisfied after 14 iterations ***

         #    Occupation            Energy/Eh            Energy/eV
      -------------------------------------------------------------
         1        2.0000           -0.7370247             -20.0555
       ...           ...                  ...                  ...
       345        2.0000           -0.3937764             -10.7152
       346        2.0000           -0.3928011             -10.6887
       347        2.0000           -0.3887031             -10.5771
       348        2.0000           -0.3818125             -10.3896
       349        2.0000           -0.3777816             -10.2800
       350        2.0000           -0.3690619             -10.0427
       351        2.0000           -0.3570473              -9.7158 (HOMO)
       352                         -0.2953279              -8.0363 (LUMO)
       353                         -0.2854210              -7.7667
       354                         -0.2505598              -6.8181
       355                         -0.2462683              -6.7013
       356                         -0.2426926              -6.6040
       ...                                ...                  ...
       628                          0.6554862              17.8367
      -------------------------------------------------------------
                  HL-Gap            0.0617194 Eh            1.6795 eV
             Fermi-level           -0.3261887 Eh           -8.8760 eV

 SCC (total)                   0 d,  0 h,  0 min,  2.335 sec
 SCC setup                      ...        0 min,  0.050 sec (  2.144%)
 Dispersion                     ...        0 min,  0.034 sec (  1.436%)
 integral evaluation            ...        0 min,  0.117 sec (  5.025%)
 zeroth order Hamiltonian       ...        0 min,  0.003 sec (  0.149%)
 iterations                     ...        0 min,  1.775 sec ( 75.998%)
 molecular gradient             ...        0 min,  0.339 sec ( 14.518%)
 printout                       ...        0 min,  0.017 sec (  0.725%)

         :::::::::::::::::::::::::::::::::::::::::::::::::::::
         ::                     SUMMARY                     ::
         :::::::::::::::::::::::::::::::::::::::::::::::::::::
         :: total energy             -400.704104315361 Eh   ::
         :: total w/o Gsasa/hb       -400.642856936674 Eh   ::
         :: gradient norm               0.321504472269 Eh/α ::
         :: HOMO-LUMO gap               1.679469644806 eV   ::
         ::.................................................::
         :: SCC energy               -405.376007378127 Eh   ::
         :: -> isotropic ES             1.546433887390 Eh   ::
         :: -> anisotropic ES          -0.065121893932 Eh   ::
         :: -> anisotropic XC           0.116045690641 Eh   ::
         :: -> dispersion              -0.333414440290 Eh   ::
         :: -> Gsolv                   -0.530569164255 Eh   ::
         ::    -> Gborn                -0.469321785568 Eh   ::
         ::    -> Gsasa                -0.014435468020 Eh   ::
         ::    -> Ghb                  -0.048669353794 Eh   ::
         ::    -> Gshift                0.001857443127 Eh   ::
         :: repulsion energy            4.646533467866 Eh   ::
         :: add. restraining            0.000000000000 Eh   ::
         :::::::::::::::::::::::::::::::::::::::::::::::::::::

           -------------------------------------------------
          |                Property Printout                |
           -------------------------------------------------

    * Orbital Energies and Occupations

         #    Occupation            Energy/Eh            Energy/eV
      -------------------------------------------------------------
         1        2.0000           -0.7370247             -20.0555
       ...           ...                  ...                  ...
       339        2.0000           -0.4029163             -10.9639
       340        2.0000           -0.4021977             -10.9444
       341        2.0000           -0.4012126             -10.9175
       342        2.0000           -0.4004665             -10.8972
       343        2.0000           -0.3978343             -10.8256
       344        2.0000           -0.3943413             -10.7306
       345        2.0000           -0.3937764             -10.7152
       346        2.0000           -0.3928011             -10.6887
       347        2.0000           -0.3887031             -10.5771
       348        2.0000           -0.3818125             -10.3896
       349        2.0000           -0.3777816             -10.2800
       350        2.0000           -0.3690619             -10.0427
       351        2.0000           -0.3570473              -9.7158 (HOMO)
       352                         -0.2953279              -8.0363 (LUMO)
       353                         -0.2854210              -7.7667
       354                         -0.2505598              -6.8181
       355                         -0.2462683              -6.7013
       356                         -0.2426926              -6.6040
       357                         -0.2404564              -6.5432
       358                         -0.2374989              -6.4627
       359                         -0.2359646              -6.4209
       360                         -0.2326083              -6.3296
       361                         -0.2312833              -6.2935
       362                         -0.2303419              -6.2679
       ...                                ...                  ...
       628                          0.6554862              17.8367
      -------------------------------------------------------------
                  HL-Gap            0.0617194 Eh            1.6795 eV
             Fermi-level           -0.3261887 Eh           -8.8760 eV

   #   Z        covCN         q      C6AA      α(0)
   1   7 N      2.635    -0.389    30.059     8.143
   2   6 C      3.790     0.025    20.169     6.396
   3   6 C      2.759     0.260    22.618     7.788
   4   8 O      0.859    -0.502    23.829     6.545
   5   6 C      3.852    -0.027    21.012     6.520
   6   6 C      3.803    -0.057    21.595     6.616
   7   6 C      3.756    -0.115    22.759     6.802
   8   6 C      3.751    -0.111    22.683     6.792
   9   1 H      0.860     0.168     1.288     1.778
  10   1 H      0.923     0.028     2.617     2.530
  11   1 H      0.924     0.054     2.266     2.354
  12   1 H      0.924     0.028     2.611     2.527
  13   1 H      0.924     0.036     2.500     2.472
  14   1 H      0.925     0.051     2.309     2.376
  15   1 H      0.925     0.043     2.407     2.426
  16   1 H      0.925     0.035     2.521     2.483
  17   1 H      0.925     0.032     2.553     2.499
  18   1 H      0.925     0.046     2.374     2.409
  19   1 H      0.925     0.038     2.474     2.460
  20   7 N      2.690    -0.167    24.610     7.368
  21   6 C      3.800     0.006    20.475     6.442
  22   6 C      2.758     0.273    22.377     7.746
  23   8 O      0.858    -0.483    23.415     6.488
  24   6 C      3.807    -0.089    22.195     6.707
  25   6 C      3.803    -0.080    22.026     6.682
  26   6 C      3.804    -0.097    22.345     6.730
  27   6 C      3.732    -0.052    21.593     6.633
  28   7 N      3.483    -0.147    24.180     7.303
  29   1 H      0.860     0.230     0.963     1.538
  30   1 H      0.923     0.091     1.870     2.139
  31   1 H      0.924     0.070     2.085     2.258
  32   1 H      0.924     0.081     1.968     2.194
  33   1 H      0.925     0.069     2.096     2.264
  34   1 H      0.924     0.062     2.170     2.304
  35   1 H      0.924     0.081     1.973     2.197
  36   1 H      0.924     0.082     1.961     2.190
  37   1 H      0.924     0.119     1.621     1.991
  38   1 H      0.924     0.118     1.628     1.995
  39   1 H      0.859     0.298     0.718     1.328
  40   1 H      0.859     0.297     0.722     1.331
  41   1 H      0.859     0.297     0.723     1.332
  42   7 N      2.688    -0.156    24.377     7.333
  43   6 C      3.747    -0.046    21.465     6.608
  44   6 C      2.751     0.272    22.403     7.750
  45   8 O      0.858    -0.492    23.598     6.513
  46   1 H      0.860     0.230     0.964     1.538
  47   1 H      0.924     0.124     1.579     1.965
  48   1 H      0.925     0.108     1.716     2.049
  49   7 N      2.690    -0.161    24.482     7.349
  50   6 C      3.794     0.013    20.358     6.425
  51   6 C      2.766     0.265    22.534     7.774
  52   8 O      0.859    -0.511    24.022     6.571
  53   6 C      3.811    -0.075    21.920     6.664
  54   6 C      3.849    -0.013    20.774     6.483
  55   6 C      3.758    -0.115    22.755     6.801
  56   6 C      3.755    -0.120    22.849     6.816
  57   1 H      0.860     0.214     1.036     1.595
  58   1 H      0.924     0.082     1.955     2.187
  59   1 H      0.924     0.064     2.151     2.293
  60   1 H      0.924     0.057     2.234     2.337
  61   1 H      0.924     0.042     2.429     2.437
  62   1 H      0.925     0.048     2.339     2.392
  63   1 H      0.925     0.039     2.461     2.453
  64   1 H      0.925     0.039     2.458     2.452
  65   1 H      0.925     0.048     2.348     2.396
  66   1 H      0.925     0.043     2.404     2.425
  67   1 H      0.925     0.035     2.520     2.482
  68   7 N      2.690    -0.174    24.769     7.392
  69   6 C      3.803    -0.002    20.612     6.463
  70   6 C      2.760     0.269    22.457     7.760
  71   8 O      0.858    -0.492    23.619     6.516
  72   6 C      3.725     0.109    18.887     6.205
  73   8 O      1.655    -0.476    22.382     6.387
  74   6 C      3.752    -0.144    23.340     6.889
  75   1 H      0.860     0.245     0.901     1.487
  76   1 H      0.924     0.075     2.037     2.232
  77   1 H      0.924     0.055     2.257     2.350
  78   1 H      0.803     0.339     0.615     1.232
  79   1 H      0.925     0.074     2.043     2.235
  80   1 H      0.925     0.046     2.369     2.407
  81   1 H      0.925     0.069     2.093     2.262
  82   7 N      2.691    -0.171    24.693     7.380
  83   6 C      3.797     0.012    20.386     6.429
  84   6 C      2.763     0.272    22.407     7.752
  85   8 O      0.859    -0.494    23.652     6.520
  86   6 C      3.808    -0.080    22.012     6.679
  87   6 C      3.806    -0.114    22.680     6.780
  88   6 C      2.746     0.289    22.104     7.698
  89   8 O      0.859    -0.487    23.494     6.499
  90   7 N      2.639    -0.287    27.396     7.774
  91   1 H      0.860     0.236     0.938     1.517
  92   1 H      0.924     0.092     1.864     2.135
  93   1 H      0.924     0.075     2.032     2.229
  94   1 H      0.924     0.063     2.161     2.299
  95   1 H      0.925     0.080     1.977     2.199
  96   1 H      0.925     0.097     1.816     2.107
  97   1 H      0.860     0.224     0.994     1.561
  98   1 H      0.860     0.230     0.966     1.540
  99   7 N      2.688    -0.213    25.636     7.520
 100   6 C      3.802     0.027    20.120     6.386
 101   6 C      2.757     0.277    22.308     7.734
 102   8 O      0.859    -0.502    23.819     6.543
 103   6 C      3.755    -0.129    23.037     6.844
 104   1 H      0.859     0.250     0.884     1.473
 105   1 H      0.923     0.062     2.174     2.306
 106   1 H      0.925     0.069     2.102     2.267
 107   1 H      0.925     0.090     1.880     2.144
 108   1 H      0.925     0.061     2.183     2.311
 109   7 N      2.691    -0.197    25.280     7.467
 110   6 C      3.796     0.023    20.188     6.398
 111   6 C      2.763     0.283    22.216     7.719
 112   8 O      0.859    -0.505    23.898     6.554
 113   6 C      3.678     0.064    19.716     6.361
 114   8 O      1.655    -0.493    22.751     6.439
 115   1 H      0.860     0.243     0.910     1.495
 116   1 H      0.923     0.068     2.105     2.269
 117   1 H      0.924     0.065     2.143     2.289
 118   1 H      0.924     0.064     2.153     2.294
 119   1 H      0.805     0.360     0.566     1.181
 120   7 N      2.690    -0.179    24.881     7.408
 121   6 C      3.802     0.027    20.124     6.387
 122   6 C      2.758     0.292    22.056     7.691
 123   8 O      0.858    -0.516    24.149     6.589
 124   6 C      3.806    -0.081    22.032     6.682
 125   6 C      3.804    -0.090    22.222     6.711
 126   6 C      3.739    -0.023    21.060     6.548
 127   7 N      2.701    -0.140    24.036     7.281
 128   6 C      2.736     0.231    23.148     7.877
 129   7 N      2.651    -0.247    26.434     7.636
 130   7 N      2.653    -0.253    26.579     7.657
 131   1 H      0.860     0.248     0.893     1.480
 132   1 H      0.923     0.060     2.204     2.321
 133   1 H      0.925     0.082     1.961     2.190
 134   1 H      0.924     0.046     2.365     2.405
 135   1 H      0.925     0.068     2.106     2.269
 136   1 H      0.924     0.094     1.844     2.124
 137   1 H      0.924     0.080     1.977     2.199
 138   1 H      0.924     0.079     1.994     2.208
 139   1 H      0.860     0.233     0.953     1.529
 140   1 H      0.860     0.237     0.936     1.515
 141   1 H      0.860     0.262     0.839     1.435
 142   1 H      0.860     0.253     0.873     1.464
 143   1 H      0.860     0.265     0.827     1.424
 144   7 N      2.689    -0.195    25.231     7.460
 145   6 C      3.797     0.044    19.845     6.343
 146   6 C      2.761     0.276    22.324     7.737
 147   8 O      0.859    -0.525    24.341     6.615
 148   6 C      3.816    -0.109    22.563     6.760
 149   6 C      2.742     0.291    22.057     7.690
 150   8 O      0.859    -0.472    23.170     6.454
 151   7 N      2.641    -0.293    27.561     7.797
 152   1 H      0.860     0.245     0.902     1.487
 153   1 H      0.923     0.060     2.195     2.317
 154   1 H      0.924     0.094     1.844     2.124
 155   1 H      0.924     0.068     2.104     2.268
 156   1 H      0.860     0.251     0.880     1.469
 157   1 H      0.860     0.223     0.996     1.563
 158   7 N      2.693    -0.193    25.183     7.453
 159   6 C      3.800     0.031    20.049     6.375
 160   6 C      2.758     0.277    22.322     7.737
 161   8 O      0.858    -0.517    24.165     6.591
 162   6 C      3.758    -0.129    23.033     6.842
 163   1 H      0.860     0.249     0.888     1.476
 164   1 H      0.923     0.060     2.200     2.320
 165   1 H      0.925     0.072     2.069     2.249
 166   1 H      0.925     0.081     1.964     2.192
 167   1 H      0.925     0.065     2.143     2.289
 168   7 N      2.696    -0.187    25.061     7.435
 169   6 C      3.799     0.040    19.897     6.351
 170   6 C      2.760     0.277    22.314     7.736
 171   8 O      0.858    -0.525    24.356     6.617
 172   6 C      3.810    -0.106    22.514     6.754
 173   6 C      2.744     0.299    21.925     7.667
 174   8 O      0.859    -0.486    23.477     6.496
 175   7 N      2.638    -0.279    27.198     7.745
 176   1 H      0.860     0.237     0.933     1.513
 177   1 H      0.923     0.070     2.082     2.256
 178   1 H      0.924     0.074     2.037     2.232
 179   1 H      0.924     0.078     2.003     2.213
 180   1 H      0.860     0.245     0.904     1.490
 181   1 H      0.860     0.227     0.979     1.550
 182   7 N      2.694    -0.200    25.335     7.476
 183   6 C      3.804     0.051    19.719     6.322
 184   6 C      2.762     0.281    22.250     7.725
 185   8 O      0.858    -0.511    24.029     6.572
 186   6 C      3.802    -0.100    22.410     6.740
 187   6 C      2.682     0.378    20.594     7.426
 188   8 O      0.856    -0.634    26.979     6.964
 189   8 O      0.856    -0.623    26.683     6.926
 190   1 H      0.860     0.230     0.965     1.539
 191   1 H      0.923     0.046     2.373     2.409
 192   1 H      0.925     0.040     2.454     2.450
 193   1 H      0.924     0.021     2.712     2.575
 194   7 N      2.688    -0.178    24.850     7.404
 195   6 C      3.741    -0.014    20.908     6.524
 196   6 C      2.762     0.218    23.402     7.922
 197   8 O      0.856    -0.358    20.851     6.122
 198   1 H      0.860     0.222     1.002     1.568
 199   1 H      0.924     0.094     1.838     2.120
 200   1 H      0.925     0.110     1.697     2.037
 201   7 N      2.635    -0.388    30.028     8.138
 202   6 C      3.790     0.028    20.114     6.387
 203   6 C      2.758     0.274    22.369     7.745
 204   8 O      0.859    -0.493    23.636     6.518
 205   6 C      3.854    -0.021    20.905     6.503
 206   6 C      3.802    -0.058    21.625     6.621
 207   6 C      3.755    -0.104    22.537     6.769
 208   6 C      3.751    -0.108    22.629     6.784
 209   1 H      0.860     0.156     1.359     1.826
 210   1 H      0.924     0.036     2.503     2.474
 211   1 H      0.924     0.037     2.485     2.465
 212   1 H      0.924     0.038     2.480     2.463
 213   1 H      0.924     0.027     2.627     2.535
 214   1 H      0.925     0.028     2.610     2.526
 215   1 H      0.925     0.036     2.500     2.473
 216   1 H      0.925     0.035     2.520     2.483
 217   1 H      0.925     0.036     2.498     2.472
 218   1 H      0.925     0.034     2.533     2.489
 219   1 H      0.925     0.042     2.427     2.436
 220   7 N      2.692    -0.178    24.864     7.406
 221   6 C      3.797     0.023    20.188     6.398
 222   6 C      2.755     0.277    22.322     7.737
 223   8 O      0.858    -0.478    23.304     6.472
 224   6 C      3.808    -0.071    21.853     6.655
 225   6 C      3.810    -0.109    22.566     6.762
 226   6 C      2.743     0.287    22.141     7.705
 227   8 O      0.858    -0.506    23.924     6.558
 228   7 N      2.641    -0.291    27.496     7.788
 229   1 H      0.860     0.210     1.054     1.608
 230   1 H      0.924     0.059     2.213     2.326
 231   1 H      0.924     0.075     2.032     2.229
 232   1 H      0.924     0.073     2.057     2.243
 233   1 H      0.924     0.098     1.802     2.099
 234   1 H      0.924     0.064     2.148     2.292
 235   1 H      0.860     0.230     0.963     1.538
 236   1 H      0.860     0.232     0.955     1.531
 237   7 N      2.687    -0.163    24.524     7.355
 238   6 C      3.793     0.016    20.311     6.418
 239   6 C      2.765     0.194    23.855     7.999
 240   8 O      0.856    -0.350    20.698     6.100
 241   6 C      3.852    -0.012    20.760     6.480
 242   6 C      3.756    -0.116    22.771     6.804
 243   6 C      3.754    -0.122    22.904     6.824
 244   1 H      0.860     0.204     1.087     1.633
 245   1 H      0.924     0.097     1.815     2.107
 246   1 H      0.924     0.056     2.247     2.344
 247   1 H      0.925     0.050     2.325     2.384
 248   1 H      0.925     0.032     2.554     2.499
 249   1 H      0.925     0.056     2.248     2.345
 250   1 H      0.925     0.056     2.246     2.344
 251   1 H      0.925     0.051     2.303     2.373
 252   1 H      0.925     0.048     2.345     2.395
 253   1 H      0.862     0.173     1.254     1.754
 254   1 H      0.930     0.070     2.080     2.255
 255   1 H      0.862     0.186     1.177     1.700
 256   1 H      0.930     0.086     1.917     2.165

 Mol. C6AA /au·bohr⁶  :     589063.973778
 Mol. C8AA /au·bohr⁸  :   12966418.303709
 Mol. α(0) /au        :       1141.321063


Wiberg/Mayer (AO) data.
largest (>0.10) Wiberg bond orders for each atom
          total WBO             WBO to atom ...
     1  N   2.993        C    2 1.012    H  253 0.958    H    9 0.948
     2  C   3.983        N    1 1.012    C    5 0.965    H   10 0.956    C    3 0.940
     3  C   3.944        O    4 1.591    N   20 1.321    C    2 0.940
     4  O   1.958        C    3 1.591    N   20 0.193
     5  C   3.992        C    7 1.009    C    6 0.996    C    2 0.965    H   11 0.963
     6  C   3.996        C    8 1.018    C    5 0.996    H   12 0.977    H   13 0.972
     7  C   3.994        C    5 1.009    H   16 0.987    H   14 0.982    H   15 0.982
     8  C   3.994        C    6 1.018    H   18 0.987    H   17 0.987    H   19 0.985
     9  H   0.972        N    1 0.948
    10  H   0.999        C    2 0.956
    11  H   0.997        C    5 0.963
    12  H   0.999        C    6 0.977
    13  H   0.999        C    6 0.972
    14  H   0.997        C    7 0.982
    15  H   0.998        C    7 0.982
    16  H   0.999        C    7 0.987
    17  H   0.998        C    8 0.987
    18  H   0.998        C    8 0.987
    19  H   0.999        C    8 0.985
    20  N   3.477        C    3 1.321    C   21 0.972    H   29 0.909    O    4 0.193
    21  C   3.957        C   24 0.980    N   20 0.972    H   30 0.949    C   22 0.936
    22  C   3.942        O   23 1.585    N   42 1.325    C   21 0.936
    23  O   1.989        C   22 1.585    N   42 0.186
    24  C   3.980        C   25 1.004    C   21 0.980    H   32 0.968    H   31 0.967
    25  C   3.990        C   24 1.004    C   26 1.002    H   33 0.974    H   34 0.969
    26  C   3.984        C   27 1.010    C   25 1.002    H   36 0.971    H   35 0.970
    27  C   3.909        C   26 1.010    H   37 0.964    H   38 0.964    N   28 0.953
    28  N   3.664        C   27 0.953    H   39 0.897    H   41 0.897    H   40 0.896
    29  H   0.947        N   20 0.909
    30  H   0.991        C   21 0.949
    31  H   0.995        C   24 0.967
    32  H   0.993        C   24 0.968
    33  H   0.995        C   25 0.974
    34  H   0.996        C   25 0.969
    35  H   0.993        C   26 0.970
    36  H   0.993        C   26 0.971
    37  H   0.986        C   27 0.964
    38  H   0.986        C   27 0.964
    39  H   0.911        N   28 0.897
    40  H   0.912        N   28 0.896
    41  H   0.912        N   28 0.897
    42  N   3.490        C   22 1.325    C   43 0.998    H   46 0.914    O   23 0.186
    43  C   3.959        N   42 0.998    C   44 0.962    H   48 0.946    H   47 0.933
    44  C   3.946        O   45 1.575    N   49 1.323    C   43 0.962
    45  O   1.981        C   44 1.575    N   49 0.186
    46  H   0.946        N   42 0.914
    47  H   0.984        C   43 0.933
    48  H   0.988        C   43 0.946
    49  N   3.494        C   44 1.323    C   50 0.987    H   57 0.907    O   45 0.186
    50  C   3.965        N   49 0.987    C   53 0.973    C   51 0.941    H   58 0.932
    51  C   3.947        O   52 1.568    N   68 1.335    C   50 0.941
    52  O   1.950        C   51 1.568    N   68 0.187
    53  C   3.983        C   54 0.992    C   50 0.973    H   60 0.970    H   59 0.966
    54  C   3.995        C   56 1.011    C   55 1.007    C   53 0.992    H   61 0.966
    55  C   3.993        C   54 1.007    H   64 0.987    H   62 0.985    H   63 0.983
    56  C   3.993        C   54 1.011    H   66 0.985    H   65 0.984    H   67 0.983
    57  H   0.954        N   49 0.907
    58  H   0.993        C   50 0.932
    59  H   0.996        C   53 0.966
    60  H   0.996        C   53 0.970
    61  H   0.998        C   54 0.966
    62  H   0.997        C   55 0.985
    63  H   0.998        C   55 0.983
    64  H   0.998        C   55 0.987
    65  H   0.997        C   56 0.984
    66  H   0.998        C   56 0.985
    67  H   0.999        C   56 0.983
    68  N   3.484        C   51 1.335    C   69 0.980    H   75 0.871    O   52 0.187
    69  C   3.959        N   68 0.980    H   76 0.950    C   72 0.943    C   70 0.936
    70  C   3.948        O   71 1.600    N   82 1.321    C   69 0.936
    71  O   1.971        C   70 1.600    N   82 0.194
    72  C   3.960        O   73 1.017    C   74 0.995    H   77 0.960    C   69 0.943
    73  O   1.947        C   72 1.017    H   78 0.823
    74  C   3.988        C   72 0.995    H   80 0.985    H   79 0.981    H   81 0.972
    75  H   0.940        N   68 0.871
    76  H   0.994        C   69 0.950
    77  H   0.996        C   72 0.960
    78  H   0.885        O   73 0.823
    79  H   0.994        C   74 0.981
    80  H   0.998        C   74 0.985
    81  H   0.995        C   74 0.972
    82  N   3.480        C   70 1.321    C   83 0.980    H   91 0.890    O   71 0.194
    83  C   3.963        C   86 0.981    N   82 0.980    H   92 0.948    C   84 0.930
    84  C   3.938        O   85 1.613    N   99 1.308    C   83 0.930
    85  O   1.988        C   84 1.613    N   99 0.193
    86  C   3.983        C   87 0.986    C   83 0.981    H   94 0.972    H   93 0.960
    87  C   3.987        C   86 0.986    H   95 0.968    C   88 0.966    H   96 0.963
    88  C   3.945        O   89 1.638    N   90 1.311    C   87 0.966
    89  O   1.951        C   88 1.638    N   90 0.199
    90  N   3.401        C   88 1.311    H   97 0.931    H   98 0.926    O   89 0.199
    91  H   0.944        N   82 0.890
    92  H   0.991        C   83 0.948
    93  H   0.994        C   86 0.960
    94  H   0.995        C   86 0.972
    95  H   0.993        C   87 0.968
    96  H   0.991        C   87 0.963
    97  H   0.950        N   90 0.931
    98  H   0.947        N   90 0.926
    99  N   3.441        C   84 1.308    C  100 0.985    H  104 0.840    O   85 0.193
   100  C   3.972        C  103 0.991    N   99 0.985    H  105 0.944    C  101 0.940
   101  C   3.940        O  102 1.588    N  109 1.319    C  100 0.940
   102  O   1.977        C  101 1.588    N  109 0.188
   103  C   3.981        C  100 0.991    H  106 0.979    H  108 0.978    H  107 0.974
   104  H   0.937        N   99 0.840
   105  H   0.996        C  100 0.944
   106  H   0.995        C  103 0.979
   107  H   0.991        C  103 0.974
   108  H   0.996        C  103 0.978
   109  N   3.456        C  101 1.319    C  110 0.983    H  115 0.848    O  102 0.188
   110  C   3.969        N  109 0.983    C  113 0.977    H  116 0.952    C  111 0.935
   111  C   3.943        O  112 1.598    N  120 1.325    C  110 0.935
   112  O   1.975        C  111 1.598    N  120 0.197
   113  C   3.951        O  114 1.002    C  110 0.977    H  117 0.965    H  118 0.957
   114  O   1.915        C  113 1.002    H  119 0.858
   115  H   0.941        N  109 0.848
   116  H   0.995        C  110 0.952
   117  H   0.996        C  113 0.965
   118  H   0.996        C  113 0.957
   119  H   0.870        O  114 0.858
   120  N   3.472        C  111 1.325    C  121 0.979    H  131 0.874    O  112 0.197
   121  C   3.965        C  124 0.981    N  120 0.979    H  132 0.953    C  122 0.931
   122  C   3.933        O  123 1.593    N  144 1.318    C  121 0.931
   123  O   1.976        C  122 1.593    N  144 0.187
   124  C   3.978        C  125 1.001    C  121 0.981    H  134 0.972    H  133 0.960
   125  C   3.984        C  126 1.007    C  124 1.001    H  135 0.974    H  136 0.957
   126  C   3.963        C  125 1.007    N  127 0.990    H  138 0.961    H  137 0.959
   127  N   3.468        C  128 1.309    C  126 0.990    H  139 0.913    N  130 0.103
   128  C   3.977        N  130 1.320    N  129 1.319    N  127 1.309
   129  N   3.397        C  128 1.319    H  140 0.921    H  141 0.913    N  130 0.103
   130  N   3.391        C  128 1.320    H  142 0.917    H  143 0.911    N  129 0.103    N  127 0.103
   131  H   0.938        N  120 0.874
   132  H   0.996        C  121 0.953
   133  H   0.993        C  124 0.960
   134  H   0.997        C  124 0.972
   135  H   0.995        C  125 0.974
   136  H   0.991        C  125 0.957
   137  H   0.994        C  126 0.959
   138  H   0.994        C  126 0.961
   139  H   0.946        N  127 0.913
   140  H   0.944        N  129 0.921
   141  H   0.931        N  129 0.913
   142  H   0.936        N  130 0.917
   143  H   0.929        N  130 0.911
   144  N   3.455        C  122 1.318    C  145 0.983    H  152 0.871    O  123 0.187
   145  C   3.971        C  148 0.983    N  144 0.983    H  153 0.947    C  146 0.936
   146  C   3.945        O  147 1.573    N  158 1.346    C  145 0.936
   147  O   1.939        C  146 1.573    N  158 0.193
   148  C   3.987        C  145 0.983    C  149 0.962    H  155 0.956    H  154 0.944
   149  C   3.953        O  150 1.672    N  151 1.288    C  148 0.962
   150  O   1.979        C  149 1.672    N  151 0.201
   151  N   3.374        C  149 1.288    H  157 0.932    H  156 0.916    O  150 0.201
   152  H   0.940        N  144 0.871
   153  H   0.996        C  145 0.947
   154  H   0.991        C  148 0.944
   155  H   0.995        C  148 0.956
   156  H   0.936        N  151 0.916
   157  H   0.950        N  151 0.932
   158  N   3.480        C  146 1.346    C  159 0.977    H  163 0.849    O  147 0.193
   159  C   3.966        C  162 0.995    N  158 0.977    H  164 0.953    C  160 0.933
   160  C   3.946        O  161 1.610    N  168 1.326    C  159 0.933
   161  O   1.925        C  160 1.610    N  168 0.198
   162  C   3.982        C  159 0.995    H  165 0.981    H  167 0.981    H  166 0.977
   163  H   0.938        N  158 0.849
   164  H   0.996        C  159 0.953
   165  H   0.994        C  162 0.981
   166  H   0.993        C  162 0.977
   167  H   0.996        C  162 0.981
   168  N   3.480        C  160 1.326    C  169 0.986    H  176 0.872    O  161 0.198
   169  C   3.971        C  172 0.986    N  168 0.986    H  177 0.950    C  170 0.933
   170  C   3.944        O  171 1.603    N  182 1.328    C  169 0.933
   171  O   1.917        C  170 1.603    N  182 0.198
   172  C   3.988        C  169 0.986    H  178 0.958    H  179 0.956    C  173 0.955
   173  C   3.952        O  174 1.659    N  175 1.309    C  172 0.955
   174  O   1.963        C  173 1.659    N  175 0.200
   175  N   3.390        C  173 1.309    H  181 0.930    H  180 0.917    O  174 0.200
   176  H   0.944        N  168 0.872
   177  H   0.995        C  169 0.950
   178  H   0.994        C  172 0.958
   179  H   0.993        C  172 0.956
   180  H   0.939        N  175 0.917
   181  H   0.949        N  175 0.930
   182  N   3.473        C  170 1.328    C  183 0.979    H  190 0.863    O  171 0.198
   183  C   3.970        C  186 0.983    N  182 0.979    H  191 0.952    C  184 0.938
   184  C   3.949        O  185 1.618    N  194 1.308    C  183 0.938
   185  O   1.930        C  184 1.618    N  194 0.193
   186  C   3.975        C  183 0.983    H  192 0.969    H  193 0.966    C  187 0.894
   187  C   3.939        O  188 1.513    O  189 1.507    C  186 0.894
   188  O   1.809        C  187 1.513    O  189 0.219
   189  O   1.811        C  187 1.507    O  188 0.219
   190  H   0.947        N  182 0.863
   191  H   0.997        C  183 0.952
   192  H   0.998        C  186 0.969
   193  H   0.999        C  186 0.966
   194  N   3.467        C  184 1.308    C  195 0.987    H  198 0.884    O  185 0.193
   195  C   3.963        C  196 0.988    N  194 0.987    H  199 0.958    H  200 0.942
   196  C   3.902        O  197 1.903    C  195 0.988    H  254 0.956
   197  O   2.039        C  196 1.903
   198  H   0.951        N  194 0.884
   199  H   0.991        C  195 0.958
   200  H   0.988        C  195 0.942
   201  N   2.999        C  202 1.012    H  209 0.957    H  255 0.952
   202  C   3.985        N  201 1.012    C  205 0.965    H  210 0.961    C  203 0.939
   203  C   3.944        O  204 1.635    N  220 1.297    C  202 0.939
   204  O   1.948        C  203 1.635    N  220 0.195
   205  C   3.994        C  207 1.008    C  206 0.995    C  202 0.965    H  211 0.965
   206  C   3.996        C  208 1.020    C  205 0.995    H  213 0.977    H  212 0.973
   207  C   3.997        C  205 1.008    H  214 0.986    H  216 0.984    H  215 0.984
   208  C   3.996        C  206 1.020    H  217 0.987    H  218 0.986    H  219 0.985
   209  H   0.976        N  201 0.957
   210  H   0.999        C  202 0.961
   211  H   0.999        C  205 0.965
   212  H   0.999        C  206 0.973
   213  H   0.999        C  206 0.977
   214  H   0.999        C  207 0.986
   215  H   0.999        C  207 0.984
   216  H   0.999        C  207 0.984
   217  H   0.999        C  208 0.987
   218  H   0.999        C  208 0.986
   219  H   0.998        C  208 0.985
   220  N   3.462        C  203 1.297    C  221 0.972    H  229 0.922    O  204 0.195
   221  C   3.962        C  224 0.985    N  220 0.972    H  230 0.953    C  222 0.928
   222  C   3.949        O  223 1.648    N  237 1.295    C  221 0.928
   223  O   1.965        C  222 1.648    N  237 0.198
   224  C   3.987        C  225 1.009    C  221 0.985    H  232 0.971    H  231 0.968
   225  C   3.994        C  224 1.009    C  226 0.967    H  234 0.964    H  233 0.947
   226  C   3.945        O  227 1.644    N  228 1.306    C  225 0.967
   227  O   1.948        C  226 1.644    N  228 0.199
   228  N   3.390        C  226 1.306    H  235 0.927    H  236 0.924    O  227 0.199
   229  H   0.955        N  220 0.922
   230  H   0.996        C  221 0.953
   231  H   0.994        C  224 0.968
   232  H   0.994        C  224 0.971
   233  H   0.990        C  225 0.947
   234  H   0.996        C  225 0.964
   235  H   0.947        N  228 0.927
   236  H   0.946        N  228 0.924
   237  N   3.477        C  222 1.295    C  238 0.989    H  244 0.923    O  223 0.198
   238  C   3.963        N  237 0.989    C  239 0.984    H  245 0.936    C  241 0.930
   239  C   3.908        O  240 1.901    C  238 0.984    H  256 0.950
   240  O   2.052        C  239 1.901
   241  C   3.987        C  243 1.009    C  242 1.008    H  246 0.964    C  238 0.930
   242  C   3.993        C  241 1.008    H  248 0.986    H  247 0.982    H  249 0.978
   243  C   3.993        C  241 1.009    H  252 0.984    H  250 0.983    H  251 0.983
   244  H   0.958        N  237 0.923
   245  H   0.991        C  238 0.936
   246  H   0.996        C  241 0.964
   247  H   0.998        C  242 0.982
   248  H   0.999        C  242 0.986
   249  H   0.997        C  242 0.978
   250  H   0.997        C  243 0.983
   251  H   0.997        C  243 0.983
   252  H   0.998        C  243 0.984
   253  H   0.970        N    1 0.958
   254  H   0.995        C  196 0.956
   255  H   0.965        N  201 0.952
   256  H   0.993        C  239 0.950
 
molecular dipole:
                 x           y           z       tot (Debye)
 q only:      218.862     114.936     319.417
   full:      217.937     113.803     320.030    1025.787
molecular quadrupole (traceless):
                xx          xy          yy          xz          yz          zz
 q only:    -8968.624   37380.752  -59525.573  107639.782   55891.641   68494.197
  q+dip:    -9420.487   36793.529  -59726.773  107511.219   55566.010   69147.261
   full:    -9420.112   36791.407  -59727.091  107512.707   55567.088   69147.203


           -------------------------------------------------
          | TOTAL ENERGY             -400.704104315361 Eh   |
          | GRADIENT NORM               0.321504472269 Eh/α |
          | HOMO-LUMO GAP               1.679469644806 eV   |
           -------------------------------------------------

------------------------------------------------------------------------
 * finished run on 2019/05/31 at 05:35:18.617     
------------------------------------------------------------------------
 total:
 * wall-time:     0 d,  0 h,  0 min,  2.780 sec
 *  cpu-time:     0 d,  0 h,  0 min,  4.831 sec
 * ratio c/w:     1.738 speedup
 SCF:
 * wall-time:     0 d,  0 h,  0 min,  2.336 sec
 *  cpu-time:     0 d,  0 h,  0 min,  4.277 sec
 * ratio c/w:     1.831 speedup

