      -----------------------------------------------------------      
     |                   =====================                   |     
     |                           x T B                           |     
     |                   =====================                   |     
     |                         S. Grimme                         |     
     |          Mulliken Center for Theoretical Chemistry        |     
     |                    University of Bonn                     |     
     |                Version 6.1 RC1 (SAW190329)                |     
      -----------------------------------------------------------      

   This program is distributed in the hope that it will be useful,
   but WITHOUT ANY WARRANTY; without even the implied warranty of
   MERCHANTABILITY or FITNESS FOR A PARTICULAR PURPOSE.
   
   FOR NON-COMMERCIAL, ACADEMIA USE ONLY.
   
   Cite this work as:
   S. Grimme, C. Bannwarth, P. Shushkov, J. Comput. Theory Chem., 2017,
   13, 1989-2009. DOI: 10.1021/acs.jctc.7b00118
   C. Bannwarth, S. Ehlert and S. Grimme., J. Comput. Theory Chem., 2019,
   just accepted. DOI: 10.1021/acs.jctc.8b01176
   
   for sTDA-xTB:
   S. Grimme and C. Bannwarth, J. Chem. Phys., 2016, 145, 054103.
   DOI: 10.1063/1.4959605
   
   in the mass-spec context:
   V. Asgeirsson, C. Bauer and S. Grimme, Chem. Sci., 2017, 8, 4879.
   DOI: 10.1039/c7sc00601b
   
   for metadynamics refer to:
   S. Grimme, ChemRxiv, Preprint. DOI: 10.26434/chemrxiv.7660532.v1
   
   with help from (in alphabetical order)
   C. Bannwarth, F. Bohle, G. Brandenburg, E. Caldeweyher, M. Checinski,
   S. Dohm, S. Ehlert, S. Ehrlich, F. März, H. Neugebauer, J. Pisarek,
   P. Pracht, P. Shushkov, and S. Spicher.
   
 * started run on 2019/05/31 at 06:33:31.774     

           -------------------------------------------------
          |                Calculation Setup                |
           -------------------------------------------------

          program call               : /home/lum/qr/xtb-190329/bin/xtb xtb_tmp.xyz --chrg 0 --grad --gfn 2 --etemp 500 --acc 0.1 --gbsa h2o --parallel 2
          hostname                   : cu39
          coordinate file            : xtb_tmp.xyz
          omp threads                :                     2
          number of atoms            :                   330
          number of electrons        :                   892
          charge                     :                     0
          spin                       :                   0.0
          first test random number   :      0.95213878430975


molecular fragmentation (1/2 indicates fragments):
111111111111111111111111111111111111111111111111111111111111111111111111
111111111111111111111111111111111111111111111111111111111111111112222222
222222222222222222222222222222222222222222222222222222222222222222222222
222222222222222222222222222222222222222222222222222222222222222222222222
222222222222222222222222222222222211222222
# atoms in fragment 1/2:   139   191
 fragment masses (1/2) :      910.12     1336.50
CMA distance (Bohr)    :  18.986
constraining FC (au)   :  0.0500

########################################################################
# WARNING! Please study the warnings concerning your input carefully
#  - XTBPATH is not set, using XTBHOME instead
#  - Process number higher than OMP_NUM_THREADS, I hope you know what you are doing.
########################################################################

           ------------------------------------------------- 
          |                 G F N 2 - x T B                 |
          | Geometry, Frequencies, Noncovalent interactions |
          |            JCTC 2018 parametrisation            |
           ------------------------------------------------- 
 
             k(s)              :                1.8500
             k(p)              :                2.2300
             k(d)              :                2.2300
             k(f)              :                2.0000
             kEN (H0ij)        :               -2.0000
             D4 a1             :                0.5200
             D4 a2             :                5.0000
             D4 s6             :                1.0000
             D4 s8             :                2.7000
             D4 s9             :                5.0000
             alphaj            :                2.0000

  Z AO/shell   Hii/eV     exponent
  1     Wed Apr 25 08:07:45 CEST 2018   EN: 2.200 GM2: 0.406  GM3: 0.0800  RAES: 1.40
     1s    -10.707211    1.230000
  6     Wed Apr 25 08:07:45 CEST 2018   EN: 2.550 GM2: 0.538  GM3: 0.1500  RAES: 3.00
     2s    -13.970922    2.096432
     2p    -10.063292    1.800000
  7     Wed Apr 25 08:07:45 CEST 2018   EN: 3.040 GM2: 0.461  GM3:-0.0640  RAES: 1.90
     2s    -16.686243    2.339881
     2p    -12.523956    2.014332
  8     Wed Apr 25 08:07:45 CEST 2018   EN: 3.440 GM2: 0.452  GM3:-0.0517  RAES: 1.80
     2s    -20.229985    2.439742
     2p    -15.503117    2.137023

 Solvent             : h2o
 Using internal parameter file: .param_gbsa2_h2o
 Gsolv ref. state (COSMO-RS): gsolv [1 M gas/solution]
 temperature (mdtemp)       :    298.150000000000     
 dielectric constant        :    80.2000000000000     
 rho                        :    1.00000000000000     
 mass                       :    18.0000000000000     
 surface tension            :    15.5689454083859     
 probe radius               :   0.975313790000000     
 vdW radii scaling          :    1.00000000000000     
 Gshift (Eh)                :   1.857443126794793E-003
 c1                         :    1.55243817000000     
 soset                      :   0.130326360000000     
 HB correction              :  T
 Number of grid points      :          230

            Z     q(EN)     CN     RAES       Cart. coordinates
     1  N   5.0   -0.73    3.00    1.93   104.16622    38.43637    71.36014
     2  C   4.0    0.07    3.98    3.58   103.41217    38.73103    73.97096
     3  C   4.0    0.28    3.01    3.02   103.76354    41.42747    74.97104
     4  O   6.0   -0.47    1.00    1.80   102.13392    42.37188    76.32454
     5  C   4.0   -0.15    3.98    3.58   104.59125    36.63140    75.61131
     6  C   4.0   -0.15    3.98    3.58   107.42273    36.06491    75.34448
     7  C   4.0   -0.15    3.98    3.58   109.14931    37.72741    76.96042
     8  C   4.0   -0.07    3.98    3.58   111.93887    37.13061    76.51820
     9  N   5.0   -0.73    3.98    2.81   112.60018    34.52714    77.39066
    10  H   1.0    0.25    1.00    1.43   105.52366    37.16209    70.94100
    11  H   1.0    0.10    0.99    1.43   101.35419    38.46647    74.07771
    12  H   1.0    0.11    0.99    1.43   104.15158    37.06069    77.57616
    13  H   1.0    0.09    0.99    1.43   103.57844    34.90714    75.10919
    14  H   1.0    0.10    0.99    1.43   107.63051    34.09906    75.92460
    15  H   1.0    0.10    0.99    1.43   108.02517    36.20445    73.37789
    16  H   1.0    0.11    0.99    1.43   108.83076    39.70520    76.48333
    17  H   1.0    0.10    0.99    1.43   108.68817    37.48728    78.95513
    18  H   1.0    0.10    0.99    1.43   112.39713    37.28583    74.51287
    19  H   1.0    0.10    0.99    1.43   113.09813    38.47590    77.55936
    20  H   1.0    0.23    1.00    1.43   114.52581    34.24458    77.29529
    21  H   1.0    0.23    1.00    1.43   112.02380    34.27667    79.23789
    22  H   1.0    0.23    1.00    1.43   111.72672    33.18985    76.27432
    23  N   5.0   -0.49    3.00    1.93   105.94336    42.59690    74.40375
    24  C   4.0    0.06    4.00    3.61   106.31389    45.21039    75.16926
    25  C   4.0    0.28    3.01    3.02   104.27249    46.91391    74.00852
    26  O   6.0   -0.38    1.00    1.80   102.96996    48.34708    75.26942
    27  C   4.0   -0.16    3.98    3.59   108.93617    46.17071    74.38336
    28  C   4.0   -0.16    3.98    3.58   110.10653    47.95687    76.34486
    29  C   4.0   -0.16    3.98    3.58   111.88959    46.57718    78.18340
    30  C   4.0   -0.06    3.98    3.58   114.57946    47.60386    78.13370
    31  N   5.0   -0.72    3.98    2.81   115.69587    47.55788    75.53766
    32  H   1.0    0.23    1.00    1.43   106.88960    42.07666    72.81295
    33  H   1.0    0.13    0.99    1.43   106.08406    45.30974    77.22570
    34  H   1.0    0.10    0.99    1.43   110.18663    44.56235    74.07709
    35  H   1.0    0.10    0.99    1.43   108.79983    47.13033    72.56252
    36  H   1.0    0.11    0.99    1.43   111.11404    49.45170    75.35137
    37  H   1.0    0.12    0.99    1.43   108.57984    48.89416    77.36241
    38  H   1.0    0.10    0.99    1.43   111.20092    46.75924    80.11323
    39  H   1.0    0.10    0.99    1.43   111.92371    44.57288    77.71761
    40  H   1.0    0.11    0.99    1.43   114.59642    49.54560    78.82972
    41  H   1.0    0.10    0.99    1.43   115.75214    46.45746    79.38049
    42  H   1.0    0.23    1.00    1.43   117.60471    47.23518    75.62547
    43  H   1.0    0.22    0.99    1.43   114.89488    46.21925    74.28033
    44  H   1.0    0.23    1.00    1.43   115.42454    49.25423    74.64214
    45  N   5.0   -0.49    3.01    1.93   104.03641    46.64166    71.49549
    46  C   4.0    0.07    3.99    3.61   102.41686    48.27840    69.99170
    47  C   4.0    0.30    3.01    3.02    99.76606    48.28988    71.16586
    48  O   6.0   -0.41    1.00    1.80    98.61732    50.23239    71.66305
    49  C   4.0   -0.15    3.98    3.59   102.48247    47.28798    67.26788
    50  C   4.0   -0.10    3.97    3.58   100.81132    48.65638    65.32529
    51  C   4.0   -0.22    3.98    3.59    98.02317    47.94570    65.56961
    52  C   4.0   -0.22    3.98    3.59   101.13716    51.52122    65.45605
    53  H   1.0    0.22    1.00    1.43   105.30072    45.56798    70.53776
    54  H   1.0    0.12    0.99    1.43   103.11373    50.23408    70.07291
    55  H   1.0    0.09    0.99    1.43   104.45133    47.45410    66.65522
    56  H   1.0    0.10    0.99    1.43   101.96984    45.28832    67.30594
    57  H   1.0    0.10    0.99    1.43   101.47550    48.04551    63.46199
    58  H   1.0    0.09    0.99    1.43    96.98359    48.71467    63.97642
    59  H   1.0    0.10    0.99    1.43    97.79482    45.90630    65.63454
    60  H   1.0    0.13    0.99    1.43    97.23442    48.76993    67.27498
    61  H   1.0    0.11    0.99    1.43   100.16323    52.44835    63.90105
    62  H   1.0    0.13    0.99    1.43   100.35801    52.26739    67.20773
    63  H   1.0    0.10    0.99    1.43   103.12080    52.07349    65.35479
    64  N   5.0   -0.48    3.01    1.93    98.82946    45.97019    71.52020
    65  C   4.0    0.07    3.99    3.60    96.26663    45.50515    72.38851
    66  C   4.0    0.30    3.01    3.02    95.80681    46.79892    74.92950
    67  O   6.0   -0.48    1.00    1.80    93.95420    48.13797    75.31820
    68  C   4.0   -0.15    3.99    3.60    95.91393    42.63096    72.48487
    69  C   4.0   -0.11    3.97    3.58    93.18412    41.63693    72.51026
    70  C   4.0   -0.21    3.98    3.59    91.77375    42.34989    74.92837
    71  C   4.0   -0.23    3.98    3.59    91.70909    42.43889    70.15267
    72  H   1.0    0.24    1.00    1.43    99.91843    44.45764    71.06826
    73  H   1.0    0.12    0.99    1.43    94.94804    46.37507    71.04882
    74  H   1.0    0.09    0.99    1.43    96.87264    41.91861    70.80145
    75  H   1.0    0.12    0.99    1.43    96.91648    41.94109    74.14826
    76  H   1.0    0.10    0.99    1.43    93.33942    39.57611    72.50339
    77  H   1.0    0.10    0.99    1.43    90.00448    41.30961    75.05294
    78  H   1.0    0.12    0.99    1.43    92.90270    41.93507    76.60042
    79  H   1.0    0.13    0.99    1.43    91.33351    44.35523    74.95528
    80  H   1.0    0.10    0.99    1.43    90.00395    41.30820    69.95864
    81  H   1.0    0.10    0.99    1.43    91.13313    44.40445    70.31044
    82  H   1.0    0.09    0.99    1.43    92.83979    42.23260    68.44794
    83  N   5.0   -0.46    3.01    1.93    97.49775    46.24026    76.72576
    84  C   4.0    0.09    3.99    3.61    97.15772    46.90950    79.36287
    85  C   4.0    0.28    3.00    3.02    97.97321    49.65893    79.84203
    86  O   6.0   -0.41    1.00    1.80    99.83764    50.21653    81.07263
    87  C   4.0    0.05    3.98    3.58    98.66160    45.03627    81.02780
    88  O   6.0   -0.48    1.99    1.82    98.34875    42.53021    80.18292
    89  C   4.0   -0.19    3.98    3.59    97.78725    45.19813    83.76693
    90  H   1.0    0.29    1.00    1.43    99.15987    45.41878    76.25692
    91  H   1.0    0.13    0.99    1.43    95.13233    46.75977    79.78750
    92  H   1.0    0.14    0.99    1.43   100.65867    45.59387    80.92264
    93  H   1.0    0.30    0.99    1.43    99.51886    42.22196    78.80112
    94  H   1.0    0.12    0.99    1.43    98.80682    43.81070    84.88292
    95  H   1.0    0.13    0.99    1.43    98.14861    47.07678    84.50376
    96  H   1.0    0.12    0.99    1.43    95.77558    44.80740    83.89594
    97  N   5.0   -0.48    3.01    1.93    96.38828    51.36116    78.81170
    98  C   4.0    0.07    3.99    3.61    97.04296    54.01393    78.57318
    99  C   4.0    0.28    3.01    3.02    94.74699    55.63783    79.29180
   100  O   6.0   -0.43    1.00    1.80    93.27333    56.47321    77.72375
   101  C   4.0   -0.09    3.98    3.59    97.88453    54.59970    75.85537
   102  C   4.0    0.09    3.22    3.04    98.83554    57.22967    75.64514
   103  N   5.0   -0.45    3.15    1.95    97.56569    59.09015    74.38012
   104  C   4.0    0.07    3.36    3.07   100.93928    58.38128    76.61101
   105  C   4.0    0.20    3.41    3.08    98.92569    61.23613    74.63885
   106  N   5.0   -0.36    2.09    1.90   100.97478    60.87429    75.96870
   107  H   1.0    0.29    1.00    1.43    95.01034    50.69774    77.64309
   108  H   1.0    0.14    0.99    1.43    98.60221    54.37311    79.88751
   109  H   1.0    0.15    0.99    1.43    99.34942    53.25006    75.32023
   110  H   1.0    0.15    0.99    1.43    96.28230    54.34840    74.58108
   111  H   1.0    0.29    1.00    1.43    95.92835    58.86638    73.42305
   112  H   1.0    0.12    1.00    1.43   102.42742    57.58682    77.72819
   113  H   1.0    0.13    1.00    1.43    98.35442    63.01146    73.83840
   114  N   5.0   -0.47    3.01    1.93    94.43174    55.93289    81.79200
   115  C   4.0    0.07    3.99    3.60    92.28852    57.20814    82.91719
   116  C   4.0    0.27    3.01    3.02    93.19979    59.50891    84.42777
   117  O   6.0   -0.38    1.00    1.80    95.42769    59.81469    84.92844
   118  C   4.0   -0.13    3.98    3.59    90.86768    55.33309    84.62997
   119  C   4.0   -0.11    3.98    3.59    89.47993    53.33370    83.05950
   120  C   4.0    0.27    3.00    3.02    88.57421    51.21738    84.78285
   121  O   6.0   -0.39    1.00    1.80    89.92170    49.43994    85.36677
   122  N   5.0   -0.65    3.00    1.93    86.20772    51.47739    85.64921
   123  H   1.0    0.26    1.00    1.43    95.82576    55.43737    82.99867
   124  H   1.0    0.14    0.99    1.43    91.06995    57.84997    81.37122
   125  H   1.0    0.14    0.99    1.43    92.24265    54.39260    85.84820
   126  H   1.0    0.13    0.99    1.43    89.53196    56.34240    85.83074
   127  H   1.0    0.10    0.99    1.43    87.90378    54.19099    82.04619
   128  H   1.0    0.13    0.99    1.43    90.78641    52.53129    81.68133
   129  H   1.0    0.26    1.00    1.43    85.11526    52.95708    85.17524
   130  H   1.0    0.29    1.00    1.43    85.51899    50.17683    86.85608
   131  N   5.0   -0.47    3.00    1.93    91.36826    61.15476    85.11217
   132  C   4.0    0.02    3.99    3.61    91.88213    63.00000    87.06120
   133  C   4.0    0.06    3.00    3.02    90.67326    62.19257    89.56385
   134  O   6.0   -0.39    1.00    1.80    88.94730    60.64059    89.61909
   135  H   1.0    0.25    1.00    1.43    89.55194    60.55424    85.06908
   136  H   1.0    0.14    0.99    1.43    93.92514    63.15496    87.30766
   137  H   1.0    0.12    0.99    1.43    91.14015    64.85434    86.53075
   138  N   5.0   -0.70    3.00    1.93    86.20721    58.01826    54.75674
   139  C   4.0    0.08    3.99    3.60    88.71928    58.43322    55.75292
   140  C   4.0    0.27    3.01    3.02    88.71640    57.59650    58.51748
   141  O   6.0   -0.44    1.00    1.80    86.91646    58.02401    59.92583
   142  C   4.0   -0.09    3.98    3.58    89.52023    61.22343    55.44583
   143  C   4.0   -0.21    3.98    3.59    87.73660    63.05328    56.80666
   144  C   4.0   -0.23    3.98    3.59    92.24466    61.53640    56.34782
   145  H   1.0    0.28    1.00    1.43    84.80003    58.95637    55.63696
   146  H   1.0    0.11    0.99    1.43    90.01090    57.22887    54.67086
   147  H   1.0    0.10    0.99    1.43    89.44773    61.61635    53.41557
   148  H   1.0    0.10    0.99    1.43    88.61316    64.90849    56.91213
   149  H   1.0    0.10    0.99    1.43    85.94908    63.24540    55.80463
   150  H   1.0    0.14    0.99    1.43    87.35281    62.41191    58.72378
   151  H   1.0    0.10    0.99    1.43    92.94643    63.38352    55.78438
   152  H   1.0    0.12    0.99    1.43    92.35364    61.37965    58.39764
   153  H   1.0    0.11    0.99    1.43    93.43516    60.08213    55.50633
   154  N   5.0   -0.50    3.01    1.93    90.76066    56.30520    59.25030
   155  C   4.0    0.07    4.00    3.61    91.13865    55.52657    61.84916
   156  C   4.0    0.26    3.00    3.02    93.30454    57.13610    62.92413
   157  O   6.0   -0.45    1.00    1.80    95.42122    57.17562    62.02986
   158  C   4.0   -0.09    3.98    3.58    91.53907    52.64941    62.08419
   159  C   4.0   -0.21    3.98    3.59    93.79613    51.72799    60.54510
   160  C   4.0   -0.23    3.98    3.59    91.78535    51.91640    64.86521
   161  H   1.0    0.23    1.00    1.43    92.21977    56.04283    58.04575
   162  H   1.0    0.12    0.99    1.43    89.39843    56.02586    62.85120
   163  H   1.0    0.10    0.99    1.43    89.81679    51.76860    61.33600
   164  H   1.0    0.09    0.99    1.43    93.99628    49.69989    60.79668
   165  H   1.0    0.11    0.99    1.43    93.49706    52.11770    58.54856
   166  H   1.0    0.13    0.99    1.43    95.52042    52.67027    61.15917
   167  H   1.0    0.09    0.99    1.43    91.86450    49.87422    65.02642
   168  H   1.0    0.12    0.99    1.43    93.48257    52.71774    65.70721
   169  H   1.0    0.09    0.99    1.43    90.16651    52.57602    65.94437
   170  N   5.0   -0.49    3.02    1.93    92.56682    58.59671    64.87807
   171  C   4.0    0.08    3.99    3.60    94.16834    60.46224    66.13214
   172  C   4.0    0.27    3.02    3.02    93.22566    60.47622    68.87951
   173  O   6.0   -0.44    1.00    1.80    93.70165    58.68351    70.26479
   174  C   4.0   -0.10    3.98    3.58    94.04444    62.95797    64.66484
   175  C   4.0    0.31    2.99    3.02    95.40366    65.16648    66.04529
   176  O   6.0   -0.45    1.00    1.80    97.59207    65.67706    65.37579
   177  O   6.0   -0.44    1.00    1.80    94.15849    66.30554    67.70587
   178  H   1.0    0.24    1.00    1.43    90.75861    58.51187    65.47889
   179  H   1.0    0.15    0.99    1.43    96.10845    59.73276    66.12188
   180  H   1.0    0.12    0.99    1.43    94.93313    62.65817    62.82155
   181  H   1.0    0.12    0.99    1.43    92.06772    63.48770    64.39764
   182  N   5.0   -0.48    3.00    1.93    91.64351    62.38314    69.46016
   183  C   4.0    0.07    3.99    3.61    90.34762    62.43178    71.87749
   184  C   4.0    0.28    3.01    3.02    87.49588    62.30912    71.44335
   185  O   6.0   -0.46    1.00    1.80    86.16413    60.82419    72.61890
   186  C   4.0   -0.12    3.98    3.59    91.03862    64.72234    73.52571
   187  C   4.0   -0.10    3.97    3.58    89.88223    67.20971    72.68051
   188  C   4.0    0.33    2.99    3.02    91.08702    69.53410    74.04942
   189  O   6.0   -0.35    1.00    1.80    92.56013    69.11498    75.83655
   190  O   6.0   -0.35    1.00    1.80    90.48301    71.64654    73.19140
   191  H   1.0    0.28    1.00    1.43    92.18751    64.12114    68.71638
   192  H   1.0    0.15    0.99    1.43    90.86851    60.71215    72.91968
   193  H   1.0    0.14    0.99    1.43    90.41509    64.36408    75.46465
   194  H   1.0    0.15    0.99    1.43    93.09825    64.93083    73.55693
   195  H   1.0    0.13    0.99    1.43    90.16691    67.54483    70.66338
   196  H   1.0    0.15    0.99    1.43    87.85948    67.26425    73.10837
   197  N   5.0   -0.46    3.01    1.93    86.60965    63.72793    69.53803
   198  C   4.0    0.10    4.00    3.62    83.90656    64.12309    69.25467
   199  C   4.0    0.30    3.01    3.02    82.56814    61.59741    68.99827
   200  O   6.0   -0.41    1.00    1.80    80.54599    61.14172    70.04975
   201  C   4.0    0.03    3.98    3.58    83.38549    65.81773    66.95168
   202  O   6.0   -0.47    1.99    1.82    84.36518    64.60411    64.77253
   203  C   4.0   -0.22    3.98    3.58    84.48064    68.46114    67.32387
   204  H   1.0    0.23    1.00    1.43    87.69740    65.20254    69.00512
   205  H   1.0    0.15    0.99    1.43    83.13578    65.05856    70.93870
   206  H   1.0    0.13    0.99    1.43    81.32308    65.95817    66.74648
   207  H   1.0    0.25    0.99    1.43    85.40515    65.80220    63.87079
   208  H   1.0    0.11    0.99    1.43    83.72376    69.73930    65.90522
   209  H   1.0    0.12    0.99    1.43    83.96426    69.17719    69.18103
   210  H   1.0    0.11    0.99    1.43    86.53902    68.47447    67.21757
   211  N   5.0   -0.46    3.01    1.93    83.74544    59.85872    67.58115
   212  C   4.0    0.07    3.99    3.61    82.61445    57.37509    67.22252
   213  C   4.0    0.29    3.01    3.02    82.26175    56.13596    69.80580
   214  O   6.0   -0.46    1.00    1.80    80.23946    55.17495    70.41937
   215  C   4.0   -0.14    3.98    3.59    84.21267    55.71272    65.47361
   216  C   4.0   -0.10    3.98    3.58    82.69051    53.57611    64.21603
   217  C   4.0   -0.23    3.98    3.59    84.32764    52.27357    62.22659
   218  C   4.0   -0.21    3.98    3.59    81.71291    51.61795    66.09537
   219  H   1.0    0.27    1.00    1.43    85.12820    60.44630    66.40424
   220  H   1.0    0.13    0.99    1.43    80.70948    57.61854    66.43378
   221  H   1.0    0.13    0.99    1.43    84.97994    56.91405    63.97784
   222  H   1.0    0.10    0.99    1.43    85.78861    54.91581    66.54178
   223  H   1.0    0.12    0.99    1.43    81.05951    54.44039    63.28147
   224  H   1.0    0.10    0.99    1.43    83.21808    50.85968    61.23335
   225  H   1.0    0.13    0.99    1.43    85.03011    53.64616    60.86845
   226  H   1.0    0.09    0.99    1.43    85.91888    51.34795    63.13852
   227  H   1.0    0.10    0.99    1.43    80.73205    50.12299    65.08601
   228  H   1.0    0.11    0.99    1.43    83.26814    50.80706    67.16694
   229  H   1.0    0.15    0.99    1.43    80.38240    52.44804    67.41300
   230  N   5.0   -0.49    3.01    1.93    84.31606    55.98883    71.26697
   231  C   4.0    0.08    4.00    3.61    84.16559    54.93434    73.79252
   232  C   4.0    0.28    3.01    3.02    81.99156    56.05124    75.33109
   233  O   6.0   -0.45    1.00    1.80    80.84077    54.78743    76.89171
   234  C   4.0   -0.13    3.99    3.60    86.63053    55.36944    75.24596
   235  C   4.0   -0.09    3.97    3.58    88.71413    53.40052    74.79370
   236  C   4.0   -0.22    3.98    3.59    87.94971    50.80569    75.80594
   237  C   4.0   -0.21    3.98    3.59    89.52167    53.21647    72.02928
   238  H   1.0    0.27    1.00    1.43    85.76746    57.18180    70.93686
   239  H   1.0    0.13    0.99    1.43    83.76091    52.90878    73.63216
   240  H   1.0    0.14    0.99    1.43    87.32193    57.25975    74.78446
   241  H   1.0    0.11    0.99    1.43    86.18093    55.37912    77.26116
   242  H   1.0    0.15    0.99    1.43    90.34759    54.07233    75.86987
   243  H   1.0    0.13    0.99    1.43    89.60212    49.58785    75.87305
   244  H   1.0    0.11    0.99    1.43    87.17127    50.97555    77.70138
   245  H   1.0    0.10    0.99    1.43    86.54285    49.93266    74.58897
   246  H   1.0    0.12    0.99    1.43    91.01129    51.80999    71.86015
   247  H   1.0    0.11    0.99    1.43    87.94659    52.65122    70.83704
   248  H   1.0    0.13    0.99    1.43    90.26924    55.01758    71.36512
   249  N   5.0   -0.48    3.01    1.93    81.47749    58.48385    74.87909
   250  C   4.0    0.07    4.00    3.61    79.50005    59.83240    76.16966
   251  C   4.0    0.28    3.00    3.02    76.88339    59.44474    74.95305
   252  O   6.0   -0.41    1.00    1.80    75.01005    60.59089    75.69003
   253  C   4.0   -0.12    3.98    3.59    80.17597    62.63769    76.27229
   254  C   4.0   -0.11    3.97    3.58    82.75578    63.11562    77.46049
   255  C   4.0    0.32    2.99    3.02    83.75009    65.80911    76.76941
   256  O   6.0   -0.42    1.00    1.80    83.87243    66.34980    74.47521
   257  O   6.0   -0.36    1.00    1.80    84.38240    67.18760    78.56478
   258  H   1.0    0.30    1.00    1.43    82.53790    59.49426    73.65460
   259  H   1.0    0.12    0.99    1.43    79.35879    59.04609    78.08708
   260  H   1.0    0.16    0.99    1.43    80.20414    63.36529    74.33402
   261  H   1.0    0.14    0.99    1.43    78.70893    63.66348    77.29926
   262  H   1.0    0.12    0.99    1.43    82.69993    62.95283    79.51475
   263  H   1.0    0.14    0.99    1.43    84.14115    61.78460    76.70438
   264  N   5.0   -0.47    3.01    1.93    76.87001    57.66542    73.16609
   265  C   4.0    0.08    3.98    3.59    74.75246    56.78573    71.68449
   266  C   4.0    0.09    3.00    3.02    73.47736    58.91798    70.18694
   267  O   6.0   -0.38    1.00    1.80    71.18707    59.01314    69.91160
   268  C   4.0   -0.07    3.99    3.60    72.84562    55.30334    73.28168
   269  C   4.0    0.28    3.00    3.02    73.63329    52.58988    73.75521
   270  O   6.0   -0.38    1.00    1.80    72.41408    50.80544    72.93396
   271  N   5.0   -0.63    3.00    1.93    75.70907    52.26370    75.14792
   272  H   1.0    0.33    1.00    1.43    78.55883    56.95467    72.58685
   273  H   1.0    0.14    0.99    1.43    75.57180    55.52351    70.25864
   274  H   1.0    0.14    0.99    1.43    72.62120    56.24533    75.09906
   275  H   1.0    0.15    0.99    1.43    71.01925    55.31230    72.32961
   276  H   1.0    0.29    1.00    1.43    76.33700    50.49836    75.49572
   277  H   1.0    0.31    1.00    1.43    76.79292    53.71067    75.74489
   278  N   5.0   -0.71    3.00    1.93   102.33266    58.05410    57.43305
   279  C   4.0    0.06    3.98    3.58    99.68957    58.48667    56.84669
   280  C   4.0    0.06    3.00    3.02    98.88504    56.82171    54.59888
   281  O   6.0   -0.42    1.00    1.80    98.19271    57.73031    52.57332
   282  C   4.0   -0.14    3.98    3.59    99.29239    61.29357    56.27849
   283  C   4.0   -0.16    3.98    3.59    99.63792    62.89053    58.65200
   284  C   4.0   -0.04    3.99    3.60    98.97015    65.65397    58.19817
   285  N   5.0   -0.47    3.02    1.93    99.12751    67.01244    60.56844
   286  C   4.0    0.38    3.01    3.02    98.80220    69.47758    60.87105
   287  N   5.0   -0.65    3.01    1.93    98.46366    71.02397    58.90765
   288  N   5.0   -0.63    3.02    1.93    98.97768    70.40505    63.20758
   289  H   1.0    0.27    1.00    1.43   103.48161    57.81591    55.91511
   290  H   1.0    0.13    0.99    1.43    98.56924    57.99978    58.53174
   291  H   1.0    0.12    0.99    1.43   100.58668    61.93895    54.80747
   292  H   1.0    0.11    0.99    1.43    97.38783    61.52698    55.54955
   293  H   1.0    0.12    0.99    1.43    98.44963    62.12486    60.16046
   294  H   1.0    0.11    0.99    1.43   101.59423    62.77645    59.29691
   295  H   1.0    0.11    0.99    1.43   100.28879    66.45004    56.82284
   296  H   1.0    0.10    0.99    1.43    97.05996    65.77724    57.41102
   297  H   1.0    0.28    1.00    1.43    99.00589    65.94463    62.17644
   298  H   1.0    0.26    1.00    1.43    98.42129    70.31026    57.14479
   299  H   1.0    0.27    1.00    1.43    98.29932    72.90243    59.18040
   300  H   1.0    0.32    1.00    1.43    98.85753    69.14847    64.65477
   301  H   1.0    0.28    1.00    1.43    98.56158    72.22138    63.57518
   302  N   5.0   -0.67    3.00    1.93    71.43062    61.62193    80.30698
   303  C   4.0    0.06    3.98    3.58    72.05351    63.24121    82.41961
   304  C   4.0    0.07    3.00    3.02    72.42177    65.96428    81.49272
   305  O   6.0   -0.35    1.00    1.80    72.89874    66.46325    79.28866
   306  C   4.0   -0.13    3.99    3.60    74.48852    62.38342    83.75622
   307  C   4.0   -0.04    3.03    3.02    74.62723    59.56474    84.07300
   308  C   4.0   -0.10    3.03    3.02    72.93534    58.26006    85.60202
   309  C   4.0   -0.09    3.04    3.02    76.50395    58.20440    82.85330
   310  C   4.0   -0.07    3.03    3.02    73.23191    55.70664    86.05273
   311  C   4.0   -0.09    3.02    3.02    76.77208    55.63136    83.20941
   312  C   4.0    0.11    3.03    3.02    75.17438    54.37815    84.87495
   313  O   6.0   -0.45    1.99    1.83    75.48791    51.90221    85.46411
   314  H   1.0    0.33    1.00    1.43    72.56071    61.75669    78.76684
   315  H   1.0    0.12    0.99    1.43    70.43474    63.15388    83.70290
   316  H   1.0    0.12    0.99    1.43    76.09822    63.02526    82.63509
   317  H   1.0    0.10    0.99    1.43    74.56998    63.32210    85.59347
   318  H   1.0    0.12    1.00    1.43    71.35622    59.26979    86.40224
   319  H   1.0    0.12    0.99    1.43    77.77839    59.19277    81.60154
   320  H   1.0    0.14    1.00    1.43    71.97220    54.68267    87.28400
   321  H   1.0    0.13    1.00    1.43    78.21109    54.61574    82.17772
   322  H   1.0    0.26    0.99    1.43    76.67155    51.12649    84.30775
   323  H   1.0    0.28    1.00    1.43   102.82341    37.95940    70.43175
   324  H   1.0    0.13    1.00    1.43    91.28697    62.93131    91.19133
   325  H   1.0    0.29    1.00    1.43    86.15509    58.50408    53.12768
   326  H   1.0    0.16    1.00    1.43    74.52644    60.28079    69.40383
   327  H   1.0    0.30    1.00    1.43   102.94706    59.38304    58.29850
   328  H   1.0    0.13    1.00    1.43    98.91526    54.93903    54.75907
   329  H   1.0    0.31    1.00    1.43    71.50513    59.99510    80.79730
   330  H   1.0    0.13    1.00    1.43    72.27328    67.40413    82.70758

           ------------------------------------------------- 
          |        Self-Consistent Charge Iterations        |
           ------------------------------------------------- 

          ...................................................
          :                      SETUP                      :
          :.................................................:
          :  # basis functions                 804          :
          :  # atomic orbitals                 804          :
          :  # shells                          488          :
          :  # electrons                       892          :
          :  max. iterations                   250          :
          :  Hamiltonian                  GFN2-xTB          :
          :  restarted?                      false          :
          :  GBSA solvation                   true          :
          :  PC potential                    false          :
          :  electronic temp.          500.0000000     K    :
          :  accuracy                    0.1000000          :
          :  -> integral cutoff          0.3500000E+02      :
          :  -> integral neglect         0.1000000E-08      :
          :  -> SCF convergence          0.1000000E-06 Eh   :
          :  -> wf. convergence          0.1000000E-04 e    :
          :  Broyden damping             0.4000000          :
          ...................................................

 iter      E             dE          RMSdq      gap      omega  full diag
   1   -510.5727638 -0.510573E+03  0.420E+00    1.53       0.0  T
   2   -512.0744146 -0.150165E+01  0.218E+00    1.62       1.0  T
   3   -512.1346972 -0.602826E-01  0.119E+00    2.15       1.0  T
   4   -512.1493012 -0.146040E-01  0.314E-01    1.40       1.0  T
   5   -512.1650828 -0.157816E-01  0.139E-01    1.58       1.0  T
   6   -512.1661436 -0.106083E-02  0.735E-02    1.65       1.0  T
   7   -512.1663900 -0.246404E-03  0.371E-02    1.69       1.0  T
   8   -512.1665405 -0.150492E-03  0.132E-02    1.73       1.0  T
   9   -512.1665502 -0.973140E-05  0.680E-03    1.74       1.0  T
  10   -512.1665531 -0.290070E-05  0.278E-03    1.74       2.0  T
  11   -512.1665536 -0.489622E-06  0.114E-03    1.74       4.8  T
  12   -512.1665537 -0.105504E-06  0.544E-04    1.74      10.1  T
  13   -512.1665537 -0.223386E-07  0.263E-04    1.74      21.0  T
  14   -512.1665537 -0.342413E-08  0.962E-05    1.74      57.2  T
  15   -512.1665537 -0.714635E-09  0.409E-05    1.74     134.6  T

   *** convergence criteria satisfied after 15 iterations ***

         #    Occupation            Energy/Eh            Energy/eV
      -------------------------------------------------------------
         1        2.0000           -0.7450924             -20.2750
       ...           ...                  ...                  ...
       440        2.0000           -0.3842388             -10.4557
       441        2.0000           -0.3735863             -10.1658
       442        2.0000           -0.3708850             -10.0923
       443        2.0000           -0.3704384             -10.0801
       444        2.0000           -0.3691943             -10.0463
       445        2.0000           -0.3653278              -9.9411
       446        2.0000           -0.3652951              -9.9402 (HOMO)
       447                         -0.3013575              -8.2004 (LUMO)
       448                         -0.2935922              -7.9891
       449                         -0.2908508              -7.9145
       450                         -0.2825499              -7.6886
       451                         -0.2611448              -7.1061
       ...                                ...                  ...
       804                          0.6598663              17.9559
      -------------------------------------------------------------
                  HL-Gap            0.0639376 Eh            1.7398 eV
             Fermi-level           -0.3327315 Eh           -9.0541 eV

 SCC (total)                   0 d,  0 h,  0 min,  6.113 sec
 SCC setup                      ...        0 min,  0.087 sec (  1.426%)
 Dispersion                     ...        0 min,  0.035 sec (  0.572%)
 integral evaluation            ...        0 min,  0.406 sec (  6.638%)
 zeroth order Hamiltonian       ...        0 min,  0.013 sec (  0.205%)
 iterations                     ...        0 min,  3.855 sec ( 63.059%)
 molecular gradient             ...        0 min,  1.670 sec ( 27.324%)
 printout                       ...        0 min,  0.047 sec (  0.773%)

         :::::::::::::::::::::::::::::::::::::::::::::::::::::
         ::                     SUMMARY                     ::
         :::::::::::::::::::::::::::::::::::::::::::::::::::::
         :: total energy             -506.105733582074 Eh   ::
         :: total w/o Gsasa/hb       -506.030014491312 Eh   ::
         :: gradient norm               0.456733755944 Eh/α ::
         :: HOMO-LUMO gap               1.739831710220 eV   ::
         ::.................................................::
         :: SCC energy               -512.183837116269 Eh   ::
         :: -> isotropic ES             2.051510249502 Eh   ::
         :: -> anisotropic ES          -0.110929515344 Eh   ::
         :: -> anisotropic XC           0.164629170758 Eh   ::
         :: -> dispersion              -0.401100477024 Eh   ::
         :: -> Gsolv                   -0.791824792834 Eh   ::
         ::    -> Gborn                -0.716105702073 Eh   ::
         ::    -> Gsasa                -0.019140809887 Eh   ::
         ::    -> Ghb                  -0.058435724002 Eh   ::
         ::    -> Gshift                0.001857443127 Eh   ::
         :: repulsion energy            6.048277319563 Eh   ::
         :: add. restraining            0.000000000000 Eh   ::
         :::::::::::::::::::::::::::::::::::::::::::::::::::::

           -------------------------------------------------
          |                Property Printout                |
           -------------------------------------------------

    * Orbital Energies and Occupations

         #    Occupation            Energy/Eh            Energy/eV
      -------------------------------------------------------------
         1        2.0000           -0.7450924             -20.2750
       ...           ...                  ...                  ...
       434        2.0000           -0.3973730             -10.8131
       435        2.0000           -0.3968156             -10.7979
       436        2.0000           -0.3902633             -10.6196
       437        2.0000           -0.3873129             -10.5393
       438        2.0000           -0.3851375             -10.4801
       439        2.0000           -0.3843425             -10.4585
       440        2.0000           -0.3842388             -10.4557
       441        2.0000           -0.3735863             -10.1658
       442        2.0000           -0.3708850             -10.0923
       443        2.0000           -0.3704384             -10.0801
       444        2.0000           -0.3691943             -10.0463
       445        2.0000           -0.3653278              -9.9411
       446        2.0000           -0.3652951              -9.9402 (HOMO)
       447                         -0.3013575              -8.2004 (LUMO)
       448                         -0.2935922              -7.9891
       449                         -0.2908508              -7.9145
       450                         -0.2825499              -7.6886
       451                         -0.2611448              -7.1061
       452                         -0.2554220              -6.9504
       453                         -0.2517099              -6.8494
       454                         -0.2468758              -6.7178
       455                         -0.2436266              -6.6294
       456                         -0.2435960              -6.6286
       457                         -0.2421356              -6.5888
       ...                                ...                  ...
       804                          0.6598663              17.9559
      -------------------------------------------------------------
                  HL-Gap            0.0639376 Eh            1.7398 eV
             Fermi-level           -0.3327315 Eh           -9.0541 eV

   #   Z        covCN         q      C6AA      α(0)
   1   7 N      2.634    -0.394    30.217     8.164
   2   6 C      3.782     0.025    20.175     6.398
   3   6 C      2.755     0.268    22.479     7.764
   4   8 O      0.858    -0.518    24.189     6.594
   5   6 C      3.801    -0.075    21.939     6.669
   6   6 C      3.800    -0.087    22.158     6.702
   7   6 C      3.801    -0.101    22.420     6.741
   8   6 C      3.730    -0.058    21.719     6.653
   9   7 N      3.482    -0.146    24.147     7.298
  10   1 H      0.860     0.185     1.187     1.707
  11   1 H      0.923     0.029     2.603     2.523
  12   1 H      0.925     0.047     2.352     2.398
  13   1 H      0.924     0.050     2.324     2.384
  14   1 H      0.925     0.064     2.157     2.297
  15   1 H      0.924     0.070     2.086     2.259
  16   1 H      0.925     0.089     1.894     2.152
  17   1 H      0.924     0.074     2.042     2.235
  18   1 H      0.924     0.129     1.543     1.943
  19   1 H      0.925     0.131     1.527     1.933
  20   1 H      0.859     0.302     0.707     1.317
  21   1 H      0.859     0.293     0.735     1.343
  22   1 H      0.859     0.287     0.754     1.360
  23   7 N      2.686    -0.174    24.764     7.391
  24   6 C      3.800     0.003    20.535     6.452
  25   6 C      2.754     0.278    22.296     7.732
  26   8 O      0.858    -0.506    23.927     6.558
  27   6 C      3.804    -0.102    22.434     6.743
  28   6 C      3.800    -0.084    22.105     6.694
  29   6 C      3.801    -0.099    22.396     6.738
  30   6 C      3.730    -0.051    21.580     6.632
  31   7 N      3.479    -0.144    24.115     7.294
  32   1 H      0.860     0.242     0.915     1.498
  33   1 H      0.924     0.092     1.856     2.131
  34   1 H      0.925     0.107     1.719     2.051
  35   1 H      0.924     0.061     2.182     2.310
  36   1 H      0.925     0.071     2.078     2.254
  37   1 H      0.924     0.040     2.451     2.448
  38   1 H      0.925     0.080     1.979     2.200
  39   1 H      0.925     0.102     1.765     2.078
  40   1 H      0.924     0.107     1.727     2.055
  41   1 H      0.925     0.128     1.548     1.946
  42   1 H      0.859     0.303     0.704     1.314
  43   1 H      0.856     0.306     0.696     1.307
  44   1 H      0.859     0.282     0.771     1.375
  45   7 N      2.694    -0.202    25.389     7.483
  46   6 C      3.794     0.019    20.256     6.409
  47   6 C      2.753     0.294    22.006     7.682
  48   8 O      0.858    -0.512    24.063     6.577
  49   6 C      3.807    -0.091    22.239     6.713
  50   6 C      3.848    -0.016    20.831     6.492
  51   6 C      3.755    -0.117    22.793     6.807
  52   6 C      3.754    -0.111    22.682     6.791
  53   1 H      0.860     0.232     0.956     1.532
  54   1 H      0.923     0.063     2.165     2.301
  55   1 H      0.924     0.083     1.946     2.181
  56   1 H      0.924     0.071     2.077     2.254
  57   1 H      0.924     0.061     2.182     2.310
  58   1 H      0.925     0.046     2.372     2.409
  59   1 H      0.925     0.048     2.345     2.395
  60   1 H      0.925     0.020     2.741     2.589
  61   1 H      0.925     0.036     2.502     2.474
  62   1 H      0.925     0.019     2.751     2.594
  63   1 H      0.924     0.047     2.358     2.401
  64   7 N      2.695    -0.189    25.099     7.441
  65   6 C      3.794     0.028    20.113     6.386
  66   6 C      2.753     0.286    22.150     7.707
  67   8 O      0.858    -0.501    23.804     6.541
  68   6 C      3.808    -0.081    22.042     6.683
  69   6 C      3.848    -0.014    20.789     6.485
  70   6 C      3.753    -0.113    22.719     6.797
  71   6 C      3.753    -0.119    22.837     6.814
  72   1 H      0.860     0.212     1.045     1.601
  73   1 H      0.924     0.065     2.140     2.288
  74   1 H      0.924     0.073     2.053     2.241
  75   1 H      0.924     0.061     2.188     2.313
  76   1 H      0.924     0.058     2.226     2.333
  77   1 H      0.925     0.043     2.414     2.430
  78   1 H      0.925     0.037     2.491     2.468
  79   1 H      0.925     0.026     2.641     2.542
  80   1 H      0.925     0.047     2.357     2.401
  81   1 H      0.925     0.030     2.587     2.515
  82   1 H      0.925     0.052     2.289     2.366
  83   7 N      2.690    -0.170    24.668     7.377
  84   6 C      3.794     0.012    20.377     6.428
  85   6 C      2.752     0.275    22.340     7.740
  86   8 O      0.858    -0.462    22.965     6.425
  87   6 C      3.726     0.122    18.682     6.171
  88   8 O      1.655    -0.474    22.341     6.381
  89   6 C      3.754    -0.128    23.015     6.841
  90   1 H      0.860     0.220     1.008     1.573
  91   1 H      0.923     0.060     2.201     2.320
  92   1 H      0.923     0.041     2.435     2.440
  93   1 H      0.804     0.339     0.615     1.231
  94   1 H      0.925     0.079     1.988     2.205
  95   1 H      0.925     0.045     2.387     2.416
  96   1 H      0.925     0.050     2.318     2.381
  97   7 N      2.691    -0.193    25.195     7.455
  98   6 C      3.797     0.026    20.132     6.389
  99   6 C      2.753     0.272    22.394     7.749
 100   8 O      0.858    -0.485    23.455     6.493
 101   6 C      3.808    -0.062    21.678     6.628
 102   6 C      3.079     0.037    27.087     8.533
 103   7 N      2.821    -0.107    23.338     7.175
 104   6 C      3.169    -0.003    27.721     8.602
 105   6 C      3.157     0.097    25.570     8.268
 106   7 N      1.909    -0.297    28.547     7.922
 107   1 H      0.860     0.212     1.048     1.604
 108   1 H      0.924     0.074     2.038     2.232
 109   1 H      0.924     0.077     2.013     2.219
 110   1 H      0.924     0.060     2.201     2.320
 111   1 H      0.860     0.179     1.223     1.732
 112   1 H      0.926     0.052     2.289     2.366
 113   1 H      0.926    -0.002     3.092     2.750
 114   7 N      2.692    -0.169    24.656     7.375
 115   6 C      3.792     0.016    20.311     6.418
 116   6 C      2.759     0.269    22.449     7.759
 117   8 O      0.858    -0.460    22.926     6.420
 118   6 C      3.807    -0.068    21.791     6.645
 119   6 C      3.806    -0.092    22.251     6.715
 120   6 C      2.745     0.292    22.056     7.690
 121   8 O      0.859    -0.486    23.467     6.495
 122   7 N      2.639    -0.288    27.427     7.778
 123   1 H      0.860     0.217     1.024     1.585
 124   1 H      0.924     0.069     2.093     2.262
 125   1 H      0.924     0.074     2.042     2.235
 126   1 H      0.924     0.063     2.167     2.302
 127   1 H      0.924     0.046     2.366     2.406
 128   1 H      0.924     0.064     2.148     2.292
 129   1 H      0.860     0.221     1.004     1.570
 130   1 H      0.860     0.244     0.909     1.493
 131   7 N      2.686    -0.179    24.887     7.409
 132   6 C      3.744    -0.032    21.222     6.572
 133   6 C      2.762     0.197    23.808     7.991
 134   8 O      0.856    -0.364    20.968     6.139
 135   1 H      0.860     0.209     1.059     1.612
 136   1 H      0.924     0.124     1.581     1.966
 137   1 H      0.924     0.112     1.680     2.027
 138   7 N      2.638    -0.388    30.035     8.139
 139   6 C      3.789     0.026    20.149     6.393
 140   6 C      2.758     0.274    22.372     7.746
 141   8 O      0.858    -0.495    23.665     6.522
 142   6 C      3.850    -0.024    20.975     6.514
 143   6 C      3.752    -0.109    22.643     6.786
 144   6 C      3.755    -0.114    22.737     6.799
 145   1 H      0.860     0.159     1.345     1.816
 146   1 H      0.924     0.046     2.376     2.411
 147   1 H      0.924     0.046     2.365     2.405
 148   1 H      0.925     0.044     2.401     2.423
 149   1 H      0.925     0.039     2.462     2.454
 150   1 H      0.925     0.031     2.567     2.505
 151   1 H      0.925     0.055     2.264     2.353
 152   1 H      0.925     0.024     2.674     2.557
 153   1 H      0.925     0.044     2.400     2.423
 154   7 N      2.692    -0.171    24.705     7.382
 155   6 C      3.799     0.014    20.347     6.422
 156   6 C      2.751     0.277    22.314     7.735
 157   8 O      0.858    -0.440    22.487     6.358
 158   6 C      3.849    -0.020    20.894     6.502
 159   6 C      3.754    -0.122    22.904     6.824
 160   6 C      3.755    -0.113    22.716     6.796
 161   1 H      0.860     0.207     1.073     1.622
 162   1 H      0.924     0.057     2.231     2.336
 163   1 H      0.924     0.060     2.194     2.316
 164   1 H      0.925     0.066     2.128     2.281
 165   1 H      0.925     0.051     2.307     2.375
 166   1 H      0.925     0.057     2.231     2.336
 167   1 H      0.925     0.068     2.106     2.270
 168   1 H      0.925     0.034     2.527     2.486
 169   1 H      0.925     0.024     2.674     2.557
 170   7 N      2.699    -0.180    24.892     7.410
 171   6 C      3.789     0.032    20.044     6.376
 172   6 C      2.761     0.272    22.399     7.750
 173   8 O      0.858    -0.486    23.484     6.497
 174   6 C      3.799    -0.110    22.598     6.768
 175   6 C      2.684     0.367    20.784     7.461
 176   8 O      0.856    -0.563    25.219     6.733
 177   8 O      0.857    -0.619    26.592     6.914
 178   1 H      0.860     0.170     1.271     1.766
 179   1 H      0.924     0.082     1.959     2.189
 180   1 H      0.924     0.069     2.096     2.264
 181   1 H      0.924     0.034     2.528     2.486
 182   7 N      2.685    -0.243    26.327     7.620
 183   6 C      3.796     0.040    19.900     6.352
 184   6 C      2.759     0.282    22.218     7.719
 185   8 O      0.859    -0.493    23.621     6.516
 186   6 C      3.803    -0.031    21.131     6.545
 187   6 C      3.797    -0.083    22.086     6.692
 188   6 C      2.683     0.374    20.659     7.438
 189   8 O      0.856    -0.643    27.204     6.993
 190   8 O      0.856    -0.648    27.316     7.007
 191   1 H      0.859     0.241     0.920     1.503
 192   1 H      0.923     0.056     2.251     2.346
 193   1 H      0.924     0.014     2.830     2.631
 194   1 H      0.924     0.034     2.524     2.484
 195   1 H      0.924     0.020     2.741     2.589
 196   1 H      0.924     0.014     2.827     2.629
 197   7 N      2.690    -0.183    24.957     7.420
 198   6 C      3.800     0.024    20.175     6.395
 199   6 C      2.760     0.287    22.141     7.706
 200   8 O      0.859    -0.508    23.961     6.563
 201   6 C      3.727     0.112    18.847     6.198
 202   8 O      1.655    -0.474    22.331     6.379
 203   6 C      3.752    -0.131    23.070     6.850
 204   1 H      0.860     0.204     1.088     1.634
 205   1 H      0.923     0.069     2.096     2.264
 206   1 H      0.923     0.042     2.418     2.432
 207   1 H      0.805     0.349     0.591     1.207
 208   1 H      0.925     0.087     1.905     2.159
 209   1 H      0.925     0.042     2.417     2.431
 210   1 H      0.924     0.047     2.360     2.402
 211   7 N      2.691    -0.187    25.050     7.433
 212   6 C      3.797     0.026    20.138     6.390
 213   6 C      2.759     0.283    22.212     7.718
 214   8 O      0.859    -0.481    23.358     6.480
 215   6 C      3.806    -0.076    21.948     6.669
 216   6 C      3.849    -0.011    20.732     6.476
 217   6 C      3.757    -0.122    22.890     6.821
 218   6 C      3.756    -0.123    22.909     6.825
 219   1 H      0.860     0.212     1.048     1.604
 220   1 H      0.923     0.073     2.053     2.240
 221   1 H      0.924     0.074     2.039     2.233
 222   1 H      0.924     0.042     2.419     2.432
 223   1 H      0.924     0.036     2.498     2.472
 224   1 H      0.925     0.059     2.210     2.325
 225   1 H      0.925     0.050     2.323     2.383
 226   1 H      0.925     0.051     2.309     2.376
 227   1 H      0.925     0.057     2.232     2.336
 228   1 H      0.925     0.038     2.471     2.458
 229   1 H      0.925     0.036     2.505     2.475
 230   7 N      2.688    -0.171    24.702     7.382
 231   6 C      3.798     0.023    20.183     6.397
 232   6 C      2.757     0.272    22.399     7.750
 233   8 O      0.859    -0.481    23.360     6.480
 234   6 C      3.809    -0.061    21.674     6.627
 235   6 C      3.849    -0.010    20.724     6.475
 236   6 C      3.755    -0.120    22.852     6.816
 237   6 C      3.754    -0.105    22.573     6.775
 238   1 H      0.860     0.196     1.124     1.661
 239   1 H      0.924     0.098     1.804     2.101
 240   1 H      0.924     0.035     2.520     2.482
 241   1 H      0.924     0.038     2.480     2.463
 242   1 H      0.924     0.045     2.380     2.412
 243   1 H      0.925     0.064     2.156     2.296
 244   1 H      0.925     0.037     2.495     2.470
 245   1 H      0.925     0.049     2.337     2.391
 246   1 H      0.925     0.058     2.228     2.334
 247   1 H      0.925     0.040     2.452     2.449
 248   1 H      0.925     0.018     2.771     2.603
 249   7 N      2.691    -0.185    25.007     7.427
 250   6 C      3.798     0.036    19.974     6.364
 251   6 C      2.747     0.274    22.373     7.745
 252   8 O      0.858    -0.490    23.567     6.509
 253   6 C      3.807    -0.035    21.186     6.552
 254   6 C      3.798    -0.087    22.154     6.702
 255   6 C      2.684     0.373    20.683     7.442
 256   8 O      0.856    -0.645    27.256     7.000
 257   8 O      0.856    -0.646    27.265     7.001
 258   1 H      0.860     0.200     1.105     1.647
 259   1 H      0.923     0.068     2.111     2.272
 260   1 H      0.924     0.029     2.602     2.523
 261   1 H      0.924     0.033     2.543     2.494
 262   1 H      0.924     0.018     2.764     2.600
 263   1 H      0.924     0.023     2.686     2.563
 264   7 N      2.689    -0.188    25.074     7.437
 265   6 C      3.786     0.034    20.013     6.372
 266   6 C      2.763     0.207    23.604     7.956
 267   8 O      0.856    -0.345    20.609     6.086
 268   6 C      3.808    -0.104    22.482     6.750
 269   6 C      2.743     0.292    22.050     7.689
 270   8 O      0.859    -0.487    23.497     6.499
 271   7 N      2.639    -0.273    27.070     7.727
 272   1 H      0.860     0.228     0.972     1.544
 273   1 H      0.924     0.109     1.705     2.042
 274   1 H      0.925     0.076     2.024     2.225
 275   1 H      0.925     0.102     1.763     2.076
 276   1 H      0.860     0.242     0.913     1.497
 277   1 H      0.860     0.202     1.097     1.641
 278   7 N      2.636    -0.383    29.899     8.121
 279   6 C      3.782     0.030    20.080     6.383
 280   6 C      2.764     0.197    23.805     7.990
 281   8 O      0.856    -0.372    21.125     6.162
 282   6 C      3.808    -0.079    21.998     6.677
 283   6 C      3.806    -0.073    21.885     6.660
 284   6 C      3.740    -0.019    20.989     6.537
 285   7 N      2.705    -0.152    24.284     7.319
 286   6 C      2.737     0.235    23.081     7.866
 287   7 N      2.647    -0.256    26.657     7.668
 288   7 N      2.655    -0.269    26.967     7.712
 289   1 H      0.860     0.163     1.318     1.799
 290   1 H      0.923     0.078     1.996     2.210
 291   1 H      0.924     0.061     2.193     2.316
 292   1 H      0.925     0.052     2.297     2.370
 293   1 H      0.924     0.043     2.415     2.430
 294   1 H      0.924     0.062     2.171     2.304
 295   1 H      0.924     0.091     1.866     2.136
 296   1 H      0.924     0.065     2.146     2.291
 297   1 H      0.859     0.231     0.963     1.537
 298   1 H      0.860     0.254     0.867     1.458
 299   1 H      0.860     0.253     0.872     1.463
 300   1 H      0.860     0.230     0.965     1.539
 301   1 H      0.860     0.238     0.930     1.511
 302   7 N      2.635    -0.380    29.812     8.109
 303   6 C      3.782     0.039    19.941     6.361
 304   6 C      2.767     0.199    23.769     7.984
 305   8 O      0.856    -0.389    21.462     6.211
 306   6 C      3.812    -0.064    21.714     6.633
 307   6 C      2.968     0.002    27.968     8.675
 308   6 C      2.926    -0.043    29.064     8.841
 309   6 C      2.928    -0.036    28.903     8.817
 310   6 C      2.918    -0.060    29.502     8.907
 311   6 C      2.916    -0.077    29.918     8.969
 312   6 C      2.848     0.146    24.828     8.166
 313   8 O      1.660    -0.424    21.321     6.233
 314   1 H      0.860     0.155     1.366     1.831
 315   1 H      0.924     0.077     2.006     2.215
 316   1 H      0.924     0.019     2.753     2.595
 317   1 H      0.924     0.058     2.227     2.334
 318   1 H      0.926     0.057     2.235     2.338
 319   1 H      0.926     0.003     2.998     2.708
 320   1 H      0.926     0.069     2.097     2.265
 321   1 H      0.926     0.042     2.417     2.431
 322   1 H      0.805     0.355     0.577     1.193
 323   1 H      0.862     0.169     1.277     1.770
 324   1 H      0.930     0.101     1.779     2.086
 325   1 H      0.862     0.187     1.172     1.696
 326   1 H      0.930     0.067     2.119     2.276
 327   1 H      0.862     0.191     1.150     1.680
 328   1 H      0.930     0.081     1.968     2.194
 329   1 H      0.862     0.179     1.216     1.728
 330   1 H      0.930     0.070     2.089     2.260

 Mol. C6AA /au·bohr⁶  :     987290.083956
 Mol. C8AA /au·bohr⁸  :   21812649.629928
 Mol. α(0) /au        :       1483.719478


Wiberg/Mayer (AO) data.
largest (>0.10) Wiberg bond orders for each atom
          total WBO             WBO to atom ...
     1  N   2.991        C    2 1.018    H  323 0.960    H   10 0.936
     2  C   3.982        N    1 1.018    C    5 0.964    H   11 0.962    C    3 0.940
     3  C   3.930        O    4 1.619    N   23 1.282    C    2 0.940
     4  O   1.961        C    3 1.619    N   23 0.178
     5  C   3.987        C    6 1.005    H   12 0.974    H   13 0.974    C    2 0.964
     6  C   3.991        C    7 1.008    C    5 1.005    H   14 0.970    H   15 0.962
     7  C   3.986        C    8 1.014    C    6 1.008    H   17 0.970    H   16 0.960
     8  C   3.906        C    7 1.014    H   19 0.962    H   18 0.961    N    9 0.948
     9  N   3.665        C    8 0.948    H   22 0.900    H   21 0.898    H   20 0.895
    10  H   0.966        N    1 0.936
    11  H   0.999        C    2 0.962
    12  H   0.998        C    5 0.974
    13  H   0.997        C    5 0.974
    14  H   0.996        C    6 0.970
    15  H   0.995        C    6 0.962
    16  H   0.992        C    7 0.960
    17  H   0.995        C    7 0.970
    18  H   0.983        C    8 0.961
    19  H   0.983        C    8 0.962
    20  H   0.909        N    9 0.895
    21  H   0.914        N    9 0.898
    22  H   0.918        N    9 0.900
    23  N   3.433        C    3 1.282    C   24 0.980    H   32 0.902    O    4 0.178
    24  C   3.961        N   23 0.980    C   27 0.977    H   33 0.953    C   25 0.927
    25  C   3.927        O   26 1.655    N   45 1.269    C   24 0.927
    26  O   1.977        C   25 1.655    N   45 0.191
    27  C   3.978        C   28 1.006    C   24 0.977    H   35 0.973    H   34 0.958
    28  C   3.988        C   27 1.006    C   29 1.001    H   37 0.978    H   36 0.971
    29  C   3.982        C   30 1.016    C   28 1.001    H   38 0.968    H   39 0.963
    30  C   3.914        C   29 1.016    H   40 0.967    H   41 0.963    N   31 0.950
    31  N   3.662        C   30 0.950    H   44 0.905    H   42 0.896    H   43 0.885
    32  H   0.941        N   23 0.902
    33  H   0.991        C   24 0.953
    34  H   0.988        C   27 0.958
    35  H   0.996        C   27 0.973
    36  H   0.995        C   28 0.971
    37  H   0.998        C   28 0.978
    38  H   0.994        C   29 0.968
    39  H   0.990        C   29 0.963
    40  H   0.989        C   30 0.967
    41  H   0.983        C   30 0.963
    42  H   0.908        N   31 0.896
    43  H   0.906        N   31 0.885
    44  H   0.921        N   31 0.905
    45  N   3.430        C   25 1.269    C   46 0.977    H   53 0.909    O   26 0.191
    46  C   3.967        C   49 0.980    N   45 0.977    H   54 0.954    C   47 0.933
    47  C   3.935        O   48 1.643    N   64 1.279    C   46 0.933
    48  O   1.961        C   47 1.643    N   64 0.190
    49  C   3.985        C   50 0.995    C   46 0.980    H   56 0.969    H   55 0.968
    50  C   3.994        C   52 1.010    C   51 1.010    C   49 0.995    H   57 0.965
    51  C   3.995        C   50 1.010    H   59 0.985    H   60 0.982    H   58 0.981
    52  C   3.994        C   50 1.010    H   62 0.986    H   61 0.985    H   63 0.985
    53  H   0.946        N   45 0.909
    54  H   0.996        C   46 0.954
    55  H   0.993        C   49 0.968
    56  H   0.995        C   49 0.969
    57  H   0.996        C   50 0.965
    58  H   0.998        C   51 0.981
    59  H   0.998        C   51 0.985
    60  H   1.000        C   51 0.982
    61  H   0.999        C   52 0.985
    62  H   1.000        C   52 0.986
    63  H   0.998        C   52 0.985
    64  N   3.443        C   47 1.279    C   65 0.975    H   72 0.915    O   48 0.190
    65  C   3.964        C   68 0.978    N   64 0.975    H   73 0.951    C   66 0.940
    66  C   3.939        O   67 1.610    N   83 1.304    C   65 0.940
    67  O   1.969        C   66 1.610    N   83 0.188
    68  C   3.985        C   69 0.995    C   65 0.978    H   75 0.972    H   74 0.965
    69  C   3.993        C   70 1.010    C   71 1.009    C   68 0.995    H   76 0.965
    70  C   3.995        C   69 1.010    H   77 0.986    H   78 0.985    H   79 0.985
    71  C   3.994        C   69 1.009    H   80 0.986    H   81 0.985    H   82 0.985
    72  H   0.955        N   64 0.915
    73  H   0.995        C   65 0.951
    74  H   0.995        C   68 0.965
    75  H   0.996        C   68 0.972
    76  H   0.996        C   69 0.965
    77  H   0.998        C   70 0.986
    78  H   0.999        C   70 0.985
    79  H   0.999        C   70 0.985
    80  H   0.998        C   71 0.986
    81  H   0.999        C   71 0.985
    82  H   0.997        C   71 0.985
    83  N   3.473        C   66 1.304    C   84 0.981    H   90 0.905    O   67 0.188
    84  C   3.962        N   83 0.981    C   87 0.958    H   91 0.949    C   85 0.925
    85  C   3.942        O   86 1.662    N   97 1.278    C   84 0.925
    86  O   1.981        C   85 1.662    N   97 0.195
    87  C   3.960        C   89 1.006    O   88 1.004    H   92 0.960    C   84 0.958
    88  O   1.940        C   87 1.004    H   93 0.844
    89  C   3.990        C   87 1.006    H   96 0.985    H   95 0.985    H   94 0.981
    90  H   0.951        N   83 0.905
    91  H   0.996        C   84 0.949
    92  H   0.998        C   87 0.960
    93  H   0.885        O   88 0.844
    94  H   0.993        C   89 0.981
    95  H   0.998        C   89 0.985
    96  H   0.997        C   89 0.985
    97  N   3.450        C   85 1.278    C   98 0.981    H  107 0.893    O   86 0.195
    98  C   3.971        N   97 0.981    C  101 0.967    H  108 0.952    C   99 0.931
    99  C   3.943        O  100 1.648    N  114 1.289    C   98 0.931
   100  O   1.971        C   99 1.648    N  114 0.198
   101  C   3.991        C  102 1.018    H  110 0.969    C   98 0.967    H  109 0.959
   102  C   3.937        C  104 1.546    N  103 1.199    C  101 1.018    C  105 0.107
   103  N   3.597        C  105 1.271    C  102 1.199    H  111 0.921    N  106 0.106
   104  C   3.963        C  102 1.546    N  106 1.289    H  112 0.970
   105  C   3.959        N  106 1.543    N  103 1.271    H  113 0.966    C  102 0.107
   106  N   3.007        C  105 1.543    C  104 1.289    N  103 0.106
   107  H   0.955        N   97 0.893
   108  H   0.994        C   98 0.952
   109  H   0.994        C  101 0.959
   110  H   0.996        C  101 0.969
   111  H   0.968        N  103 0.921
   112  H   0.997        C  104 0.970
   113  H   1.000        C  105 0.966
   114  N   3.470        C   99 1.289    C  115 0.991    H  123 0.920    O  100 0.198
   115  C   3.968        N  114 0.991    C  118 0.966    H  124 0.948    C  116 0.938
   116  C   3.949        O  117 1.668    N  131 1.269    C  115 0.938
   117  O   1.982        C  116 1.668    N  131 0.193
   118  C   3.987        C  119 0.990    H  125 0.972    H  126 0.970    C  115 0.966
   119  C   3.993        C  118 0.990    H  127 0.973    H  128 0.968    C  120 0.963
   120  C   3.949        O  121 1.653    N  122 1.309    C  119 0.963
   121  O   1.954        C  120 1.653    N  122 0.204
   122  N   3.397        C  120 1.309    H  129 0.933    H  130 0.920    O  121 0.204
   123  H   0.953        N  114 0.920
   124  H   0.995        C  115 0.948
   125  H   0.994        C  118 0.972
   126  H   0.995        C  118 0.970
   127  H   0.998        C  119 0.973
   128  H   0.996        C  119 0.968
   129  H   0.951        N  122 0.933
   130  H   0.940        N  122 0.920
   131  N   3.438        C  116 1.269    C  132 0.999    H  135 0.920    O  117 0.193
   132  C   3.962        C  133 1.003    N  131 0.999    H  136 0.939    H  137 0.923
   133  C   3.903        O  134 1.894    C  132 1.003    H  324 0.949
   134  O   2.045        C  133 1.894
   135  H   0.956        N  131 0.920
   136  H   0.985        C  132 0.939
   137  H   0.987        C  132 0.923
   138  N   2.995        C  139 1.020    H  145 0.955    H  325 0.951
   139  C   3.985        N  138 1.020    H  146 0.958    C  142 0.951    C  140 0.949
   140  C   3.940        O  141 1.633    N  154 1.287    C  139 0.949
   141  O   1.955        C  140 1.633    N  154 0.191
   142  C   3.994        C  143 1.010    C  144 1.008    H  147 0.965    C  139 0.951
   143  C   3.995        C  142 1.010    H  149 0.985    H  150 0.985    H  148 0.984
   144  C   3.996        C  142 1.008    H  152 0.987    H  151 0.983    H  153 0.981
   145  H   0.975        N  138 0.955
   146  H   0.998        C  139 0.958
   147  H   0.997        C  142 0.965
   148  H   0.998        C  143 0.984
   149  H   0.998        C  143 0.985
   150  H   0.999        C  143 0.985
   151  H   0.997        C  144 0.983
   152  H   0.999        C  144 0.987
   153  H   0.998        C  144 0.981
   154  N   3.466        C  140 1.287    C  155 0.979    H  161 0.920    O  141 0.191
   155  C   3.961        N  154 0.979    C  158 0.957    H  162 0.951    C  156 0.929
   156  C   3.939        O  157 1.672    N  170 1.258    C  155 0.929
   157  O   1.994        C  156 1.672    N  170 0.195
   158  C   3.984        C  159 1.010    C  160 1.008    H  163 0.960    C  155 0.957
   159  C   3.991        C  158 1.010    H  166 0.982    H  165 0.982    H  164 0.979
   160  C   3.993        C  158 1.008    H  168 0.986    H  169 0.984    H  167 0.982
   161  H   0.957        N  154 0.920
   162  H   0.997        C  155 0.951
   163  H   0.996        C  158 0.960
   164  H   0.995        C  159 0.979
   165  H   0.997        C  159 0.982
   166  H   0.997        C  159 0.982
   167  H   0.995        C  160 0.982
   168  H   0.999        C  160 0.986
   169  H   0.999        C  160 0.984
   170  N   3.451        C  156 1.258    C  171 0.966    H  178 0.937    O  157 0.195
   171  C   3.966        C  174 0.978    N  170 0.966    H  179 0.953    C  172 0.937
   172  C   3.939        O  173 1.630    N  182 1.283    C  171 0.937
   173  O   1.964        C  172 1.630    N  182 0.184
   174  C   3.986        C  171 0.978    H  181 0.973    H  180 0.969    C  175 0.919
   175  C   3.931        O  176 1.510    O  177 1.466    C  174 0.919
   176  O   1.881        C  175 1.510    O  177 0.206
   177  O   1.893        C  175 1.466    O  176 0.206
   178  H   0.971        N  170 0.937
   179  H   0.993        C  171 0.953
   180  H   0.995        C  174 0.969
   181  H   0.999        C  174 0.973
   182  N   3.393        C  172 1.283    C  183 0.990    H  191 0.807    O  173 0.184
   183  C   3.976        N  182 0.990    C  186 0.966    H  192 0.955    C  184 0.942
   184  C   3.941        O  185 1.615    N  197 1.293    C  183 0.942
   185  O   1.960        C  184 1.615    N  197 0.178
   186  C   3.993        C  187 1.015    H  193 0.977    H  194 0.971    C  183 0.966
   187  C   3.987        C  186 1.015    H  196 0.962    H  195 0.961    C  188 0.905
   188  C   3.934        O  189 1.507    O  190 1.496    C  187 0.905
   189  O   1.796        C  188 1.507    O  190 0.214
   190  O   1.784        C  188 1.496    O  189 0.214
   191  H   0.942        N  182 0.807
   192  H   0.996        C  183 0.955
   193  H   0.999        C  186 0.977
   194  H   0.998        C  186 0.971
   195  H   1.000        C  187 0.961
   196  H   1.000        C  187 0.962
   197  N   3.433        C  184 1.293    C  198 0.970    H  204 0.904    O  185 0.178
   198  C   3.960        N  197 0.970    C  201 0.955    C  199 0.951    H  205 0.932
   199  C   3.951        O  200 1.617    N  211 1.299    C  198 0.951
   200  O   1.936        C  199 1.617    N  211 0.190
   201  C   3.962        C  203 1.005    O  202 0.995    H  206 0.959    C  198 0.955
   202  O   1.938        C  201 0.995    H  207 0.861
   203  C   3.989        C  201 1.005    H  209 0.983    H  208 0.978    H  210 0.976
   204  H   0.958        N  197 0.904
   205  H   0.995        C  198 0.932
   206  H   0.998        C  201 0.959
   207  H   0.878        O  202 0.861
   208  H   0.991        C  203 0.978
   209  H   0.998        C  203 0.983
   210  H   0.998        C  203 0.976
   211  N   3.450        C  199 1.299    C  212 0.963    H  219 0.916    O  200 0.190
   212  C   3.950        C  215 0.976    N  211 0.963    H  220 0.951    C  213 0.943
   213  C   3.943        O  214 1.590    N  230 1.308    C  212 0.943
   214  O   1.968        C  213 1.590    N  230 0.179
   215  C   3.978        C  216 0.990    C  212 0.976    H  222 0.973    H  221 0.960
   216  C   3.990        C  218 1.010    C  217 1.007    C  215 0.990    H  223 0.968
   217  C   3.992        C  216 1.007    H  224 0.984    H  225 0.983    H  226 0.982
   218  C   3.994        C  216 1.010    H  228 0.986    H  227 0.984    H  229 0.980
   219  H   0.955        N  211 0.916
   220  H   0.994        C  212 0.951
   221  H   0.994        C  215 0.960
   222  H   0.998        C  215 0.973
   223  H   0.998        C  216 0.968
   224  H   0.996        C  217 0.984
   225  H   0.997        C  217 0.983
   226  H   0.997        C  217 0.982
   227  H   0.997        C  218 0.984
   228  H   0.999        C  218 0.986
   229  H   0.999        C  218 0.980
   230  N   3.467        C  213 1.308    C  231 0.976    H  238 0.912    O  214 0.179
   231  C   3.959        N  230 0.976    C  234 0.976    H  239 0.942    C  232 0.939
   232  C   3.945        O  233 1.620    N  249 1.289    C  231 0.939
   233  O   1.941        C  232 1.620    N  249 0.191
   234  C   3.983        C  235 0.988    C  231 0.976    H  241 0.970    H  240 0.966
   235  C   3.989        C  237 1.009    C  236 1.009    C  234 0.988    H  242 0.958
   236  C   3.993        C  235 1.009    H  244 0.986    H  245 0.982    H  243 0.981
   237  C   3.996        C  235 1.009    H  248 0.986    H  247 0.984    H  246 0.984
   238  H   0.961        N  230 0.912
   239  H   0.990        C  231 0.942
   240  H   0.999        C  234 0.966
   241  H   0.998        C  234 0.970
   242  H   0.998        C  235 0.958
   243  H   0.996        C  236 0.981
   244  H   0.999        C  236 0.986
   245  H   0.997        C  236 0.982
   246  H   0.996        C  237 0.984
   247  H   0.998        C  237 0.984
   248  H   1.000        C  237 0.986
   249  N   3.481        C  232 1.289    C  250 0.991    H  258 0.906    O  233 0.191
   250  C   3.967        N  249 0.991    C  253 0.982    H  259 0.932    C  251 0.924
   251  C   3.953        O  252 1.626    N  264 1.315    C  250 0.924
   252  O   1.953        C  251 1.626    N  264 0.196
   253  C   3.994        C  254 1.004    C  250 0.982    H  261 0.976    H  260 0.970
   254  C   3.991        C  253 1.004    H  262 0.983    H  263 0.962    C  255 0.912
   255  C   3.929        O  257 1.512    O  256 1.479    C  254 0.912
   256  O   1.805        C  255 1.479    O  257 0.211
   257  O   1.799        C  255 1.512    O  256 0.211
   258  H   0.960        N  249 0.906
   259  H   0.995        C  250 0.932
   260  H   0.999        C  253 0.970
   261  H   0.998        C  253 0.976
   262  H   1.000        C  254 0.983
   263  H   0.999        C  254 0.962
   264  N   3.472        C  251 1.315    C  265 0.979    H  272 0.856    O  252 0.196
   265  C   3.965        N  264 0.979    C  266 0.975    C  268 0.972    H  273 0.920
   266  C   3.908        O  267 1.906    C  265 0.975    H  326 0.955
   267  O   2.055        C  266 1.906
   268  C   3.983        C  265 0.972    C  269 0.967    H  275 0.962    H  274 0.958
   269  C   3.952        O  270 1.643    N  271 1.317    C  268 0.967
   270  O   1.944        C  269 1.643    N  271 0.204
   271  N   3.409        C  269 1.317    H  277 0.931    H  276 0.919    O  270 0.204
   272  H   0.948        N  264 0.856
   273  H   0.988        C  265 0.920
   274  H   0.994        C  268 0.958
   275  H   0.989        C  268 0.962
   276  H   0.941        N  271 0.919
   277  H   0.959        N  271 0.931
   278  N   2.987        C  279 1.003    H  289 0.958    H  327 0.942
   279  C   3.984        N  278 1.003    C  282 0.988    C  280 0.982    H  290 0.931
   280  C   3.891        O  281 1.902    C  279 0.982    H  328 0.954
   281  O   2.035        C  280 1.902
   282  C   3.992        C  283 1.006    C  279 0.988    H  291 0.974    H  292 0.968
   283  C   3.991        C  282 1.006    C  284 1.006    H  293 0.969    H  294 0.968
   284  C   3.954        C  283 1.006    N  285 0.981    H  295 0.961    H  296 0.961
   285  N   3.467        C  286 1.331    C  284 0.981    H  297 0.876    N  287 0.103    N  288 0.100
   286  C   3.975        N  285 1.331    N  287 1.310    N  288 1.301
   287  N   3.382        C  286 1.310    H  299 0.918    H  298 0.913    N  285 0.103
   288  N   3.376        C  286 1.301    H  301 0.923    H  300 0.903    N  285 0.100
   289  H   0.973        N  278 0.958
   290  H   0.994        C  279 0.931
   291  H   0.996        C  282 0.974
   292  H   0.997        C  282 0.968
   293  H   0.998        C  283 0.969
   294  H   0.996        C  283 0.968
   295  H   0.991        C  284 0.961
   296  H   0.996        C  284 0.961
   297  H   0.947        N  285 0.876
   298  H   0.935        N  287 0.913
   299  H   0.936        N  287 0.918
   300  H   0.947        N  288 0.903
   301  H   0.943        N  288 0.923
   302  N   3.001        C  303 1.030    H  314 0.948    H  329 0.948
   303  C   3.985        N  302 1.030    C  304 0.986    H  315 0.945    C  306 0.933
   304  C   3.894        O  305 1.882    C  303 0.986    H  330 0.954
   305  O   2.032        C  304 1.882
   306  C   3.993        C  307 1.007    H  316 0.976    H  317 0.964    C  303 0.933
   307  C   3.987        C  309 1.412    C  308 1.395    C  306 1.007
   308  C   3.988        C  310 1.466    C  307 1.395    H  318 0.967    C  311 0.105
   309  C   3.992        C  311 1.447    C  307 1.412    H  319 0.960    C  310 0.106
   310  C   3.986        C  308 1.466    C  312 1.358    H  320 0.966    C  309 0.106
   311  C   3.986        C  309 1.447    C  312 1.373    H  321 0.966    C  308 0.105
   312  C   3.944        C  311 1.373    C  310 1.358    O  313 1.084
   313  O   2.097        C  312 1.084    H  322 0.854
   314  H   0.976        N  302 0.948
   315  H   0.994        C  303 0.945
   316  H   0.999        C  306 0.976
   317  H   0.996        C  306 0.964
   318  H   0.997        C  308 0.967
   319  H   1.000        C  309 0.960
   320  H   0.995        C  310 0.966
   321  H   0.998        C  311 0.966
   322  H   0.874        O  313 0.854
   323  H   0.971        N    1 0.960
   324  H   0.989        C  133 0.949
   325  H   0.964        N  138 0.951
   326  H   0.995        C  266 0.955
   327  H   0.963        N  278 0.942
   328  H   0.993        C  280 0.954
   329  H   0.968        N  302 0.948
   330  H   0.995        C  304 0.954
 
molecular dipole:
                 x           y           z       tot (Debye)
 q only:       66.293     -53.182      -9.399
   full:       66.344     -50.705      -9.961     213.748
molecular quadrupole (traceless):
                xx          xy          yy          xz          yz          zz
 q only:    16393.976   -2642.088  -11444.967    6041.420   -6958.718   -4949.009
  q+dip:    16236.534   -2326.251  -11072.505    5967.290   -6738.426   -5164.029
   full:    16235.262   -2325.673  -11073.472    5968.372   -6736.724   -5161.790


           -------------------------------------------------
          | TOTAL ENERGY             -506.105733582074 Eh   |
          | GRADIENT NORM               0.456733755944 Eh/α |
          | HOMO-LUMO GAP               1.739831710220 eV   |
           -------------------------------------------------

------------------------------------------------------------------------
 * finished run on 2019/05/31 at 06:33:38.211     
------------------------------------------------------------------------
 total:
 * wall-time:     0 d,  0 h,  0 min,  6.437 sec
 *  cpu-time:     0 d,  0 h,  0 min, 12.673 sec
 * ratio c/w:     1.969 speedup
 SCF:
 * wall-time:     0 d,  0 h,  0 min,  6.118 sec
 *  cpu-time:     0 d,  0 h,  0 min, 12.184 sec
 * ratio c/w:     1.992 speedup

