      -----------------------------------------------------------      
     |                   =====================                   |     
     |                           x T B                           |     
     |                   =====================                   |     
     |                         S. Grimme                         |     
     |          Mulliken Center for Theoretical Chemistry        |     
     |                    University of Bonn                     |     
     |                Version 6.1 RC1 (SAW190329)                |     
      -----------------------------------------------------------      

   This program is distributed in the hope that it will be useful,
   but WITHOUT ANY WARRANTY; without even the implied warranty of
   MERCHANTABILITY or FITNESS FOR A PARTICULAR PURPOSE.
   
   FOR NON-COMMERCIAL, ACADEMIA USE ONLY.
   
   Cite this work as:
   S. Grimme, C. Bannwarth, P. Shushkov, J. Comput. Theory Chem., 2017,
   13, 1989-2009. DOI: 10.1021/acs.jctc.7b00118
   C. Bannwarth, S. Ehlert and S. Grimme., J. Comput. Theory Chem., 2019,
   just accepted. DOI: 10.1021/acs.jctc.8b01176
   
   for sTDA-xTB:
   S. Grimme and C. Bannwarth, J. Chem. Phys., 2016, 145, 054103.
   DOI: 10.1063/1.4959605
   
   in the mass-spec context:
   V. Asgeirsson, C. Bauer and S. Grimme, Chem. Sci., 2017, 8, 4879.
   DOI: 10.1039/c7sc00601b
   
   for metadynamics refer to:
   S. Grimme, ChemRxiv, Preprint. DOI: 10.26434/chemrxiv.7660532.v1
   
   with help from (in alphabetical order)
   C. Bannwarth, F. Bohle, G. Brandenburg, E. Caldeweyher, M. Checinski,
   S. Dohm, S. Ehlert, S. Ehrlich, F. März, H. Neugebauer, J. Pisarek,
   P. Pracht, P. Shushkov, and S. Spicher.
   
 * started run on 2019/05/31 at 07:36:14.741     

           -------------------------------------------------
          |                Calculation Setup                |
           -------------------------------------------------

          program call               : /home/lum/install/xtb/xtb-190329/bin/xtb xtb_tmp.xyz --chrg -1 --grad --gfn 2 --etemp 500 --acc 0.1 --gbsa h2o --parallel 1
          hostname                   : cu05
          coordinate file            : xtb_tmp.xyz
          omp threads                :                     1
          number of atoms            :                   545
          number of electrons        :                  1446
          charge                     :                    -1
          spin                       :                   0.0
          first test random number   :      0.87817900471632


molecular fragmentation (1/2 indicates fragments):
111111111111111122222222222222222222222222222222222222222222222222222222
222222222222222222222222222222222222222222222222222222222222222222222222
222222222222222222222222222222222222222222222222222222222222222222222222
222222222222222222222222222222222222222222222222222222222222222222222222
222222222222222222222222222222222222222222222222222222222222222222222222
222222222222222222222222222222222222222222222222222222222222222222222222
222222222222222222222222222222222222222222222222222222222222222222222222
22222222222222211222222222222222222222222
# atoms in fragment 1/2:    18   527
 fragment masses (1/2) :      101.15     3554.34
CMA distance (Bohr)    :  21.654
constraining FC (au)   :  0.0500

########################################################################
# WARNING! Please study the warnings concerning your input carefully
#  - XTBPATH is not set, using XTBHOME instead
########################################################################

           ------------------------------------------------- 
          |                 G F N 2 - x T B                 |
          | Geometry, Frequencies, Noncovalent interactions |
          |            JCTC 2018 parametrisation            |
           ------------------------------------------------- 
 
             k(s)              :                1.8500
             k(p)              :                2.2300
             k(d)              :                2.2300
             k(f)              :                2.0000
             kEN (H0ij)        :               -2.0000
             D4 a1             :                0.5200
             D4 a2             :                5.0000
             D4 s6             :                1.0000
             D4 s8             :                2.7000
             D4 s9             :                5.0000
             alphaj            :                2.0000

  Z AO/shell   Hii/eV     exponent
  1     Wed Apr 25 08:07:45 CEST 2018   EN: 2.200 GM2: 0.406  GM3: 0.0800  RAES: 1.40
     1s    -10.707211    1.230000
  6     Wed Apr 25 08:07:45 CEST 2018   EN: 2.550 GM2: 0.538  GM3: 0.1500  RAES: 3.00
     2s    -13.970922    2.096432
     2p    -10.063292    1.800000
  7     Wed Apr 25 08:07:45 CEST 2018   EN: 3.040 GM2: 0.461  GM3:-0.0640  RAES: 1.90
     2s    -16.686243    2.339881
     2p    -12.523956    2.014332
  8     Wed Apr 25 08:07:45 CEST 2018   EN: 3.440 GM2: 0.452  GM3:-0.0517  RAES: 1.80
     2s    -20.229985    2.439742
     2p    -15.503117    2.137023
 16     Tue Apr 24 11:44:34 CEST 2018   EN: 2.580 GM2: 0.340  GM3:-0.0502  RAES: 3.10
     3s    -20.029654    1.981333
     3p    -11.377694    2.025643
     3d     -0.420282    1.702555

 Solvent             : h2o
 Using internal parameter file: .param_gbsa2_h2o
 Gsolv ref. state (COSMO-RS): gsolv [1 M gas/solution]
 temperature (mdtemp)       :    298.150000000000     
 dielectric constant        :    80.2000000000000     
 rho                        :    1.00000000000000     
 mass                       :    18.0000000000000     
 surface tension            :    15.5689454083859     
 probe radius               :   0.975313790000000     
 vdW radii scaling          :    1.00000000000000     
 Gshift (Eh)                :   1.857443126794793E-003
 c1                         :    1.55243817000000     
 soset                      :   0.130326360000000     
 HB correction              :  T
 Number of grid points      :          230

            Z     q(EN)     CN     RAES       Cart. coordinates
     1  N   5.0   -0.71    3.00    1.93    86.36749    92.06883    83.79764
     2  C   4.0    0.07    3.98    3.59    83.91042    91.10964    84.54974
     3  C   4.0    0.08    3.00    3.02    82.37881    90.38786    82.21722
     4  O   6.0   -0.49    1.00    1.80    81.38195    88.29613    82.00593
     5  C   4.0   -0.09    3.98    3.59    82.52339    93.09862    86.15661
     6  C   4.0   -0.22    3.98    3.59    79.85266    92.21121    86.78676
     7  C   4.0   -0.23    3.98    3.59    83.99489    93.62344    88.58368
     8  H   1.0    0.26    1.00    1.43    86.50435    93.97887    83.72143
     9  H   1.0    0.12    0.99    1.43    84.19303    89.37123    85.64254
    10  H   1.0    0.13    0.99    1.43    82.37857    94.83004    85.03548
    11  H   1.0    0.10    0.99    1.43    78.90148    93.61978    87.93633
    12  H   1.0    0.11    0.99    1.43    78.73613    91.91977    85.08616
    13  H   1.0    0.10    0.99    1.43    79.89238    90.43965    87.82596
    14  H   1.0    0.10    0.99    1.43    83.05327    95.09770    89.65638
    15  H   1.0    0.09    0.99    1.43    84.06593    91.93129    89.74681
    16  H   1.0    0.10    0.99    1.43    85.91873    94.21031    88.18374
    17  N   5.0   -0.72    3.00    1.93    79.82938    83.30267    80.97413
    18  C   4.0    0.07    4.01    3.63    77.19106    82.88350    80.42080
    19  C   4.0    0.07    3.00    3.02    76.85142    81.54149    77.88197
    20  O   6.0   -0.48    1.00    1.80    75.48709    79.67476    77.70324
    21  C   4.0   -0.12    3.98    3.59    75.74940    85.37293    80.35379
    22  S   6.0   -0.22    2.02    3.10    75.57947    86.86396    83.44270
    23  H   1.0    0.32    1.00    1.43    80.43880    85.11585    81.13184
    24  H   1.0    0.11    0.99    1.43    76.37787    81.63235    81.86765
    25  H   1.0    0.12    0.99    1.43    76.64610    86.67677    79.03486
    26  H   1.0    0.11    0.99    1.43    73.80218    85.03085    79.77494
    27  H   1.0    0.15    1.00    1.43    78.00639    87.53612    83.52721
    28  N   5.0   -0.70    3.00    1.93    78.60615    74.69176    78.88983
    29  C   4.0    0.08    3.99    3.60    76.85695    73.29219    80.47092
    30  C   4.0    0.29    3.01    3.02    74.44566    72.69590    78.97259
    31  O   6.0   -0.44    1.00    1.80    73.47123    70.60472    78.99795
    32  C   4.0   -0.09    3.98    3.58    76.26419    74.75585    82.90465
    33  C   4.0   -0.22    3.98    3.59    74.10813    73.48662    84.34127
    34  C   4.0   -0.24    3.98    3.59    78.60927    74.92348    84.57735
    35  H   1.0    0.27    1.00    1.43    79.26436    76.38974    79.49438
    36  H   1.0    0.11    0.99    1.43    77.69398    71.45152    80.94462
    37  H   1.0    0.12    0.99    1.43    75.69034    76.66511    82.34863
    38  H   1.0    0.11    0.99    1.43    73.73861    74.47214    86.10478
    39  H   1.0    0.13    0.99    1.43    72.38374    73.47110    83.22376
    40  H   1.0    0.11    0.99    1.43    74.60247    71.54120    84.77133
    41  H   1.0    0.09    0.99    1.43    78.14936    75.91544    86.31512
    42  H   1.0    0.10    0.99    1.43    79.27194    73.04028    85.05473
    43  H   1.0    0.10    0.99    1.43    80.11677    75.93500    83.62189
    44  N   5.0   -0.48    3.01    1.93    73.48236    74.66607    77.71151
    45  C   4.0    0.07    3.99    3.61    71.10192    74.50765    76.37270
    46  C   4.0    0.28    3.01    3.02    71.22736    72.71105    74.10982
    47  O   6.0   -0.46    1.00    1.80    69.62648    71.08533    73.75469
    48  C   4.0   -0.21    3.99    3.60    70.32963    77.12486    75.45557
    49  H   1.0    0.30    1.00    1.43    74.36635    76.36216    77.71715
    50  H   1.0    0.14    0.99    1.43    69.65942    73.74880    77.65961
    51  H   1.0    0.10    0.99    1.43    68.53770    77.02429    74.45905
    52  H   1.0    0.11    0.99    1.43    70.13246    78.39010    77.06192
    53  H   1.0    0.12    0.99    1.43    71.76212    77.88124    74.19023
    54  N   5.0   -0.48    3.01    1.93    73.13773    73.13175    72.49828
    55  C   4.0    0.06    3.99    3.60    73.19903    71.95535    70.03795
    56  C   4.0    0.06    3.00    3.02    74.94190    69.66519    69.84685
    57  O   6.0   -0.40    1.00    1.80    74.69409    68.19661    68.05743
    58  C   4.0   -0.13    3.99    3.61    73.99079    73.85640    68.00467
    59  C   4.0   -0.03    3.02    3.02    72.06321    75.84349    67.32800
    60  C   4.0   -0.09    3.03    3.02    69.61431    75.89672    68.26258
    61  C   4.0   -0.10    3.04    3.02    72.80761    77.71155    65.63119
    62  C   4.0   -0.11    3.03    3.02    67.95014    77.77920    67.51928
    63  C   4.0   -0.10    3.03    3.02    71.16150    79.60198    64.90560
    64  C   4.0   -0.10    3.03    3.02    68.72426    79.64169    65.85701
    65  H   1.0    0.24    1.00    1.43    74.38458    74.55294    72.81134
    66  H   1.0    0.14    0.99    1.43    71.29380    71.22784    69.64641
    67  H   1.0    0.11    0.99    1.43    75.70695    74.80559    68.65629
    68  H   1.0    0.12    0.99    1.43    74.46084    72.79898    66.29206
    69  H   1.0    0.12    1.00    1.43    68.96569    74.49220    69.59273
    70  H   1.0    0.11    1.00    1.43    74.70909    77.67786    64.89228
    71  H   1.0    0.12    0.99    1.43    66.04644    77.78222    68.26148
    72  H   1.0    0.11    1.00    1.43    71.78110    81.04380    63.60349
    73  H   1.0    0.11    1.00    1.43    67.44451    81.13658    65.31994
    74  N   5.0   -0.51    3.02    1.93    75.57328    63.68187    71.31848
    75  C   4.0    0.06    4.01    3.63    74.79112    61.26468    70.25987
    76  C   4.0    0.08    3.00    3.02    74.00293    61.49976    67.49146
    77  O   6.0   -0.41    1.00    1.80    74.67131    59.94190    65.91899
    78  C   4.0   -0.14    4.01    3.63    72.61579    60.37609    71.96099
    79  C   4.0   -0.14    4.01    3.63    71.68837    62.79293    73.24163
    80  C   4.0   -0.03    4.01    3.64    74.09775    64.35266    73.53888
    81  H   1.0    0.11    0.99    1.43    76.38804    59.94842    70.28746
    82  H   1.0    0.10    0.99    1.43    71.14174    59.44714    70.87327
    83  H   1.0    0.09    0.99    1.43    73.33872    59.05281    73.36233
    84  H   1.0    0.11    0.99    1.43    70.33315    63.78146    72.04671
    85  H   1.0    0.09    0.99    1.43    70.78778    62.41835    75.04808
    86  H   1.0    0.13    0.99    1.43    73.71430    66.37306    73.62705
    87  H   1.0    0.10    0.99    1.43    75.12502    63.79691    75.24729
    88  N   5.0   -0.72    3.00    1.92    57.83604    73.42125    66.24585
    89  C   4.0   -0.01    3.98    3.58    59.93986    74.40598    67.68130
    90  C   4.0    0.06    3.00    3.02    60.66231    77.08153    66.87704
    91  O   6.0   -0.47    1.00    1.80    60.98069    78.78424    68.42131
    92  H   1.0    0.25    1.00    1.43    58.08468    71.68566    65.46517
    93  H   1.0    0.10    0.99    1.43    59.48253    74.45273    69.69802
    94  H   1.0    0.10    0.99    1.43    61.55132    73.15835    67.37890
    95  N   5.0   -0.70    3.00    1.93    55.76279    81.50286    69.14996
    96  C   4.0    0.09    3.98    3.59    55.85824    81.45823    71.87915
    97  C   4.0    0.29    3.01    3.02    57.64324    83.47508    72.90919
    98  O   6.0   -0.42    1.00    1.80    57.03130    84.87456    74.64272
    99  C   4.0   -0.01    3.98    3.59    56.72030    78.78860    72.70046
   100  O   6.0   -0.49    1.99    1.82    56.66989    78.37920    75.31590
   101  H   1.0    0.26    1.00    1.43    55.66015    79.79966    68.27069
   102  H   1.0    0.12    0.99    1.43    53.98560    81.85154    72.68761
   103  H   1.0    0.11    0.99    1.43    55.39067    77.44500    71.84901
   104  H   1.0    0.14    0.99    1.43    58.60399    78.46281    71.91368
   105  H   1.0    0.30    0.99    1.43    58.29276    78.80655    76.07448
   106  N   5.0   -0.49    3.01    1.93    59.95561    83.48857    71.86513
   107  C   4.0    0.07    3.99    3.61    61.97037    84.91602    73.01852
   108  C   4.0    0.06    3.00    3.02    62.69777    87.34066    71.64605
   109  O   6.0   -0.45    1.00    1.80    63.63627    89.10264    72.85578
   110  C   4.0   -0.08    3.98    3.58    64.32742    83.22179    73.38265
   111  C   4.0   -0.22    3.98    3.59    65.85442    82.99522    70.94807
   112  C   4.0   -0.22    3.98    3.59    65.95568    84.17735    75.56101
   113  H   1.0    0.28    1.00    1.43    60.37195    82.23796    70.47970
   114  H   1.0    0.15    0.99    1.43    61.26424    85.49183    74.88415
   115  H   1.0    0.13    0.99    1.43    63.60428    81.35182    73.89689
   116  H   1.0    0.10    0.99    1.43    67.35755    81.61502    71.18632
   117  H   1.0    0.12    0.99    1.43    64.65053    82.38661    69.39846
   118  H   1.0    0.11    0.99    1.43    66.71258    84.79778    70.45827
   119  H   1.0    0.10    0.99    1.43    67.69035    83.08349    75.66934
   120  H   1.0    0.12    0.99    1.43    66.43297    86.15846    75.30071
   121  H   1.0    0.11    0.99    1.43    64.94674    83.98330    77.33953
   122  N   5.0   -0.69    3.00    1.93    62.64199    94.12621    74.94055
   123  C   4.0    0.08    3.98    3.59    63.96068    94.35473    77.32167
   124  C   4.0    0.07    3.00    3.02    66.77204    93.82996    77.00773
   125  O   6.0   -0.47    1.00    1.80    68.35922    94.76470    78.42463
   126  C   4.0   -0.08    3.98    3.59    62.77291    92.69544    79.38985
   127  C   4.0   -0.15    3.98    3.59    63.39059    89.90112    78.96201
   128  C   4.0   -0.21    3.98    3.59    59.94065    93.22331    79.55837
   129  C   4.0   -0.23    3.98    3.58    62.02928    88.15979    80.80505
   130  H   1.0    0.29    1.00    1.43    61.69220    92.51396    74.57135
   131  H   1.0    0.15    0.99    1.43    63.78708    96.34374    77.90218
   132  H   1.0    0.11    0.99    1.43    63.64546    93.29708    81.16840
   133  H   1.0    0.14    0.99    1.43    62.89719    89.36420    77.03514
   134  H   1.0    0.11    0.99    1.43    65.43029    89.65437    79.16888
   135  H   1.0    0.13    0.99    1.43    59.19484    92.54671    81.34584
   136  H   1.0    0.12    0.99    1.43    59.62265    95.25144    79.44598
   137  H   1.0    0.11    0.99    1.43    58.92955    92.30234    78.02604
   138  H   1.0    0.11    0.99    1.43    62.74373    86.24370    80.59903
   139  H   1.0    0.11    0.99    1.43    62.32739    88.79462    82.73818
   140  H   1.0    0.12    0.99    1.43    60.01742    88.14947    80.40093
   141  N   5.0   -0.69    3.00    1.93    69.34702    99.77442    75.70023
   142  C   4.0    0.09    3.99    3.59    69.34868   101.30328    77.97636
   143  C   4.0    0.27    3.01    3.02    71.72899   100.81603    79.53628
   144  O   6.0   -0.40    1.00    1.80    72.84889   102.53997    80.62196
   145  C   4.0   -0.09    3.98    3.59    67.03177   100.74036    79.57694
   146  C   4.0    0.31    2.99    3.02    64.52309   101.55299    78.21080
   147  O   6.0   -0.39    1.00    1.80    64.56855   103.57049    77.01308
   148  O   6.0   -0.43    1.00    1.80    62.68669   100.10931    78.49960
   149  H   1.0    0.29    1.00    1.43    67.69013    98.98911    75.15149
   150  H   1.0    0.14    0.99    1.43    69.31673   103.31826    77.46172
   151  H   1.0    0.13    0.99    1.43    66.94533    98.73423    80.03306
   152  H   1.0    0.11    0.99    1.43    67.13457   101.82309    81.33222
   153  N   5.0   -0.48    3.01    1.93    72.42723    98.40008    79.66047
   154  C   4.0    0.07    3.98    3.59    74.51233    97.43532    81.14237
   155  C   4.0    0.08    3.00    3.02    77.13231    98.36679    80.30250
   156  O   6.0   -0.43    1.00    1.80    79.02767    97.63941    81.41206
   157  C   4.0   -0.20    3.99    3.60    74.44702    94.55840    81.06522
   158  H   1.0    0.30    1.00    1.43    71.31430    97.08673    78.82696
   159  H   1.0    0.14    0.99    1.43    74.30347    98.09491    83.10594
   160  H   1.0    0.12    0.99    1.43    76.06411    93.79948    82.07335
   161  H   1.0    0.12    0.99    1.43    72.71993    93.86121    81.93068
   162  H   1.0    0.12    0.99    1.43    74.51006    93.94518    79.10286
   163  N   5.0   -0.69    3.00    1.93    77.32839   108.22671    90.44983
   164  C   4.0    0.01    3.98    3.59    75.52931   107.78051    92.45221
   165  C   4.0    0.27    3.00    3.02    74.45640   105.09522    92.30714
   166  O   6.0   -0.39    1.00    1.80    74.35514   103.93669    90.31447
   167  H   1.0    0.28    1.00    1.43    76.62080   108.43415    88.69157
   168  H   1.0    0.10    0.99    1.43    76.52118   108.04133    94.24268
   169  H   1.0    0.10    0.99    1.43    73.98456   109.14107    92.29053
   170  N   5.0   -0.50    3.01    1.93    73.69811   104.15866    94.53487
   171  C   4.0    0.07    4.00    3.61    72.56379   101.68770    94.80792
   172  C   4.0    0.28    3.02    3.02    69.84331   102.06496    95.70009
   173  O   6.0   -0.40    1.00    1.80    69.27851   103.69869    97.23270
   174  C   4.0   -0.09    3.98    3.58    74.07254   100.05852    96.70032
   175  C   4.0   -0.22    3.98    3.59    72.88641    97.44409    96.94434
   176  C   4.0   -0.22    3.98    3.59    76.81796    99.83403    95.84013
   177  H   1.0    0.24    1.00    1.43    73.67148   105.26139    96.09049
   178  H   1.0    0.13    0.99    1.43    72.60560   100.81241    92.93533
   179  H   1.0    0.12    0.99    1.43    74.00339   101.00509    98.53999
   180  H   1.0    0.10    0.99    1.43    74.01250    96.26428    98.19003
   181  H   1.0    0.15    0.99    1.43    70.98864    97.54430    97.72037
   182  H   1.0    0.09    0.99    1.43    72.79737    96.51703    95.11304
   183  H   1.0    0.09    0.99    1.43    77.89900    98.77915    97.23013
   184  H   1.0    0.11    0.99    1.43    76.92047    98.84604    94.04067
   185  H   1.0    0.12    0.99    1.43    77.68899   101.67909    95.60103
   186  N   5.0   -0.48    3.01    1.93    68.11181   100.57716    94.58960
   187  C   4.0    0.07    4.00    3.61    65.51621   100.62554    95.47965
   188  C   4.0    0.08    3.00    3.02    65.57785   100.12434    98.33445
   189  O   6.0   -0.41    1.00    1.80    67.04351    98.62184    99.28244
   190  C   4.0   -0.09    3.98    3.59    63.92103    98.65512    94.06720
   191  C   4.0   -0.23    3.98    3.59    61.23015    98.58207    95.10023
   192  C   4.0   -0.22    3.98    3.59    63.87313    99.20902    91.23589
   193  H   1.0    0.22    1.00    1.43    68.68116    99.04941    93.60282
   194  H   1.0    0.12    0.99    1.43    64.76923   102.52855    95.14315
   195  H   1.0    0.11    0.99    1.43    64.78880    96.80953    94.39890
   196  H   1.0    0.10    0.99    1.43    60.11417    97.19442    94.07597
   197  H   1.0    0.10    0.99    1.43    61.19328    98.01496    97.07560
   198  H   1.0    0.10    0.99    1.43    60.31592   100.41252    94.91339
   199  H   1.0    0.11    0.99    1.43    62.74933    97.77349    90.29048
   200  H   1.0    0.11    0.99    1.43    63.02330   101.04552    90.89044
   201  H   1.0    0.11    0.99    1.43    65.75684    99.19199    90.42122
   202  N   5.0   -0.72    3.00    1.93    69.05706    89.13764   101.44493
   203  C   4.0    0.07    3.98    3.59    69.43272    86.97216    99.84489
   204  C   4.0    0.27    3.01    3.02    67.73150    86.97241    97.52682
   205  O   6.0   -0.49    1.00    1.80    67.99633    85.28641    95.92950
   206  C   4.0   -0.13    3.99    3.60    69.03036    84.53011   101.36710
   207  C   4.0   -0.04    3.03    3.02    70.99872    84.28972   103.40313
   208  C   4.0   -0.11    3.03    3.02    73.25092    83.03026   102.91797
   209  C   4.0   -0.11    3.03    3.02    70.64627    85.35981   105.77105
   210  C   4.0   -0.08    3.03    3.02    75.09550    82.81222   104.74767
   211  C   4.0   -0.10    3.03    3.02    72.49001    85.17340   107.61571
   212  C   4.0    0.10    3.03    3.02    74.72710    83.88796   107.11946
   213  O   6.0   -0.48    1.99    1.83    76.58210    83.62904   108.87327
   214  H   1.0    0.26    1.00    1.43    67.93301    88.88212   102.96965
   215  H   1.0    0.11    0.99    1.43    71.37952    87.02672    99.12343
   216  H   1.0    0.11    0.99    1.43    67.13577    84.58135   102.17496
   217  H   1.0    0.11    0.99    1.43    69.13668    82.92683   100.07628
   218  H   1.0    0.10    1.00    1.43    73.55608    82.19124   101.08548
   219  H   1.0    0.11    1.00    1.43    68.90172    86.32637   106.19352
   220  H   1.0    0.12    1.00    1.43    76.83175    81.81324   104.37874
   221  H   1.0    0.11    0.99    1.43    72.17969    86.02311   109.44604
   222  H   1.0    0.25    0.99    1.43    76.07681    84.42404   110.43965
   223  N   5.0   -0.48    3.00    1.93    66.03876    88.80061    97.26378
   224  C   4.0    0.07    4.00    3.61    64.33333    88.89917    95.12145
   225  C   4.0    0.31    3.01    3.02    65.49039    87.75836    92.72259
   226  O   6.0   -0.45    1.00    1.80    64.44876    86.02281    91.60313
   227  C   4.0   -0.14    3.99    3.60    63.56187    91.64560    94.58293
   228  C   4.0   -0.04    3.03    3.02    62.05216    91.72723    92.17561
   229  C   4.0   -0.10    3.03    3.02    63.13879    92.42148    89.88899
   230  C   4.0   -0.11    3.03    3.02    59.54763    90.94453    92.19202
   231  C   4.0   -0.09    3.03    3.02    61.78669    92.28165    87.66021
   232  C   4.0   -0.10    3.03    3.02    58.17619    90.80502    89.97614
   233  C   4.0    0.10    3.03    3.02    59.29663    91.44079    87.68501
   234  O   6.0   -0.50    1.99    1.83    58.03266    91.26775    85.45957
   235  H   1.0    0.25    1.00    1.43    65.67799    90.07623    98.65911
   236  H   1.0    0.12    0.99    1.43    62.63188    87.78125    95.53527
   237  H   1.0    0.10    0.99    1.43    62.44507    92.34750    96.17268
   238  H   1.0    0.10    0.99    1.43    65.26957    92.79146    94.43074
   239  H   1.0    0.12    1.00    1.43    65.06232    93.09808    89.82997
   240  H   1.0    0.11    0.99    1.43    58.65497    90.47644    93.96813
   241  H   1.0    0.12    1.00    1.43    62.64391    92.81827    85.89116
   242  H   1.0    0.11    0.99    1.43    56.23218    90.18469    90.03385
   243  H   1.0    0.25    0.99    1.43    56.29088    90.80309    85.76491
   244  N   5.0   -0.48    3.01    1.93    67.57881    88.87900    91.82726
   245  C   4.0    0.07    4.00    3.62    68.50449    88.25130    89.32029
   246  C   4.0    0.30    3.01    3.02    69.14641    85.44145    89.14791
   247  O   6.0   -0.46    1.00    1.80    68.46452    84.13694    87.36802
   248  C   4.0   -0.14    3.99    3.60    70.85694    89.81266    88.65462
   249  C   4.0   -0.04    3.03    3.02    70.19603    92.45185    87.82197
   250  C   4.0   -0.10    3.03    3.02    68.85644    92.81273    85.58913
   251  C   4.0   -0.11    3.03    3.02    70.94204    94.55172    89.20650
   252  C   4.0   -0.10    3.03    3.02    68.27346    95.21969    84.75695
   253  C   4.0   -0.11    3.03    3.02    70.38586    96.96741    88.35973
   254  C   4.0   -0.10    3.03    3.02    69.04899    97.30555    86.13689
   255  H   1.0    0.23    1.00    1.43    68.32517    90.40154    92.69887
   256  H   1.0    0.13    0.99    1.43    66.99286    88.59471    87.94100
   257  H   1.0    0.10    0.99    1.43    72.13468    89.86141    90.27023
   258  H   1.0    0.11    0.99    1.43    71.83388    88.86536    87.10187
   259  H   1.0    0.11    0.99    1.43    68.29436    91.19986    84.47078
   260  H   1.0    0.10    0.99    1.43    72.01889    94.30502    90.92306
   261  H   1.0    0.13    1.00    1.43    67.26103    95.48196    83.00456
   262  H   1.0    0.12    0.99    1.43    71.03626    98.60663    89.39042
   263  H   1.0    0.12    0.99    1.43    68.63397    99.18534    85.45507
   264  N   5.0   -0.48    3.01    1.93    70.61835    84.58426    91.01466
   265  C   4.0    0.07    4.00    3.61    71.46336    81.97639    91.10157
   266  C   4.0    0.29    3.01    3.02    69.18322    80.19636    91.11807
   267  O   6.0   -0.46    1.00    1.80    69.01440    78.36109    89.72442
   268  C   4.0   -0.15    3.99    3.60    73.10596    81.59260    93.44926
   269  C   4.0   -0.10    3.98    3.58    74.05076    78.87235    93.77468
   270  C   4.0   -0.23    3.98    3.59    75.85799    78.11846    91.65600
   271  C   4.0   -0.24    3.98    3.59    75.33767    78.61158    96.34631
   272  H   1.0    0.26    1.00    1.43    70.86649    85.64652    92.58147
   273  H   1.0    0.12    0.99    1.43    72.53147    81.58442    89.37273
   274  H   1.0    0.10    0.99    1.43    74.73031    82.85748    93.32126
   275  H   1.0    0.12    0.99    1.43    71.98822    82.11974    95.10299
   276  H   1.0    0.13    0.99    1.43    72.42451    77.59763    93.71153
   277  H   1.0    0.10    0.99    1.43    76.59688    76.23256    91.99663
   278  H   1.0    0.10    0.99    1.43    74.88403    78.08811    89.84733
   279  H   1.0    0.09    0.99    1.43    77.43649    79.42891    91.54932
   280  H   1.0    0.09    0.99    1.43    76.11229    76.72368    96.57033
   281  H   1.0    0.10    0.99    1.43    76.87884    79.95935    96.52096
   282  H   1.0    0.09    0.99    1.43    73.99307    78.93473    97.86705
   283  N   5.0   -0.48    3.01    1.93    67.42550    80.82832    92.81755
   284  C   4.0    0.09    3.99    3.61    65.11257    79.40190    93.12287
   285  C   4.0    0.29    3.01    3.02    63.86411    79.00073    90.55585
   286  O   6.0   -0.48    1.00    1.80    63.09844    76.92855    89.86377
   287  C   4.0    0.04    3.98    3.58    63.28872    80.81694    94.92780
   288  O   6.0   -0.49    1.99    1.82    64.47491    81.34644    97.24657
   289  C   4.0   -0.21    3.98    3.59    60.96153    79.21664    95.48591
   290  H   1.0    0.30    1.00    1.43    67.63231    82.45346    93.80832
   291  H   1.0    0.12    0.99    1.43    65.54893    77.53562    93.92046
   292  H   1.0    0.14    0.99    1.43    62.72560    82.58647    93.99142
   293  H   1.0    0.30    0.99    1.43    65.73670    82.64911    96.99239
   294  H   1.0    0.11    0.99    1.43    59.63402    80.32067    96.59372
   295  H   1.0    0.10    0.99    1.43    60.06965    78.61323    93.74059
   296  H   1.0    0.11    0.99    1.43    61.51880    77.56734    96.57515
   297  N   5.0   -0.49    3.01    1.93    63.62317    81.10786    89.18505
   298  C   4.0    0.10    3.99    3.61    62.29870    81.12731    86.79851
   299  C   4.0    0.30    3.01    3.02    63.76165    79.72020    84.73713
   300  O   6.0   -0.46    1.00    1.80    62.67685    78.42974    83.13527
   301  C   4.0   -0.02    3.98    3.58    61.73598    83.85042    85.98123
   302  O   6.0   -0.49    1.99    1.83    59.63817    83.75754    84.36065
   303  H   1.0    0.30    1.00    1.43    64.22301    82.79388    89.87638
   304  H   1.0    0.13    0.99    1.43    60.47759    80.15091    86.99417
   305  H   1.0    0.13    0.99    1.43    61.30844    84.97856    87.67476
   306  H   1.0    0.12    0.99    1.43    63.40106    84.66578    85.05338
   307  H   1.0    0.25    0.99    1.43    59.40524    85.37416    83.55258
   308  N   5.0   -0.47    3.01    1.93    66.25674    79.98619    84.81016
   309  C   4.0    0.07    3.99    3.61    67.88020    78.62489    83.06990
   310  C   4.0    0.29    3.01    3.02    67.44159    75.77857    83.39963
   311  O   6.0   -0.46    1.00    1.80    67.04603    74.40112    81.57211
   312  C   4.0   -0.21    3.98    3.59    70.62376    79.33937    83.53257
   313  H   1.0    0.31    1.00    1.43    67.08803    81.23283    86.01383
   314  H   1.0    0.12    0.99    1.43    67.32445    79.08185    81.12223
   315  H   1.0    0.11    0.99    1.43    71.82329    78.42879    82.13714
   316  H   1.0    0.12    0.99    1.43    70.82888    81.37945    83.39634
   317  H   1.0    0.13    0.99    1.43    71.17787    78.73581    85.41493
   318  N   5.0   -0.48    3.01    1.93    67.49189    74.93779    85.77370
   319  C   4.0    0.08    4.00    3.62    66.93461    72.30992    86.30569
   320  C   4.0    0.29    3.02    3.02    64.30657    71.64502    85.29652
   321  O   6.0   -0.45    1.00    1.80    63.94723    69.75358    84.00236
   322  C   4.0   -0.13    3.99    3.60    66.99197    71.72144    89.13709
   323  C   4.0   -0.03    3.03    3.02    69.59749    71.40060    90.23765
   324  C   4.0   -0.11    3.03    3.02    71.34161    69.76436    89.14903
   325  C   4.0   -0.09    3.03    3.02    70.24327    72.63542    92.46006
   326  C   4.0   -0.11    3.03    3.02    73.69680    69.41542    90.23169
   327  C   4.0   -0.11    3.03    3.02    72.58147    72.25773    93.57000
   328  C   4.0   -0.11    3.03    3.02    74.32137    70.66125    92.44657
   329  H   1.0    0.30    1.00    1.43    67.88145    76.12086    87.23391
   330  H   1.0    0.12    0.99    1.43    68.27931    71.12071    85.26497
   331  H   1.0    0.13    0.99    1.43    65.96835    73.20823    90.13564
   332  H   1.0    0.10    0.99    1.43    65.94675    69.95541    89.40236
   333  H   1.0    0.10    0.99    1.43    70.85839    68.75849    87.43764
   334  H   1.0    0.11    1.00    1.43    68.88845    73.89003    93.32966
   335  H   1.0    0.11    1.00    1.43    75.04113    68.15710    89.35086
   336  H   1.0    0.10    1.00    1.43    73.03671    73.20325    95.31852
   337  H   1.0    0.10    1.00    1.43    76.15090    70.37104    93.29896
   338  N   5.0   -0.48    3.01    1.93    62.46421    73.22633    85.96631
   339  C   4.0    0.07    4.00    3.62    59.87195    72.74082    85.22203
   340  C   4.0    0.30    3.01    3.02    59.77683    72.14348    82.38805
   341  O   6.0   -0.47    1.00    1.80    58.49721    70.42025    81.53525
   342  C   4.0   -0.14    3.99    3.60    58.24151    75.03950    85.86716
   343  C   4.0   -0.11    3.98    3.58    55.40539    74.45404    85.95800
   344  C   4.0   -0.23    3.98    3.59    54.72167    73.18142    88.45685
   345  C   4.0   -0.22    3.98    3.59    53.89466    76.89328    85.63630
   346  H   1.0    0.30    1.00    1.43    62.77170    74.65518    87.21364
   347  H   1.0    0.11    0.99    1.43    59.17452    71.05102    86.20608
   348  H   1.0    0.12    0.99    1.43    58.83789    75.73416    87.71849
   349  H   1.0    0.14    0.99    1.43    58.61219    76.51490    84.47615
   350  H   1.0    0.12    0.99    1.43    54.94563    73.17237    84.40175
   351  H   1.0    0.11    0.99    1.43    52.70567    72.80904    88.55404
   352  H   1.0    0.10    0.99    1.43    55.71088    71.39465    88.67694
   353  H   1.0    0.10    0.99    1.43    55.22359    74.40019    90.03359
   354  H   1.0    0.10    0.99    1.43    51.88249    76.50978    85.77331
   355  H   1.0    0.11    0.99    1.43    54.40921    78.24272    87.09895
   356  H   1.0    0.11    0.99    1.43    54.27366    77.73985    83.80444
   357  N   5.0   -0.47    3.01    1.93    61.12178    73.74434    80.97019
   358  C   4.0    0.09    3.99    3.61    61.23522    73.60606    78.24186
   359  C   4.0    0.29    3.01    3.02    62.36135    71.07893    77.39779
   360  O   6.0   -0.47    1.00    1.80    61.25065    69.69954    75.89892
   361  C   4.0    0.04    3.98    3.58    62.81463    75.81375    77.18105
   362  O   6.0   -0.52    1.99    1.82    61.61306    78.16008    77.61488
   363  C   4.0   -0.20    3.98    3.59    63.18205    75.47955    74.34294
   364  H   1.0    0.30    1.00    1.43    62.05721    75.17558    81.83573
   365  H   1.0    0.13    0.99    1.43    59.30681    73.71141    77.47431
   366  H   1.0    0.14    0.99    1.43    64.66091    75.79486    78.13168
   367  H   1.0    0.30    0.99    1.43    61.58560    78.48693    79.41721
   368  H   1.0    0.11    0.99    1.43    63.97152    77.19251    73.53325
   369  H   1.0    0.11    0.99    1.43    64.44419    73.90253    73.97606
   370  H   1.0    0.11    0.99    1.43    61.37249    75.10065    73.45174
   371  N   5.0   -0.48    3.01    1.93    64.60911    70.52218    78.37844
   372  C   4.0    0.08    4.00    3.62    65.86888    68.16494    77.76778
   373  C   4.0    0.30    3.01    3.02    64.03555    65.95335    78.06052
   374  O   6.0   -0.47    1.00    1.80    63.93273    64.19478    76.55745
   375  C   4.0   -0.20    3.99    3.60    68.08522    67.72055    79.54805
   376  H   1.0    0.30    1.00    1.43    65.45754    71.69416    79.63370
   377  H   1.0    0.14    0.99    1.43    66.52779    68.22363    75.80480
   378  H   1.0    0.11    0.99    1.43    68.82189    65.82448    79.27177
   379  H   1.0    0.15    0.99    1.43    69.60033    69.05429    79.17165
   380  H   1.0    0.13    0.99    1.43    67.45008    67.91813    81.49122
   381  N   5.0   -0.47    3.01    1.93    62.69418    66.05804    80.19180
   382  C   4.0    0.07    3.99    3.61    61.06642    64.01389    80.99067
   383  C   4.0    0.29    3.01    3.02    58.95587    63.62596    79.05953
   384  O   6.0   -0.41    1.00    1.80    58.29690    61.52283    78.37553
   385  C   4.0   -0.21    3.98    3.59    59.96380    64.54504    83.59254
   386  H   1.0    0.31    1.00    1.43    62.94795    67.55555    81.36134
   387  H   1.0    0.12    0.99    1.43    62.15296    62.24371    81.02490
   388  H   1.0    0.11    0.99    1.43    58.86587    62.91696    84.19397
   389  H   1.0    0.12    0.99    1.43    61.49084    64.86345    84.92769
   390  H   1.0    0.14    0.99    1.43    58.76483    66.21042    83.51942
   391  N   5.0   -0.47    3.01    1.93    57.88078    65.76192    78.25042
   392  C   4.0    0.08    4.00    3.61    55.90928    65.78315    76.35021
   393  C   4.0    0.29    3.01    3.02    56.86794    64.46786    73.96816
   394  O   6.0   -0.39    1.00    1.80    55.56094    62.98478    72.74683
   395  C   4.0   -0.09    3.98    3.58    55.10296    68.51736    75.74759
   396  C   4.0   -0.15    3.98    3.58    53.58963    69.69663    77.92587
   397  C   4.0   -0.22    3.98    3.59    53.65020    68.66586    73.25764
   398  C   4.0   -0.23    3.98    3.58    50.98698    68.54605    78.38433
   399  H   1.0    0.30    1.00    1.43    58.44622    67.42535    79.01123
   400  H   1.0    0.13    0.99    1.43    54.28148    64.68254    77.01864
   401  H   1.0    0.14    0.99    1.43    56.84727    69.60858    75.53873
   402  H   1.0    0.14    0.99    1.43    54.70137    69.56048    79.65485
   403  H   1.0    0.11    0.99    1.43    53.34708    71.70120    77.50025
   404  H   1.0    0.10    0.99    1.43    53.00255    70.58992    72.93934
   405  H   1.0    0.12    0.99    1.43    54.85066    68.12729    71.67963
   406  H   1.0    0.11    0.99    1.43    52.02543    67.41206    73.29912
   407  H   1.0    0.10    0.99    1.43    50.12309    69.42685    80.02790
   408  H   1.0    0.10    0.99    1.43    49.74469    68.84944    76.77851
   409  H   1.0    0.11    0.99    1.43    51.09944    66.52747    78.75032
   410  N   5.0   -0.48    3.01    1.93    59.19620    65.10961    73.26073
   411  C   4.0    0.08    4.00    3.62    60.29038    64.09776    70.95809
   412  C   4.0    0.29    3.01    3.02    60.35390    61.21333    71.15941
   413  O   6.0   -0.38    1.00    1.80    59.58629    59.82246    69.45392
   414  C   4.0   -0.09    3.98    3.58    62.94629    65.18549    70.49185
   415  C   4.0   -0.16    3.98    3.59    62.75345    68.03890    70.00636
   416  C   4.0   -0.22    3.98    3.59    64.17900    63.83259    68.25816
   417  C   4.0   -0.23    3.98    3.58    65.30901    69.33612    69.71578
   418  H   1.0    0.29    1.00    1.43    60.16575    66.46359    74.21149
   419  H   1.0    0.12    0.99    1.43    59.06813    64.57724    69.35060
   420  H   1.0    0.14    0.99    1.43    64.06591    64.85601    72.19957
   421  H   1.0    0.10    0.99    1.43    61.63122    68.35400    68.30415
   422  H   1.0    0.13    0.99    1.43    61.76103    68.93482    71.57402
   423  H   1.0    0.10    0.99    1.43    66.16172    64.33219    68.13331
   424  H   1.0    0.12    0.99    1.43    64.05554    61.79216    68.45099
   425  H   1.0    0.11    0.99    1.43    63.24556    64.37332    66.50626
   426  H   1.0    0.10    0.99    1.43    65.02222    71.36370    69.52194
   427  H   1.0    0.14    0.99    1.43    66.49262    69.01710    71.36356
   428  H   1.0    0.11    0.99    1.43    66.28835    68.68260    68.03641
   429  N   5.0   -0.47    3.01    1.93    61.33962    60.35133    73.30376
   430  C   4.0    0.07    3.99    3.60    61.60835    57.66850    73.79102
   431  C   4.0    0.10    3.00    3.02    59.01018    56.39399    73.79122
   432  O   6.0   -0.38    1.00    1.80    58.59652    54.49871    72.51394
   433  C   4.0   -0.14    3.99    3.60    62.95813    57.25004    76.30401
   434  C   4.0   -0.10    3.98    3.58    65.78221    57.90435    76.22300
   435  C   4.0   -0.22    3.98    3.59    66.81509    57.99862    78.91668
   436  C   4.0   -0.23    3.98    3.59    67.26352    55.97401    74.67304
   437  H   1.0    0.29    1.00    1.43    62.07363    61.56813    74.59634
   438  H   1.0    0.14    0.99    1.43    62.67256    56.79483    72.23977
   439  H   1.0    0.13    0.99    1.43    62.01759    58.41142    77.72577
   440  H   1.0    0.11    0.99    1.43    62.74597    55.26862    76.82835
   441  H   1.0    0.13    0.99    1.43    66.01336    59.77338    75.36848
   442  H   1.0    0.10    0.99    1.43    68.82918    58.39574    78.89557
   443  H   1.0    0.11    0.99    1.43    65.87840    59.47383    79.99654
   444  H   1.0    0.10    0.99    1.43    66.52520    56.19407    79.85437
   445  H   1.0    0.09    0.99    1.43    69.26877    56.41247    74.71428
   446  H   1.0    0.10    0.99    1.43    66.99780    54.08522    75.43883
   447  H   1.0    0.10    0.99    1.43    66.66871    55.95716    72.70687
   448  N   5.0   -0.72    3.00    1.93    53.02628    76.92276   106.04710
   449  C   4.0    0.06    3.98    3.59    54.81585    75.60481   104.43311
   450  C   4.0    0.05    3.00    3.02    54.81101    72.77535   105.01174
   451  O   6.0   -0.46    1.00    1.80    54.95038    71.18263   103.33069
   452  C   4.0   -0.12    3.99    3.60    57.47041    76.74608   104.77194
   453  C   4.0   -0.04    3.03    3.02    57.32806    79.55016   104.31237
   454  C   4.0   -0.11    3.03    3.02    56.95354    80.49253   101.88892
   455  C   4.0   -0.11    3.03    3.02    57.36010    81.22975   106.32551
   456  C   4.0   -0.08    3.03    3.02    56.56729    83.03759   101.48129
   457  C   4.0   -0.11    3.03    3.02    56.97529    83.78340   105.94041
   458  C   4.0    0.10    3.03    3.02    56.52871    84.69518   103.52176
   459  O   6.0   -0.48    1.99    1.83    56.05483    87.18896   103.08225
   460  H   1.0    0.26    1.00    1.43    53.40041    78.77893   106.42462
   461  H   1.0    0.10    0.99    1.43    54.24159    75.82982   102.44774
   462  H   1.0    0.11    0.99    1.43    58.14886    76.36579   106.67982
   463  H   1.0    0.10    0.99    1.43    58.74142    75.83920   103.42820
   464  H   1.0    0.10    1.00    1.43    56.91194    79.21247   100.30296
   465  H   1.0    0.11    1.00    1.43    57.65088    80.53790   108.22239
   466  H   1.0    0.12    1.00    1.43    56.20925    83.75794    99.60778
   467  H   1.0    0.11    1.00    1.43    56.92788    85.04661   107.54138
   468  H   1.0    0.25    0.99    1.43    55.81099    88.04297   104.68002
   469  N   5.0   -0.70    3.00    1.93    49.28918    70.06842   101.80181
   470  C   4.0    0.10    3.98    3.59    49.18771    70.71145    99.14982
   471  C   4.0    0.32    3.01    3.02    51.24449    69.29213    97.65919
   472  O   6.0   -0.39    1.00    1.80    50.72234    67.71013    96.06978
   473  C   4.0   -0.03    3.98    3.58    49.47726    73.56882    98.79743
   474  O   6.0   -0.48    1.99    1.82    50.02305    74.07565    96.24469
   475  H   1.0    0.27    1.00    1.43    50.10853    71.31264   103.00061
   476  H   1.0    0.12    0.99    1.43    47.36955    70.08630    98.37484
   477  H   1.0    0.09    0.99    1.43    47.72538    74.51293    99.39084
   478  H   1.0    0.10    0.99    1.43    51.00612    74.25105   100.02251
   479  H   1.0    0.24    0.99    1.43    50.55424    75.81558    96.09829
   480  N   5.0   -0.48    3.01    1.93    53.62664    69.95128    98.21778
   481  C   4.0    0.07    3.99    3.60    55.72320    68.98298    96.74236
   482  C   4.0    0.09    3.00    3.02    56.33532    66.23188    97.35984
   483  O   6.0   -0.46    1.00    1.80    56.61444    64.65566    95.68238
   484  C   4.0   -0.15    3.99    3.60    58.06344    70.64760    97.12653
   485  C   4.0   -0.10    3.97    3.58    60.46006    69.63585    95.83522
   486  C   4.0   -0.22    3.98    3.59    60.14435    69.43488    92.97288
   487  C   4.0   -0.23    3.98    3.59    62.69026    71.36331    96.45270
   488  H   1.0    0.28    1.00    1.43    54.02005    70.89915    99.83686
   489  H   1.0    0.14    0.99    1.43    55.12676    69.01210    94.75836
   490  H   1.0    0.10    0.99    1.43    57.64342    72.52604    96.38812
   491  H   1.0    0.12    0.99    1.43    58.40663    70.81230    99.15662
   492  H   1.0    0.12    0.99    1.43    60.85495    67.74543    96.58425
   493  H   1.0    0.10    0.99    1.43    61.89847    68.80057    92.11028
   494  H   1.0    0.12    0.99    1.43    58.68337    68.07723    92.48581
   495  H   1.0    0.10    0.99    1.43    59.65643    71.26238    92.17096
   496  H   1.0    0.10    0.99    1.43    64.43125    70.56579    95.71127
   497  H   1.0    0.10    0.99    1.43    62.40011    73.20798    95.59468
   498  H   1.0    0.10    0.99    1.43    62.89556    71.59660    98.48319
   499  N   5.0   -0.71    3.00    1.93    56.93549    60.23359    92.42102
   500  C   4.0    0.07    3.98    3.58    59.28399    58.89782    91.95678
   501  C   4.0    0.08    3.00    3.02    58.84414    56.05288    92.28911
   502  O   6.0   -0.42    1.00    1.80    59.63659    54.49819    90.75837
   503  C   4.0   -0.13    3.99    3.60    61.40674    59.88843    93.67904
   504  C   4.0   -0.04    3.03    3.02    63.76597    60.50699    92.21208
   505  C   4.0   -0.10    3.03    3.02    64.85990    58.71309    90.63052
   506  C   4.0   -0.11    3.03    3.02    64.88394    62.87131    92.38985
   507  C   4.0   -0.08    3.03    3.02    67.00912    59.26421    89.26140
   508  C   4.0   -0.10    3.02    3.02    67.05200    63.44144    91.04264
   509  C   4.0    0.10    3.03    3.02    68.12602    61.63825    89.46603
   510  O   6.0   -0.48    1.99    1.83    70.24958    62.10346    88.09238
   511  H   1.0    0.31    1.00    1.43    56.88615    61.59059    93.77883
   512  H   1.0    0.13    0.99    1.43    59.81614    59.17669    89.96695
   513  H   1.0    0.12    0.99    1.43    60.72687    61.58411    94.63355
   514  H   1.0    0.11    0.99    1.43    61.83130    58.48432    95.13147
   515  H   1.0    0.14    1.00    1.43    64.01930    56.86108    90.46218
   516  H   1.0    0.11    1.00    1.43    64.06048    64.29039    93.60281
   517  H   1.0    0.13    1.00    1.43    67.85706    57.88088    88.02749
   518  H   1.0    0.11    0.99    1.43    67.92046    65.28377    91.21614
   519  H   1.0    0.25    0.99    1.43    70.87372    63.78301    88.45050
   520  H   1.0    0.29    1.00    1.43    87.54604    91.54110    84.90447
   521  H   1.0    0.14    1.00    1.43    82.16305    91.62785    80.80763
   522  H   1.0    0.29    1.00    1.43    80.22044    82.57426    82.46042
   523  H   1.0    0.13    1.00    1.43    77.74595    82.18411    76.34642
   524  H   1.0    0.29    1.00    1.43    80.00772    73.76300    78.63373
   525  H   1.0    0.14    1.00    1.43    76.26448    69.37179    71.16434
   526  H   1.0    0.26    1.00    1.43    77.18614    63.57476    71.84743
   527  H   1.0    0.15    1.00    1.43    72.92135    62.94660    66.93658
   528  H   1.0    0.29    1.00    1.43    56.47203    73.29223    67.25351
   529  H   1.0    0.13    1.00    1.43    60.88977    77.48873    65.04578
   530  H   1.0    0.29    1.00    1.43    54.39057    82.37095    68.64399
   531  H   1.0    0.13    1.00    1.43    62.41405    87.49392    69.78405
   532  H   1.0    0.30    1.00    1.43    61.47070    95.35346    74.82017
   533  H   1.0    0.15    1.00    1.43    67.37256    92.69745    75.61925
   534  H   1.0    0.30    1.00    1.43    69.84750   100.72194    74.37952
   535  H   1.0    0.15    1.00    1.43    77.28797    99.56624    78.85055
   536  H   1.0    0.29    1.00    1.43    78.19171   109.65655    90.77049
   537  H   1.0    0.12    1.00    1.43    64.39015   101.04396    99.48108
   538  H   1.0    0.30    1.00    1.43    70.55651    89.66054   102.05387
   539  H   1.0    0.16    1.00    1.43    57.61026    57.10254    74.84443
   540  H   1.0    0.29    1.00    1.43    51.48697    76.90111   105.32418
   541  H   1.0    0.14    1.00    1.43    54.69201    72.17689   106.80024
   542  H   1.0    0.29    1.00    1.43    47.70937    69.86083   102.39650
   543  H   1.0    0.14    1.00    1.43    56.51607    65.68515    99.15970
   544  H   1.0    0.30    1.00    1.43    56.44798    61.03473    91.00219
   545  H   1.0    0.14    1.00    1.43    57.88655    55.41353    93.78755

           ------------------------------------------------- 
          |        Self-Consistent Charge Iterations        |
           ------------------------------------------------- 

          ...................................................
          :                      SETUP                      :
          :.................................................:
          :  # basis functions                1325          :
          :  # atomic orbitals                1324          :
          :  # shells                          804          :
          :  # electrons                      1446          :
          :  max. iterations                   250          :
          :  Hamiltonian                  GFN2-xTB          :
          :  restarted?                      false          :
          :  GBSA solvation                   true          :
          :  PC potential                    false          :
          :  electronic temp.          500.0000000     K    :
          :  accuracy                    0.1000000          :
          :  -> integral cutoff          0.3500000E+02      :
          :  -> integral neglect         0.1000000E-08      :
          :  -> SCF convergence          0.1000000E-06 Eh   :
          :  -> wf. convergence          0.1000000E-04 e    :
          :  Broyden damping             0.4000000          :
          ...................................................

 iter      E             dE          RMSdq      gap      omega  full diag
   1   -822.2819314 -0.822282E+03  0.416E+00    1.75       0.0  T
   2   -824.0592156 -0.177728E+01  0.219E+00    1.69       1.0  T
   3   -824.1246191 -0.654035E-01  0.117E+00    1.94       1.0  T
   4   -824.1800110 -0.553919E-01  0.255E-01    1.39       1.0  T
   5   -824.1990108 -0.189998E-01  0.102E-01    1.46       1.0  T
   6   -824.1996906 -0.679762E-03  0.470E-02    1.47       1.0  T
   7   -824.1998693 -0.178776E-03  0.221E-02    1.47       1.0  T
   8   -824.1999418 -0.725118E-04  0.817E-03    1.48       1.0  T
   9   -824.1999471 -0.530898E-05  0.382E-03    1.47       1.1  T
  10   -824.1999485 -0.137738E-05  0.177E-03    1.47       2.4  T
  11   -824.1999488 -0.275142E-06  0.848E-04    1.47       5.1  T
  12   -824.1999489 -0.931210E-07  0.389E-04    1.47      11.0  T
  13   -824.1999489 -0.189680E-07  0.174E-04    1.47      24.7  T
  14   -824.1999489 -0.280875E-08  0.877E-05    1.47      48.9  T
  15   -824.1999489 -0.893124E-09  0.334E-05    1.47     128.2  T

   *** convergence criteria satisfied after 15 iterations ***

         #    Occupation            Energy/Eh            Energy/eV
      -------------------------------------------------------------
         1        2.0000           -0.7377409             -20.0750
       ...           ...                  ...                  ...
       717        2.0000           -0.3688909             -10.0380
       718        2.0000           -0.3648975              -9.9294
       719        2.0000           -0.3609619              -9.8223
       720        2.0000           -0.3601147              -9.7992
       721        2.0000           -0.3581241              -9.7451
       722        2.0000           -0.3538586              -9.6290
       723        2.0000           -0.3508344              -9.5467 (HOMO)
       724                         -0.2967038              -8.0737 (LUMO)
       725                         -0.2957520              -8.0478
       726                         -0.2936040              -7.9894
       727                         -0.2922016              -7.9512
       728                         -0.2877416              -7.8298
       ...                                ...                  ...
      1324                          0.6719108              18.2836
      -------------------------------------------------------------
                  HL-Gap            0.0541306 Eh            1.4730 eV
             Fermi-level           -0.3240963 Eh           -8.8191 eV

 SCC (total)                   0 d,  0 h,  0 min, 28.512 sec
 SCC setup                      ...        0 min,  0.265 sec (  0.929%)
 Dispersion                     ...        0 min,  0.332 sec (  1.166%)
 integral evaluation            ...        0 min,  1.107 sec (  3.881%)
 zeroth order Hamiltonian       ...        0 min,  0.013 sec (  0.046%)
 iterations                     ...        0 min, 21.080 sec ( 73.934%)
 molecular gradient             ...        0 min,  5.510 sec ( 19.327%)
 printout                       ...        0 min,  0.204 sec (  0.716%)

         :::::::::::::::::::::::::::::::::::::::::::::::::::::
         ::                     SUMMARY                     ::
         :::::::::::::::::::::::::::::::::::::::::::::::::::::
         :: total energy             -813.559284028745 Eh   ::
         :: total w/o Gsasa/hb       -813.472299702600 Eh   ::
         :: gradient norm               0.800512725361 Eh/α ::
         :: HOMO-LUMO gap               1.472968384219 eV   ::
         ::.................................................::
         :: SCC energy               -824.227664243398 Eh   ::
         :: -> isotropic ES             1.976143307338 Eh   ::
         :: -> anisotropic ES          -0.024247212203 Eh   ::
         :: -> anisotropic XC           0.304262844725 Eh   ::
         :: -> dispersion              -0.706854255394 Eh   ::
         :: -> Gsolv                   -0.386469605833 Eh   ::
         ::    -> Gborn                -0.299485279688 Eh   ::
         ::    -> Gsasa                -0.029572770634 Eh   ::
         ::    -> Ghb                  -0.059268998638 Eh   ::
         ::    -> Gshift                0.001857443127 Eh   ::
         :: repulsion energy           10.602551774177 Eh   ::
         :: add. restraining            0.000000000000 Eh   ::
         :::::::::::::::::::::::::::::::::::::::::::::::::::::

           -------------------------------------------------
          |                Property Printout                |
           -------------------------------------------------

    * Orbital Energies and Occupations

         #    Occupation            Energy/Eh            Energy/eV
      -------------------------------------------------------------
         1        2.0000           -0.7377409             -20.0750
       ...           ...                  ...                  ...
       711        2.0000           -0.3759296             -10.2296
       712        2.0000           -0.3733109             -10.1583
       713        2.0000           -0.3726702             -10.1409
       714        2.0000           -0.3710606             -10.0971
       715        2.0000           -0.3694251             -10.0526
       716        2.0000           -0.3689195             -10.0388
       717        2.0000           -0.3688909             -10.0380
       718        2.0000           -0.3648975              -9.9294
       719        2.0000           -0.3609619              -9.8223
       720        2.0000           -0.3601147              -9.7992
       721        2.0000           -0.3581241              -9.7451
       722        2.0000           -0.3538586              -9.6290
       723        2.0000           -0.3508344              -9.5467 (HOMO)
       724                         -0.2967038              -8.0737 (LUMO)
       725                         -0.2957520              -8.0478
       726                         -0.2936040              -7.9894
       727                         -0.2922016              -7.9512
       728                         -0.2877416              -7.8298
       729                         -0.2876992              -7.8287
       730                         -0.2872631              -7.8168
       731                         -0.2854666              -7.7679
       732                         -0.2802806              -7.6268
       733                         -0.2795744              -7.6076
       734                         -0.2791748              -7.5967
       ...                                ...                  ...
      1324                          0.6719108              18.2836
      -------------------------------------------------------------
                  HL-Gap            0.0541306 Eh            1.4730 eV
             Fermi-level           -0.3240963 Eh           -8.8191 eV

   #   Z        covCN         q      C6AA      α(0)
   1   7 N      2.636    -0.390    30.106     8.149
   2   6 C      3.786     0.033    20.027     6.374
   3   6 C      2.766     0.205    23.648     7.964
   4   8 O      0.856    -0.379    21.276     6.184
   5   6 C      3.853    -0.019    20.874     6.498
   6   6 C      3.756    -0.118    22.819     6.811
   7   6 C      3.757    -0.116    22.775     6.804
   8   1 H      0.860     0.162     1.321     1.800
   9   1 H      0.924     0.064     2.150     2.293
  10   1 H      0.924     0.042     2.428     2.437
  11   1 H      0.925     0.053     2.284     2.363
  12   1 H      0.925     0.027     2.625     2.534
  13   1 H      0.925     0.055     2.260     2.351
  14   1 H      0.925     0.050     2.320     2.382
  15   1 H      0.925     0.051     2.304     2.374
  16   1 H      0.925     0.043     2.414     2.430
  17   7 N      2.636    -0.400    30.383     8.186
  18   6 C      3.811     0.042    19.855     6.343
  19   6 C      2.767     0.190    23.931     8.012
  20   8 O      0.856    -0.359    20.877     6.126
  21   6 C      3.802    -0.011    20.769     6.488
  22  16 S      1.922    -0.291   153.638    20.862
  23   1 H      0.860     0.196     1.127     1.663
  24   1 H      0.923     0.056     2.247     2.344
  25   1 H      0.925     0.061     2.188     2.313
  26   1 H      0.925     0.050     2.321     2.382
  27   1 H      0.923     0.194     1.129     1.661
  28   7 N      2.635    -0.394    30.209     8.163
  29   6 C      3.790     0.026    20.142     6.392
  30   6 C      2.755     0.270    22.434     7.756
  31   8 O      0.858    -0.507    23.942     6.560
  32   6 C      3.852    -0.019    20.877     6.499
  33   6 C      3.756    -0.108    22.609     6.779
  34   6 C      3.757    -0.117    22.794     6.807
  35   1 H      0.860     0.157     1.352     1.821
  36   1 H      0.923     0.033     2.543     2.494
  37   1 H      0.924     0.037     2.483     2.464
  38   1 H      0.925     0.047     2.358     2.401
  39   1 H      0.925     0.019     2.756     2.596
  40   1 H      0.925     0.042     2.420     2.433
  41   1 H      0.925     0.055     2.264     2.353
  42   1 H      0.925     0.045     2.385     2.415
  43   1 H      0.925     0.046     2.370     2.408
  44   7 N      2.691    -0.194    25.209     7.457
  45   6 C      3.795     0.023    20.194     6.399
  46   6 C      2.758     0.276    22.333     7.739
  47   8 O      0.859    -0.484    23.429     6.490
  48   6 C      3.758    -0.131    23.065     6.847
  49   1 H      0.860     0.240     0.925     1.506
  50   1 H      0.923     0.064     2.148     2.292
  51   1 H      0.925     0.063     2.165     2.301
  52   1 H      0.925     0.067     2.124     2.279
  53   1 H      0.925     0.071     2.076     2.253
  54   7 N      2.688    -0.175    24.796     7.396
  55   6 C      3.794     0.025    20.166     6.395
  56   6 C      2.767     0.195    23.828     7.994
  57   8 O      0.856    -0.358    20.858     6.123
  58   6 C      3.815    -0.078    21.983     6.673
  59   6 C      2.967     0.013    27.717     8.636
  60   6 C      2.923    -0.043    29.066     8.841
  61   6 C      2.929    -0.042    29.056     8.840
  62   6 C      2.919    -0.034    28.846     8.807
  63   6 C      2.918    -0.032    28.803     8.801
  64   6 C      2.921    -0.035    28.882     8.813
  65   1 H      0.860     0.214     1.039     1.597
  66   1 H      0.923     0.103     1.761     2.075
  67   1 H      0.924     0.075     2.034     2.230
  68   1 H      0.924     0.081     1.965     2.192
  69   1 H      0.926     0.032     2.564     2.504
  70   1 H      0.926     0.043     2.405     2.425
  71   1 H      0.925     0.032     2.562     2.503
  72   1 H      0.926     0.041     2.430     2.438
  73   1 H      0.926     0.039     2.463     2.454
  74   7 N      2.702    -0.290    27.475     7.785
  75   6 C      3.808     0.032    20.037     6.372
  76   6 C      2.763     0.207    23.609     7.957
  77   8 O      0.856    -0.384    21.369     6.198
  78   6 C      3.827    -0.059    21.605     6.614
  79   6 C      3.827    -0.059    21.608     6.614
  80   6 C      3.763     0.016    20.344     6.429
  81   1 H      0.924     0.048     2.348     2.397
  82   1 H      0.925     0.043     2.412     2.429
  83   1 H      0.925     0.056     2.251     2.346
  84   1 H      0.925     0.041     2.434     2.440
  85   1 H      0.925     0.043     2.410     2.428
  86   1 H      0.925     0.034     2.527     2.486
  87   1 H      0.924     0.022     2.708     2.574
  88   7 N      2.632    -0.377    29.748     8.100
  89   6 C      3.731    -0.007    20.791     6.509
  90   6 C      2.762     0.196    23.814     7.992
  91   8 O      0.856    -0.365    20.989     6.142
  92   1 H      0.860     0.167     1.291     1.780
  93   1 H      0.924     0.048     2.342     2.393
  94   1 H      0.924     0.083     1.948     2.183
  95   7 N      2.637    -0.393    30.172     8.158
  96   6 C      3.784     0.021    20.246     6.409
  97   6 C      2.759     0.273    22.386     7.748
  98   8 O      0.858    -0.503    23.855     6.548
  99   6 C      3.678     0.074    19.549     6.333
 100   8 O      1.655    -0.482    22.509     6.405
 101   1 H      0.860     0.159     1.342     1.815
 102   1 H      0.923     0.029     2.600     2.521
 103   1 H      0.924     0.040     2.446     2.446
 104   1 H      0.924     0.051     2.305     2.374
 105   1 H      0.804     0.328     0.644     1.261
 106   7 N      2.689    -0.176    24.817     7.399
 107   6 C      3.798     0.021    20.228     6.404
 108   6 C      2.764     0.199    23.763     7.983
 109   8 O      0.856    -0.368    21.045     6.151
 110   6 C      3.852    -0.018    20.853     6.495
 111   6 C      3.754    -0.124    22.940     6.830
 112   6 C      3.755    -0.120    22.854     6.817
 113   1 H      0.860     0.228     0.975     1.547
 114   1 H      0.923     0.095     1.836     2.119
 115   1 H      0.924     0.060     2.200     2.320
 116   1 H      0.925     0.060     2.202     2.321
 117   1 H      0.925     0.055     2.262     2.352
 118   1 H      0.925     0.045     2.386     2.415
 119   1 H      0.925     0.060     2.204     2.322
 120   1 H      0.925     0.052     2.292     2.368
 121   1 H      0.925     0.042     2.418     2.432
 122   7 N      2.635    -0.389    30.058     8.143
 123   6 C      3.786     0.038    19.942     6.360
 124   6 C      2.765     0.196    23.810     7.991
 125   8 O      0.856    -0.386    21.398     6.202
 126   6 C      3.853    -0.005    20.626     6.459
 127   6 C      3.803    -0.062    21.688     6.630
 128   6 C      3.755    -0.110    22.659     6.787
 129   6 C      3.752    -0.109    22.642     6.786
 130   1 H      0.860     0.166     1.300     1.786
 131   1 H      0.923     0.061     2.189     2.314
 132   1 H      0.924     0.023     2.691     2.565
 133   1 H      0.924     0.053     2.283     2.363
 134   1 H      0.924     0.028     2.621     2.532
 135   1 H      0.925     0.065     2.138     2.287
 136   1 H      0.925     0.028     2.620     2.531
 137   1 H      0.925     0.036     2.498     2.472
 138   1 H      0.925     0.041     2.431     2.438
 139   1 H      0.925     0.040     2.448     2.447
 140   1 H      0.925     0.044     2.394     2.419
 141   7 N      2.635    -0.385    29.971     8.131
 142   6 C      3.788     0.052    19.714     6.324
 143   6 C      2.754     0.268    22.480     7.764
 144   8 O      0.858    -0.529    24.427     6.626
 145   6 C      3.803    -0.087    22.151     6.701
 146   6 C      2.682     0.375    20.653     7.437
 147   8 O      0.856    -0.643    27.198     6.992
 148   8 O      0.856    -0.632    26.915     6.956
 149   1 H      0.860     0.138     1.484     1.908
 150   1 H      0.923     0.009     2.899     2.663
 151   1 H      0.925     0.039     2.464     2.455
 152   1 H      0.924     0.006     2.963     2.692
 153   7 N      2.691    -0.176    24.808     7.397
 154   6 C      3.787     0.036    19.986     6.368
 155   6 C      2.764     0.208    23.597     7.955
 156   8 O      0.856    -0.353    20.770     6.110
 157   6 C      3.759    -0.123    22.913     6.824
 158   1 H      0.860     0.234     0.948     1.525
 159   1 H      0.923     0.088     1.900     2.156
 160   1 H      0.925     0.083     1.950     2.184
 161   1 H      0.925     0.075     2.027     2.226
 162   1 H      0.925     0.070     2.090     2.261
 163   7 N      2.633    -0.386    29.989     8.133
 164   6 C      3.736    -0.009    20.816     6.511
 165   6 C      2.751     0.276    22.331     7.738
 166   8 O      0.858    -0.488    23.527     6.503
 167   1 H      0.860     0.154     1.377     1.838
 168   1 H      0.924     0.060     2.196     2.317
 169   1 H      0.924     0.031     2.568     2.506
 170   7 N      2.693    -0.177    24.829     7.401
 171   6 C      3.798     0.015    20.323     6.419
 172   6 C      2.762     0.275    22.349     7.742
 173   8 O      0.859    -0.491    23.592     6.512
 174   6 C      3.852    -0.015    20.811     6.488
 175   6 C      3.756    -0.130    23.049     6.845
 176   6 C      3.756    -0.119    22.829     6.812
 177   1 H      0.860     0.203     1.089     1.635
 178   1 H      0.924     0.070     2.088     2.260
 179   1 H      0.924     0.044     2.401     2.423
 180   1 H      0.925     0.067     2.124     2.279
 181   1 H      0.925     0.057     2.238     2.340
 182   1 H      0.925     0.046     2.368     2.406
 183   1 H      0.925     0.061     2.190     2.314
 184   1 H      0.925     0.049     2.330     2.387
 185   1 H      0.925     0.037     2.490     2.468
 186   7 N      2.692    -0.170    24.685     7.379
 187   6 C      3.799     0.024    20.165     6.394
 188   6 C      2.767     0.210    23.556     7.949
 189   8 O      0.856    -0.356    20.825     6.118
 190   6 C      3.853    -0.017    20.842     6.493
 191   6 C      3.756    -0.126    22.980     6.835
 192   6 C      3.756    -0.121    22.867     6.818
 193   1 H      0.860     0.207     1.069     1.620
 194   1 H      0.924     0.076     2.018     2.221
 195   1 H      0.924     0.062     2.175     2.306
 196   1 H      0.925     0.063     2.166     2.301
 197   1 H      0.925     0.051     2.310     2.377
 198   1 H      0.925     0.053     2.289     2.366
 199   1 H      0.925     0.057     2.231     2.336
 200   1 H      0.925     0.045     2.378     2.411
 201   1 H      0.925     0.042     2.418     2.432
 202   7 N      2.636    -0.388    30.044     8.141
 203   6 C      3.788     0.030    20.075     6.381
 204   6 C      2.758     0.263    22.571     7.780
 205   8 O      0.859    -0.521    24.245     6.602
 206   6 C      3.813    -0.074    21.905     6.662
 207   6 C      2.970    -0.001    28.038     8.685
 208   6 C      2.926    -0.043    29.064     8.841
 209   6 C      2.925    -0.043    29.061     8.841
 210   6 C      2.918    -0.060    29.486     8.904
 211   6 C      2.917    -0.077    29.915     8.969
 212   6 C      2.846     0.144    24.853     8.170
 213   8 O      1.659    -0.440    21.644     6.280
 214   1 H      0.860     0.166     1.296     1.783
 215   1 H      0.923     0.068     2.111     2.272
 216   1 H      0.924     0.053     2.288     2.365
 217   1 H      0.924     0.055     2.254     2.348
 218   1 H      0.926     0.046     2.370     2.408
 219   1 H      0.926     0.042     2.420     2.433
 220   1 H      0.926     0.048     2.344     2.394
 221   1 H      0.926     0.038     2.475     2.460
 222   1 H      0.805     0.346     0.597     1.213
 223   7 N      2.687    -0.157    24.393     7.335
 224   6 C      3.800     0.015    20.327     6.419
 225   6 C      2.758     0.288    22.122     7.702
 226   8 O      0.859    -0.494    23.642     6.519
 227   6 C      3.813    -0.087    22.155     6.700
 228   6 C      2.972    -0.005    28.148     8.703
 229   6 C      2.924    -0.047    29.158     8.855
 230   6 C      2.925    -0.044    29.081     8.844
 231   6 C      2.918    -0.058    29.453     8.900
 232   6 C      2.918    -0.075    29.884     8.964
 233   6 C      2.846     0.144    24.868     8.173
 234   8 O      1.659    -0.436    21.549     6.267
 235   1 H      0.860     0.242     0.916     1.500
 236   1 H      0.923     0.080     1.974     2.197
 237   1 H      0.924     0.084     1.941     2.179
 238   1 H      0.924     0.066     2.136     2.285
 239   1 H      0.926     0.047     2.362     2.403
 240   1 H      0.926     0.058     2.218     2.329
 241   1 H      0.926     0.036     2.508     2.476
 242   1 H      0.926     0.047     2.359     2.402
 243   1 H      0.805     0.346     0.597     1.214
 244   7 N      2.688    -0.179    24.885     7.409
 245   6 C      3.801     0.020    20.247     6.406
 246   6 C      2.757     0.277    22.308     7.734
 247   8 O      0.858    -0.483    23.419     6.488
 248   6 C      3.812    -0.089    22.182     6.704
 249   6 C      2.969     0.013    27.718     8.636
 250   6 C      2.925    -0.035    28.876     8.812
 251   6 C      2.923    -0.045    29.127     8.851
 252   6 C      2.918    -0.024    28.594     8.769
 253   6 C      2.919    -0.032    28.792     8.799
 254   6 C      2.920    -0.026    28.656     8.778
 255   1 H      0.860     0.217     1.022     1.583
 256   1 H      0.923     0.073     2.058     2.244
 257   1 H      0.924     0.084     1.943     2.180
 258   1 H      0.924     0.084     1.941     2.179
 259   1 H      0.926     0.039     2.468     2.457
 260   1 H      0.926     0.057     2.234     2.338
 261   1 H      0.926     0.022     2.705     2.572
 262   1 H      0.926     0.032     2.563     2.504
 263   1 H      0.926     0.006     2.962     2.692
 264   7 N      2.692    -0.174    24.773     7.392
 265   6 C      3.798     0.014    20.351     6.423
 266   6 C      2.756     0.278    22.297     7.732
 267   8 O      0.858    -0.485    23.462     6.494
 268   6 C      3.811    -0.086    22.127     6.696
 269   6 C      3.849    -0.012    20.749     6.479
 270   6 C      3.755    -0.117    22.795     6.808
 271   6 C      3.757    -0.117    22.797     6.807
 272   1 H      0.860     0.219     1.013     1.577
 273   1 H      0.924     0.084     1.936     2.176
 274   1 H      0.924     0.076     2.021     2.223
 275   1 H      0.924     0.061     2.183     2.310
 276   1 H      0.924     0.032     2.565     2.505
 277   1 H      0.925     0.045     2.387     2.416
 278   1 H      0.925     0.030     2.592     2.518
 279   1 H      0.925     0.052     2.296     2.369
 280   1 H      0.925     0.046     2.376     2.411
 281   1 H      0.925     0.050     2.318     2.381
 282   1 H      0.925     0.040     2.449     2.447
 283   7 N      2.692    -0.191    25.136     7.446
 284   6 C      3.797     0.010    20.421     6.434
 285   6 C      2.758     0.276    22.336     7.739
 286   8 O      0.858    -0.483    23.405     6.486
 287   6 C      3.726     0.113    18.826     6.195
 288   8 O      1.656    -0.459    22.035     6.337
 289   6 C      3.754    -0.128    23.008     6.840
 290   1 H      0.860     0.232     0.956     1.532
 291   1 H      0.923     0.077     2.008     2.216
 292   1 H      0.923     0.031     2.572     2.508
 293   1 H      0.804     0.317     0.673     1.289
 294   1 H      0.925     0.073     2.056     2.242
 295   1 H      0.925     0.045     2.389     2.417
 296   1 H      0.925     0.072     2.067     2.248
 297   7 N      2.691    -0.189    25.101     7.441
 298   6 C      3.797     0.019    20.254     6.408
 299   6 C      2.757     0.274    22.371     7.745
 300   8 O      0.859    -0.504    23.878     6.552
 301   6 C      3.677     0.078    19.494     6.325
 302   8 O      1.657    -0.463    22.108     6.347
 303   1 H      0.860     0.227     0.979     1.550
 304   1 H      0.923     0.090     1.879     2.144
 305   1 H      0.923     0.052     2.300     2.372
 306   1 H      0.924     0.039     2.456     2.451
 307   1 H      0.805     0.329     0.640     1.257
 308   7 N      2.692    -0.180    24.909     7.412
 309   6 C      3.797     0.027    20.123     6.387
 310   6 C      2.761     0.275    22.345     7.741
 311   8 O      0.858    -0.503    23.841     6.546
 312   6 C      3.756    -0.131    23.070     6.848
 313   1 H      0.860     0.241     0.921     1.503
 314   1 H      0.923     0.068     2.111     2.272
 315   1 H      0.925     0.070     2.082     2.256
 316   1 H      0.925     0.078     2.000     2.212
 317   1 H      0.925     0.072     2.067     2.248
 318   7 N      2.689    -0.184    24.991     7.425
 319   6 C      3.801     0.030    20.077     6.379
 320   6 C      2.762     0.276    22.335     7.739
 321   8 O      0.859    -0.502    23.828     6.545
 322   6 C      3.813    -0.077    21.952     6.669
 323   6 C      2.968     0.012    27.736     8.638
 324   6 C      2.924    -0.042    29.038     8.837
 325   6 C      2.926    -0.035    28.867     8.811
 326   6 C      2.919    -0.033    28.815     8.803
 327   6 C      2.919    -0.031    28.777     8.797
 328   6 C      2.920    -0.034    28.854     8.809
 329   1 H      0.860     0.238     0.931     1.511
 330   1 H      0.923     0.069     2.093     2.263
 331   1 H      0.924     0.073     2.056     2.242
 332   1 H      0.924     0.058     2.225     2.333
 333   1 H      0.926     0.024     2.667     2.554
 334   1 H      0.926     0.036     2.508     2.477
 335   1 H      0.926     0.038     2.477     2.461
 336   1 H      0.926     0.052     2.296     2.369
 337   1 H      0.926     0.045     2.382     2.414
 338   7 N      2.692    -0.192    25.168     7.451
 339   6 C      3.800     0.027    20.129     6.388
 340   6 C      2.754     0.284    22.184     7.713
 341   8 O      0.858    -0.496    23.693     6.526
 342   6 C      3.811    -0.080    22.011     6.678
 343   6 C      3.849    -0.010    20.723     6.475
 344   6 C      3.756    -0.118    22.805     6.809
 345   6 C      3.757    -0.120    22.854     6.816
 346   1 H      0.860     0.233     0.951     1.528
 347   1 H      0.923     0.064     2.154     2.295
 348   1 H      0.924     0.065     2.143     2.289
 349   1 H      0.924     0.055     2.253     2.347
 350   1 H      0.924     0.027     2.625     2.534
 351   1 H      0.925     0.047     2.359     2.402
 352   1 H      0.925     0.035     2.510     2.478
 353   1 H      0.925     0.050     2.318     2.381
 354   1 H      0.925     0.049     2.335     2.389
 355   1 H      0.925     0.049     2.332     2.388
 356   1 H      0.925     0.039     2.464     2.455
 357   7 N      2.691    -0.195    25.230     7.460
 358   6 C      3.795     0.014    20.340     6.422
 359   6 C      2.758     0.275    22.350     7.742
 360   8 O      0.859    -0.497    23.716     6.529
 361   6 C      3.727     0.110    18.875     6.203
 362   8 O      1.655    -0.460    22.056     6.340
 363   6 C      3.754    -0.122    22.899     6.823
 364   1 H      0.860     0.224     0.993     1.561
 365   1 H      0.923     0.071     2.078     2.254
 366   1 H      0.923     0.043     2.407     2.426
 367   1 H      0.804     0.328     0.644     1.260
 368   1 H      0.925     0.076     2.023     2.224
 369   1 H      0.925     0.051     2.302     2.373
 370   1 H      0.925     0.055     2.258     2.350
 371   7 N      2.691    -0.178    24.855     7.404
 372   6 C      3.801     0.032    20.037     6.373
 373   6 C      2.760     0.281    22.249     7.724
 374   8 O      0.858    -0.498    23.735     6.532
 375   6 C      3.760    -0.128    22.997     6.837
 376   1 H      0.860     0.227     0.979     1.550
 377   1 H      0.924     0.078     2.001     2.212
 378   1 H      0.925     0.058     2.223     2.331
 379   1 H      0.925     0.087     1.910     2.161
 380   1 H      0.925     0.060     2.198     2.319
 381   7 N      2.694    -0.192    25.168     7.451
 382   6 C      3.797     0.032    20.033     6.373
 383   6 C      2.757     0.278    22.297     7.732
 384   8 O      0.858    -0.505    23.892     6.553
 385   6 C      3.757    -0.128    23.017     6.840
 386   1 H      0.860     0.228     0.975     1.547
 387   1 H      0.923     0.058     2.218     2.329
 388   1 H      0.925     0.063     2.160     2.298
 389   1 H      0.925     0.074     2.038     2.232
 390   1 H      0.925     0.067     2.120     2.277
 391   7 N      2.692    -0.185    25.019     7.429
 392   6 C      3.798     0.027    20.120     6.387
 393   6 C      2.760     0.287    22.140     7.705
 394   8 O      0.859    -0.516    24.150     6.589
 395   6 C      3.853    -0.023    20.947     6.510
 396   6 C      3.802    -0.066    21.773     6.643
 397   6 C      3.754    -0.112    22.697     6.793
 398   6 C      3.751    -0.111    22.695     6.794
 399   1 H      0.860     0.219     1.013     1.577
 400   1 H      0.923     0.060     2.205     2.322
 401   1 H      0.924     0.051     2.313     2.378
 402   1 H      0.925     0.049     2.334     2.389
 403   1 H      0.924     0.047     2.360     2.402
 404   1 H      0.925     0.059     2.215     2.327
 405   1 H      0.925     0.029     2.600     2.522
 406   1 H      0.925     0.049     2.336     2.390
 407   1 H      0.925     0.047     2.354     2.399
 408   1 H      0.925     0.046     2.367     2.406
 409   1 H      0.925     0.030     2.591     2.517
 410   7 N      2.692    -0.191    25.146     7.448
 411   6 C      3.805     0.029    20.091     6.381
 412   6 C      2.758     0.286    22.159     7.709
 413   8 O      0.858    -0.514    24.100     6.582
 414   6 C      3.852    -0.025    20.983     6.515
 415   6 C      3.804    -0.064    21.725     6.636
 416   6 C      3.756    -0.113    22.718     6.796
 417   6 C      3.751    -0.109    22.642     6.786
 418   1 H      0.860     0.221     1.005     1.571
 419   1 H      0.923     0.055     2.262     2.352
 420   1 H      0.924     0.052     2.291     2.367
 421   1 H      0.924     0.035     2.519     2.482
 422   1 H      0.924     0.044     2.402     2.424
 423   1 H      0.925     0.060     2.202     2.320
 424   1 H      0.925     0.030     2.592     2.518
 425   1 H      0.925     0.050     2.314     2.379
 426   1 H      0.925     0.038     2.471     2.458
 427   1 H      0.925     0.048     2.344     2.394
 428   1 H      0.925     0.048     2.347     2.395
 429   7 N      2.692    -0.178    24.853     7.404
 430   6 C      3.794     0.037    19.953     6.361
 431   6 C      2.766     0.213    23.497     7.939
 432   8 O      0.856    -0.369    21.067     6.154
 433   6 C      3.811    -0.073    21.878     6.658
 434   6 C      3.849    -0.011    20.733     6.477
 435   6 C      3.758    -0.113    22.713     6.795
 436   6 C      3.756    -0.119    22.829     6.813
 437   1 H      0.860     0.225     0.988     1.557
 438   1 H      0.924     0.077     2.009     2.217
 439   1 H      0.924     0.059     2.215     2.327
 440   1 H      0.924     0.060     2.200     2.320
 441   1 H      0.924     0.041     2.432     2.439
 442   1 H      0.925     0.051     2.302     2.373
 443   1 H      0.925     0.029     2.595     2.519
 444   1 H      0.925     0.049     2.330     2.387
 445   1 H      0.925     0.053     2.286     2.364
 446   1 H      0.925     0.049     2.333     2.389
 447   1 H      0.925     0.033     2.538     2.492
 448   7 N      2.635    -0.388    30.028     8.138
 449   6 C      3.785     0.046    19.824     6.342
 450   6 C      2.765     0.192    23.895     8.005
 451   8 O      0.856    -0.369    21.064     6.153
 452   6 C      3.811    -0.071    21.850     6.654
 453   6 C      2.972     0.004    27.920     8.667
 454   6 C      2.926    -0.042    29.032     8.836
 455   6 C      2.925    -0.043    29.067     8.841
 456   6 C      2.918    -0.059    29.478     8.903
 457   6 C      2.918    -0.076    29.889     8.965
 458   6 C      2.848     0.144    24.862     8.172
 459   8 O      1.659    -0.440    21.640     6.280
 460   1 H      0.860     0.169     1.281     1.773
 461   1 H      0.923     0.034     2.535     2.490
 462   1 H      0.924     0.065     2.138     2.287
[...]
   210  C   3.988        C  208 1.465    C  212 1.359    H  220 0.968    C  209 0.106
   211  C   3.987        C  209 1.445    C  212 1.374    H  221 0.966    C  208 0.105
   212  C   3.935        C  211 1.374    C  210 1.359    O  213 1.072
   213  O   2.090        C  212 1.072    H  222 0.859
   214  H   0.972        N  202 0.949
   215  H   0.995        C  203 0.944
   216  H   0.997        C  206 0.970
   217  H   0.996        C  206 0.967
   218  H   0.998        C  208 0.966
   219  H   0.998        C  209 0.965
   220  H   0.997        C  210 0.968
   221  H   0.998        C  211 0.966
   222  H   0.880        O  213 0.859
   223  N   3.496        C  204 1.350    C  224 0.979    H  235 0.904    O  205 0.182
   224  C   3.965        N  223 0.979    C  227 0.965    H  236 0.949    C  225 0.940
   225  C   3.945        O  226 1.615    N  244 1.290    C  224 0.940
   226  O   1.968        C  225 1.615    N  244 0.184
   227  C   3.986        C  228 1.007    C  224 0.965    H  238 0.963    H  237 0.963
   228  C   3.987        C  230 1.406    C  229 1.406    C  227 1.007
   229  C   3.989        C  231 1.455    C  228 1.406    H  239 0.965    C  232 0.104
   230  C   3.989        C  232 1.456    C  228 1.406    H  240 0.967    C  231 0.107
   231  C   3.989        C  229 1.455    C  233 1.365    H  241 0.967    C  230 0.107
   232  C   3.986        C  230 1.456    C  233 1.367    H  242 0.965    C  229 0.104
   233  C   3.935        C  232 1.367    C  231 1.365    O  234 1.073
   234  O   2.099        C  233 1.073    H  243 0.859
   235  H   0.941        N  223 0.904
   236  H   0.993        C  224 0.949
   237  H   0.992        C  227 0.963
   238  H   0.995        C  227 0.963
   239  H   0.998        C  229 0.965
   240  H   0.997        C  230 0.967
   241  H   0.998        C  231 0.967
   242  H   0.997        C  232 0.965
   243  H   0.880        O  234 0.859
   244  N   3.454        C  225 1.290    C  245 0.976    H  255 0.918    O  226 0.184
   245  C   3.965        N  244 0.976    C  248 0.969    H  256 0.949    C  246 0.937
   246  C   3.948        O  247 1.617    N  264 1.306    C  245 0.937
   247  O   1.978        C  246 1.617    N  264 0.194
   248  C   3.983        C  249 1.008    C  245 0.969    H  257 0.966    H  258 0.954
   249  C   3.988        C  251 1.419    C  250 1.403    C  248 1.008    C  254 0.110
   250  C   3.991        C  252 1.452    C  249 1.403    H  259 0.967    C  253 0.112
   251  C   3.987        C  253 1.435    C  249 1.419    H  260 0.964    C  252 0.109
   252  C   3.992        C  250 1.452    C  254 1.430    H  261 0.964    C  251 0.109
   253  C   3.990        C  254 1.444    C  251 1.435    H  262 0.966    C  250 0.112
   254  C   3.991        C  253 1.444    C  252 1.430    H  263 0.972    C  249 0.110
   255  H   0.953        N  244 0.918
   256  H   0.994        C  245 0.949
   257  H   0.993        C  248 0.966
   258  H   0.992        C  248 0.954
   259  H   0.998        C  250 0.967
   260  H   0.997        C  251 0.964
   261  H   0.999        C  252 0.964
   262  H   0.999        C  253 0.966
   263  H   0.999        C  254 0.972
   264  N   3.468        C  246 1.306    C  265 0.974    H  272 0.911    O  247 0.194
   265  C   3.959        C  268 0.980    N  264 0.974    H  273 0.949    C  266 0.934
   266  C   3.944        O  267 1.615    N  283 1.308    C  265 0.934
   267  O   1.978        C  266 1.615    N  283 0.195
   268  C   3.983        C  269 0.994    C  265 0.980    H  275 0.969    H  274 0.968
   269  C   3.993        C  270 1.009    C  271 1.008    C  268 0.994    H  276 0.964
   270  C   3.995        C  269 1.009    H  279 0.985    H  277 0.984    H  278 0.983
   271  C   3.994        C  269 1.008    H  281 0.986    H  282 0.984    H  280 0.984
   272  H   0.952        N  264 0.911
   273  H   0.992        C  265 0.949
   274  H   0.994        C  268 0.968
   275  H   0.996        C  268 0.969
   276  H   0.999        C  269 0.964
   277  H   0.998        C  270 0.984
   278  H   0.999        C  270 0.983
   279  H   0.997        C  270 0.985
   280  H   0.998        C  271 0.984
   281  H   0.997        C  271 0.986
   282  H   0.998        C  271 0.984
   283  N   3.465        C  266 1.308    C  284 0.983    H  290 0.881    O  267 0.195
   284  C   3.965        N  283 0.983    H  291 0.950    C  287 0.945    C  285 0.942
   285  C   3.946        O  286 1.605    N  297 1.308    C  284 0.942
   286  O   1.971        C  285 1.605    N  297 0.192
   287  C   3.958        C  289 1.005    O  288 1.004    H  292 0.956    C  284 0.945
   288  O   1.959        C  287 1.004    H  293 0.853
   289  C   3.988        C  287 1.005    H  295 0.984    H  294 0.980    H  296 0.980
   290  H   0.946        N  283 0.881
   291  H   0.994        C  284 0.950
   292  H   0.999        C  287 0.956
   293  H   0.900        O  288 0.853
   294  H   0.994        C  289 0.980
   295  H   0.998        C  289 0.984
   296  H   0.995        C  289 0.980
   297  N   3.472        C  285 1.308    C  298 0.987    H  303 0.889    O  286 0.192
   298  C   3.966        N  297 0.987    C  301 0.973    H  304 0.944    C  299 0.936
   299  C   3.951        O  300 1.577    N  308 1.346    C  298 0.936
   300  O   1.950        C  299 1.577    N  308 0.196
   301  C   3.958        O  302 1.009    C  298 0.973    H  306 0.967    H  305 0.960
   302  O   1.939        C  301 1.009    H  307 0.868
   303  H   0.948        N  297 0.889
   304  H   0.991        C  298 0.944
   305  H   0.997        C  301 0.960
   306  H   0.998        C  301 0.967
   307  H   0.891        O  302 0.868
   308  N   3.490        C  299 1.346    C  309 0.974    H  313 0.874    O  300 0.196
   309  C   3.963        C  312 0.997    N  308 0.974    H  314 0.952    C  310 0.934
   310  C   3.947        O  311 1.597    N  318 1.330    C  309 0.934
   311  O   1.955        C  310 1.597    N  318 0.197
   312  C   3.982        C  309 0.997    H  317 0.978    H  316 0.978    H  315 0.976
   313  H   0.942        N  308 0.874
   314  H   0.995        C  309 0.952
   315  H   0.994        C  312 0.976
   316  H   0.994        C  312 0.978
   317  H   0.995        C  312 0.978
   318  N   3.480        C  310 1.330    C  319 0.979    H  329 0.881    O  311 0.197
   319  C   3.965        N  318 0.979    C  322 0.974    H  330 0.947    C  320 0.934
   320  C   3.945        O  321 1.596    N  338 1.326    C  319 0.934
   321  O   1.960        C  320 1.596    N  338 0.195
   322  C   3.985        C  323 1.006    C  319 0.974    H  331 0.964    H  332 0.955
   323  C   3.987        C  325 1.416    C  324 1.410    C  322 1.006    C  328 0.110
   324  C   3.992        C  326 1.448    C  323 1.410    H  333 0.966    C  327 0.112
   325  C   3.990        C  327 1.440    C  323 1.416    H  334 0.966    C  326 0.110
   326  C   3.992        C  324 1.448    C  328 1.435    H  335 0.971    C  325 0.110
   327  C   3.990        C  328 1.441    C  325 1.440    H  336 0.967    C  324 0.112
   328  C   3.991        C  327 1.441    C  326 1.435    H  337 0.970    C  323 0.110
   329  H   0.943        N  318 0.881
   330  H   0.995        C  319 0.947
   331  H   0.994        C  322 0.964
   332  H   0.996        C  322 0.955
   333  H   0.999        C  324 0.966
   334  H   0.999        C  325 0.966
   335  H   0.998        C  326 0.971
   336  H   0.997        C  327 0.967
   337  H   0.997        C  328 0.970
   338  N   3.473        C  320 1.326    C  339 0.976    H  346 0.877    O  321 0.195
   339  C   3.964        C  342 0.980    N  338 0.976    H  347 0.949    C  340 0.937
   340  C   3.945        O  341 1.615    N  357 1.305    C  339 0.937
   341  O   1.957        C  340 1.615    N  357 0.191
   342  C   3.985        C  343 0.993    C  339 0.980    H  349 0.969    H  348 0.963
   343  C   3.994        C  344 1.010    C  345 1.008    C  342 0.993    H  350 0.969
   344  C   3.995        C  343 1.010    H  351 0.985    H  353 0.985    H  352 0.983
   345  C   3.994        C  343 1.008    H  356 0.986    H  355 0.986    H  354 0.985
   346  H   0.945        N  338 0.877
   347  H   0.995        C  339 0.949
   348  H   0.995        C  342 0.963
   349  H   0.997        C  342 0.969
   350  H   0.999        C  343 0.969
   351  H   0.998        C  344 0.985
   352  H   0.999        C  344 0.983
   353  H   0.997        C  344 0.985
   354  H   0.997        C  345 0.985
   355  H   0.998        C  345 0.986
   356  H   0.998        C  345 0.986
   357  N   3.463        C  340 1.305    C  358 0.981    H  364 0.884    O  341 0.191
   358  C   3.964        N  357 0.981    C  361 0.956    H  365 0.952    C  359 0.935
   359  C   3.950        O  360 1.593    N  371 1.334    C  358 0.935
   360  O   1.957        C  359 1.593    N  371 0.198
   361  C   3.955        C  363 1.005    O  362 0.992    C  358 0.956    H  366 0.952
   362  O   1.976        C  361 0.992    H  367 0.861
   363  C   3.989        C  361 1.005    H  369 0.981    H  370 0.978    H  368 0.974
   364  H   0.950        N  357 0.884
   365  H   0.994        C  358 0.952
   366  H   0.998        C  361 0.952
   367  H   0.893        O  362 0.861
   368  H   0.994        C  363 0.974
   369  H   0.997        C  363 0.981
   370  H   0.997        C  363 0.978
   371  N   3.490        C  359 1.334    C  372 0.974    H  376 0.892    O  360 0.198
   372  C   3.961        C  375 0.992    N  371 0.974    H  377 0.947    C  373 0.938
   373  C   3.946        O  374 1.605    N  381 1.314    C  372 0.938
   374  O   1.953        C  373 1.605    N  381 0.192
   375  C   3.982        C  372 0.992    H  378 0.981    H  380 0.979    H  379 0.968
   376  H   0.948        N  371 0.892
   377  H   0.993        C  372 0.947
   378  H   0.996        C  375 0.981
   379  H   0.992        C  375 0.968
   380  H   0.996        C  375 0.979
   381  N   3.470        C  373 1.314    C  382 0.980    H  386 0.887    O  374 0.192
   382  C   3.969        C  385 0.995    N  381 0.980    H  387 0.951    C  383 0.933
   383  C   3.947        O  384 1.626    N  391 1.310    C  382 0.933
   384  O   1.943        C  383 1.626    N  391 0.199
   385  C   3.985        C  382 0.995    H  388 0.983    H  390 0.979    H  389 0.979
   386  H   0.948        N  381 0.887
   387  H   0.996        C  382 0.951
   388  H   0.995        C  385 0.983
   389  H   0.994        C  385 0.979
   390  H   0.995        C  385 0.979
   391  N   3.472        C  383 1.310    C  392 0.978    H  399 0.898    O  384 0.199
   392  C   3.963        N  391 0.978    C  395 0.964    H  400 0.948    C  393 0.938
   393  C   3.945        O  394 1.617    N  410 1.310    C  392 0.938
   394  O   1.930        C  393 1.617    N  410 0.194
   395  C   3.986        C  397 1.008    C  396 0.993    C  392 0.964    H  401 0.959
   396  C   3.994        C  398 1.021    C  395 0.993    H  403 0.975    H  402 0.970
   397  C   3.994        C  395 1.008    H  405 0.985    H  406 0.985    H  404 0.984
   398  C   3.995        C  396 1.021    H  408 0.986    H  407 0.986    H  409 0.983
   399  H   0.952        N  391 0.898
   400  H   0.996        C  392 0.948
   401  H   0.997        C  395 0.959
   402  H   0.998        C  396 0.970
   403  H   0.997        C  396 0.975
   404  H   0.996        C  397 0.984
   405  H   0.999        C  397 0.985
   406  H   0.998        C  397 0.985
   407  H   0.998        C  398 0.986
   408  H   0.998        C  398 0.986
   409  H   0.999        C  398 0.983
   410  N   3.465        C  393 1.310    C  411 0.975    H  418 0.894    O  394 0.194
   411  C   3.962        N  410 0.975    C  414 0.966    H  419 0.954    C  412 0.935
   412  C   3.945        O  413 1.614    N  429 1.317    C  411 0.935
   413  O   1.930        C  412 1.614    N  429 0.195
   414  C   3.985        C  416 1.008    C  415 0.994    C  411 0.966    H  420 0.959
   415  C   3.994        C  417 1.018    C  414 0.994    H  421 0.975    H  422 0.968
   416  C   3.993        C  414 1.008    H  425 0.985    H  424 0.983    H  423 0.983
   417  C   3.993        C  415 1.018    H  428 0.985    H  426 0.982    H  427 0.980
   418  H   0.951        N  410 0.894
   419  H   0.997        C  411 0.954
   420  H   0.997        C  414 0.959
   421  H   0.999        C  415 0.975
   422  H   0.998        C  415 0.968
   423  H   0.996        C  416 0.983
   424  H   0.999        C  416 0.983
   425  H   0.997        C  416 0.985
   426  H   0.998        C  417 0.982
   427  H   0.998        C  417 0.980
   428  H   0.998        C  417 0.985
   429  N   3.476        C  412 1.317    C  430 0.975    H  437 0.893    O  413 0.195
   430  C   3.964        N  429 0.975    C  431 0.973    C  433 0.969    H  438 0.946
   431  C   3.897        O  432 1.894    C  430 0.973    H  539 0.956
   432  O   2.032        C  431 1.894
   433  C   3.982        C  434 0.989    H  440 0.970    C  430 0.969    H  439 0.968
   434  C   3.993        C  436 1.010    C  435 1.006    C  433 0.989    H  441 0.965
   435  C   3.994        C  434 1.006    H  444 0.986    H  443 0.985    H  442 0.984
   436  C   3.994        C  434 1.010    H  446 0.985    H  445 0.983    H  447 0.983
   437  H   0.949        N  429 0.893
   438  H   0.994        C  430 0.946
   439  H   0.997        C  433 0.968
   440  H   0.996        C  433 0.970
   441  H   0.998        C  434 0.965
   442  H   0.996        C  435 0.984
   443  H   0.999        C  435 0.985
   444  H   0.998        C  435 0.986
   445  H   0.997        C  436 0.983
   446  H   0.998        C  436 0.985
   447  H   0.999        C  436 0.983
   448  N   2.993        C  449 1.015    H  540 0.959    H  460 0.941
   449  C   3.985        N  448 1.015    C  450 0.984    H  461 0.950    C  452 0.943
   450  C   3.887        O  451 1.869    C  449 0.984    H  541 0.952
   451  O   2.056        C  450 1.869
   452  C   3.988        C  453 1.007    H  462 0.973    H  463 0.968    C  449 0.943
   453  C   3.988        C  455 1.406    C  454 1.397    C  452 1.007
   454  C   3.991        C  456 1.466    C  453 1.397    H  464 0.966    C  457 0.105
   455  C   3.989        C  457 1.445    C  453 1.406    H  465 0.967    C  456 0.105
   456  C   3.988        C  454 1.466    C  458 1.360    H  466 0.968    C  455 0.105
   457  C   3.986        C  455 1.445    C  458 1.376    H  467 0.965    C  454 0.105
   458  C   3.936        C  457 1.376    C  456 1.360    O  459 1.070
   459  O   2.085        C  458 1.070    H  468 0.858
   460  H   0.972        N  448 0.941
   461  H   0.999        C  449 0.950
   462  H   0.995        C  452 0.973
   463  H   0.996        C  452 0.968
   464  H   0.998        C  454 0.966
   465  H   0.997        C  455 0.967
   466  H   0.997        C  456 0.968
   467  H   0.998        C  457 0.965
   468  H   0.878        O  459 0.858
   469  N   2.996        C  470 1.016    H  475 0.954    H  542 0.953
   470  C   3.982        N  469 1.016    C  473 0.976    H  476 0.967    C  471 0.927
   471  C   3.942        O  472 1.653    N  480 1.294    C  470 0.927
   472  O   1.957        C  471 1.653    N  480 0.195
   473  C   3.958        O  474 1.000    C  470 0.976    H  477 0.968    H  478 0.963
   474  O   1.918        C  473 1.000    H  479 0.862
   475  H   0.975        N  469 0.954
   476  H   0.997        C  470 0.967
   477  H   0.999        C  473 0.968
   478  H   0.999        C  473 0.963
   479  H   0.875        O  474 0.862
   480  N   3.457        C  471 1.294    C  481 0.980    H  488 0.885    O  472 0.195
   481  C   3.966        N  480 0.980    C  482 0.973    C  484 0.963    H  489 0.950
   482  C   3.891        O  483 1.881    C  481 0.973    H  543 0.953
   483  O   2.049        C  482 1.881
   484  C   3.983        C  485 0.994    H  491 0.970    H  490 0.969    C  481 0.963
   485  C   3.994        C  486 1.010    C  487 1.008    C  484 0.994    H  492 0.966
   486  C   3.995        C  485 1.010    H  495 0.985    H  493 0.984    H  494 0.984
   487  C   3.994        C  485 1.008    H  496 0.985    H  498 0.985    H  497 0.983
   488  H   0.947        N  480 0.885
   489  H   0.993        C  481 0.950
   490  H   0.995        C  484 0.969
   491  H   0.995        C  484 0.970
   492  H   0.999        C  485 0.966
   493  H   0.999        C  486 0.984
   494  H   0.999        C  486 0.984
   495  H   0.998        C  486 0.985
   496  H   0.998        C  487 0.985
   497  H   0.998        C  487 0.983
   498  H   0.998        C  487 0.985
   499  N   2.998        C  500 1.016    H  544 0.958    H  511 0.922
   500  C   3.984        N  499 1.016    C  501 0.973    H  512 0.961    C  503 0.951
   501  C   3.887        O  502 1.885    C  500 0.973    H  545 0.953
   502  O   2.023        C  501 1.885
   503  C   3.991        C  504 1.012    H  513 0.963    H  514 0.961    C  500 0.951
   504  C   3.988        C  506 1.417    C  505 1.395    C  503 1.012
   505  C   3.992        C  507 1.468    C  504 1.395    H  515 0.968    C  508 0.106
   506  C   3.989        C  508 1.441    C  504 1.417    H  516 0.967    C  507 0.106
   507  C   3.989        C  505 1.468    C  509 1.359    H  517 0.969    C  506 0.106
   508  C   3.986        C  506 1.441    C  509 1.379    H  518 0.965    C  505 0.106
   509  C   3.937        C  508 1.379    C  507 1.359    O  510 1.068
   510  O   2.093        C  509 1.068    H  519 0.868
   511  H   0.964        N  499 0.922
   512  H   0.998        C  500 0.961
   513  H   0.995        C  503 0.963
   514  H   0.996        C  503 0.961
   515  H   0.998        C  505 0.968
   516  H   0.998        C  506 0.967
   517  H   0.998        C  507 0.969
   518  H   0.998        C  508 0.965
   519  H   0.889        O  510 0.868
   520  H   0.964        N    1 0.951
   521  H   0.995        C    3 0.956
   522  H   0.966        N   17 0.953
   523  H   0.993        C   19 0.952
   524  H   0.966        N   28 0.956
   525  H   0.994        C   56 0.951
   526  H   0.967        N   74 0.951
   527  H   0.995        C   76 0.954
   528  H   0.969        N   88 0.958
   529  H   0.992        C   90 0.952
   530  H   0.965        N   95 0.954
   531  H   0.994        C  108 0.953
   532  H   0.973        N  122 0.960
   533  H   0.994        C  124 0.953
   534  H   0.967        N  141 0.957
   535  H   0.996        C  155 0.955
   536  H   0.964        N  163 0.952
   537  H   0.994        C  188 0.953
   538  H   0.965        N  202 0.953
   539  H   0.996        C  431 0.956
   540  H   0.970        N  448 0.959
   541  H   0.993        C  450 0.952
   542  H   0.963        N  469 0.953
   543  H   0.994        C  482 0.953
   544  H   0.970        N  499 0.958
   545  H   0.994        C  501 0.953
 
molecular dipole:
                 x           y           z       tot (Debye)
 q only:      -52.756     -75.085     -56.804
   full:      -53.428     -70.145     -54.131     262.988
molecular quadrupole (traceless):
                xx          xy          yy          xz          yz          zz
 q only:     1881.037   -6077.140   -4166.488   -4093.275   -6158.772    2285.452
  q+dip:     1174.453   -5702.060   -3555.753   -3918.917   -5225.398    2381.300
   full:     1182.322   -5700.493   -3559.741   -3920.541   -5229.640    2377.420


           -------------------------------------------------
          | TOTAL ENERGY             -813.559284028745 Eh   |
          | GRADIENT NORM               0.800512725361 Eh/α |
          | HOMO-LUMO GAP               1.472968384219 eV   |
           -------------------------------------------------

------------------------------------------------------------------------
 * finished run on 2019/05/31 at 07:36:44.835     
------------------------------------------------------------------------
 total:
 * wall-time:     0 d,  0 h,  0 min, 30.093 sec
 *  cpu-time:     0 d,  0 h,  0 min, 15.023 sec
 * ratio c/w:     0.499 speedup
 SCF:
 * wall-time:     0 d,  0 h,  0 min, 28.513 sec
 *  cpu-time:     0 d,  0 h,  0 min, 14.377 sec
 * ratio c/w:     0.504 speedup

