      -----------------------------------------------------------      
     |                   =====================                   |     
     |                           x T B                           |     
     |                   =====================                   |     
     |                         S. Grimme                         |     
     |          Mulliken Center for Theoretical Chemistry        |     
     |                    University of Bonn                     |     
     |                 Version 6.0.1 (SAW181210)                 |     
      -----------------------------------------------------------      

   This program is distributed in the hope that it will be useful,
   but WITHOUT ANY WARRANTY; without even the implied warranty of
   MERCHANTABILITY or FITNESS FOR A PARTICULAR PURPOSE.
   
   FOR NON-COMMERCIAL, ACADEMIA USE ONLY.
   
   Cite this work as:
   S. Grimme, C. Bannwarth, P. Shushkov, J. Comput. Theory Chem., 2017,
   13, 1989-2009.
   C. Bannwarth, S. Ehlert and S. Grimme., ChemRxiv, 2018, preprint.
   http://doi.org/10.26434/chemrxiv.7246238.v1
   
   for sTDA-xTB:
   S. Grimme and C. Bannwarth, J. Chem. Phys., 2016, 145, 054103.
   
   in the mass-spec context:
   V. Asgeirsson, C. Bauer and S. Grimme, Chem. Sci., 2017, 8, 4879.
   
   if GBSA is used:
   P. Shushkov, F. März and S. Grimme, unpublished.
   
   for ANC optimizer:
   S. Grimme, unpublished.
   Rational Function algorithm used in ANCopt:
   F. Eckert, P. Pulay, H.-J. Werner, J. Comput. Chem., 1997, 18, 1473.
   
   with help from (in alphabetical order)
   C. Bannwarth, F. Bohle, G. Brandenburg, E. Caldeweyher, M. Checinski,
   S. Dohm, S. Ehlert, S. Ehrlich, F. März, H. Neugebauer, J. Pisarek,
   P. Pracht, P. Shushkov, and S. Spicher.
   
 * started run on 2019/03/07 at 11:37:45.449     
========================================================================
 # omp threads = 1
========================================================================
number of atoms            : 257
number of electrons        : 666
charge                     : 2
spin                       : .0
first test random number   : .6948
           ------------------------------------------------- 
          |                 G F N 2 - x T B                 |
          | Geometry, Frequencies, Noncovalent interactions |
          |            JCTC 2018 parametrisation            |
           ------------------------------------------------- 
 
      method parameters     
 k(s)        :  1.8500
 k(p)        :  2.2300
 k(d)        :  2.2300
 k(f)        :  2.0000
 kEN (H0ij)  : -2.0000
 D4 a1       :  0.5200
 D4 a2       :  5.0000
 D4 s6       :  1.0000
 D4 s8       :  2.7000
 D4 s9       :  5.0000
 alphaj      :  2.0000

 Solvent             : h2o
 Using internal parameter file: .param_gbsa2_h2o
 Gsolv ref. state (COSMO-RS): gsolv [1 M gas/solution]
 temperature (mdtemp)       :    298.150000000000     
 dielectric constant        :    80.2000000000000     
 rho                        :    1.00000000000000     
 mass                       :    18.0000000000000     
 surface tension            :    15.5689454083859     
 probe radius               :   0.975313790000000     
 vdW radii scaling          :    1.00000000000000     
 Gshift (Eh)                :   1.857443126794793E-003
 c1                         :    1.55243817000000     
 soset                      :   0.130326360000000     
 HB correction              :  T

            Z     q(EN)     CN     RAES       Cart. coordinates
     1  N   5.0   -0.23    3.21    1.96   373.15284   122.15755   201.13676
     2  C   4.0    0.03    4.25    4.11   370.68486   121.58875   202.27249
     3  C   4.0    0.09    3.20    3.04   370.73778   119.78028   204.51748
     4  O   6.0   -0.30    1.19    1.80   369.38851   117.89055   204.55905
     5  C   4.0   -0.04    4.49    4.52   368.90474   120.50782   200.21457
     6  C   4.0   -0.03    4.33    4.25   368.44932   121.83819   197.70691
     7  C   4.0   -0.09    4.25    4.10   366.82982   120.23570   196.03639
     8  C   4.0   -0.08    4.23    4.06   367.33249   124.44601   198.09052
     9  H   1.0    0.12    1.07    1.44   373.40040   123.73737   200.84574
    10  H   1.0    0.05    1.13    1.45   370.08204   123.18368   202.94523
    11  H   1.0    0.05    1.13    1.45   369.52646   118.83164   199.81206
    12  H   1.0    0.05    1.10    1.44   367.26257   120.29617   201.00070
    13  H   1.0    0.05    1.14    1.45   370.06503   122.07630   196.87354
    14  H   1.0    0.05    1.06    1.44   366.55014   121.09931   194.44335
    15  H   1.0    0.04    1.06    1.44   367.66697   118.63511   195.72459
    16  H   1.0    0.04    1.06    1.44   365.21789   119.93146   196.85653
    17  H   1.0    0.06    1.06    1.44   367.06604   125.24348   196.46158
    18  H   1.0    0.05    1.06    1.44   365.73000   124.30239   198.96925
    19  H   1.0    0.06    1.06    1.44   368.48522   125.46457   199.08641
    20  N   5.0   -0.23    3.24    1.96   364.49034   115.58887   204.59874
    21  C   4.0    0.03    4.32    4.23   364.97411   112.90357   204.17166
    22  C   4.0    0.09    3.21    3.04   364.39019   111.28218   206.46957
    23  O   6.0   -0.31    1.19    1.80   363.29225   109.23561   206.20690
    24  C   4.0   -0.04    4.41    4.39   367.68776   112.44436   203.31561
    25  C   4.0   -0.05    4.37    4.32   368.14507   113.40623   200.68701
    26  C   4.0   -0.05    4.33    4.26   370.88706   113.36466   199.96513
    27  C   4.0   -0.04    4.32    4.23   371.32737   115.15423   197.79195
    28  N   5.0   -0.16    4.13    3.23   373.91062   114.77628   196.73559
    29  H   1.0    0.13    1.10    1.44   365.81126   116.52806   204.47969
    30  H   1.0    0.04    1.14    1.45   363.82894   112.39712   202.83373
    31  H   1.0    0.07    1.10    1.44   368.84238   113.26828   204.47591
    32  H   1.0    0.06    1.10    1.44   368.05247   110.64912   203.38176
    33  H   1.0    0.04    1.10    1.44   367.19265   112.38767   199.49648
    34  H   1.0    0.04    1.11    1.44   367.51201   115.12022   200.55284
    35  H   1.0    0.06    1.10    1.44   371.92263   113.84843   201.39754
    36  H   1.0    0.05    1.09    1.44   371.38784   111.66580   199.49270
    37  H   1.0    0.04    1.09    1.44   370.07070   114.87266   196.48615
    38  H   1.0    0.04    1.10    1.44   371.13273   116.88711   198.35886
    39  H   1.0    0.08    1.09    1.44   373.93897   115.27517   195.12932
    40  H   1.0    0.08    1.09    1.44   375.01800   115.68146   197.62187
    41  H   1.0    0.08    1.09    1.44   374.32070   113.14734   196.82441
    42  N   5.0   -0.22    3.27    1.97   357.56827   110.10299   206.77948
    43  C   4.0    0.03    4.39    4.37   356.98624   108.35500   204.76881
    44  C   4.0    0.15    3.44    3.09   357.64197   105.61867   205.43400
    45  O   6.0   -0.31    1.26    1.80   356.14531   103.86501   204.93133
    46  C   4.0   -0.05    4.48    4.50   358.24102   109.21860   202.27438
    47  C   4.0   -0.03    4.37    4.33   357.72890   111.86989   201.35786
    48  C   4.0   -0.09    4.25    4.09   359.39753   112.51995   199.15066
    49  C   4.0   -0.09    4.27    4.14   355.00770   112.23082   200.82307
    50  H   1.0    0.11    1.09    1.44   358.59818   111.28029   206.33918
    51  H   1.0    0.04    1.13    1.45   355.16832   108.37578   204.53071
    52  H   1.0    0.06    1.10    1.44   360.05515   109.03341   202.46524
    53  H   1.0    0.04    1.10    1.44   357.71945   108.05831   200.95346
    54  H   1.0    0.04    1.15    1.45   358.15598   113.05097   202.69390
    55  H   1.0    0.04    1.06    1.44   359.03659   114.22826   198.59319
    56  H   1.0    0.04    1.06    1.44   361.15497   112.40090   199.65711
    57  H   1.0    0.04    1.06    1.44   359.07817   111.35021   197.77683
    58  H   1.0    0.04    1.06    1.44   354.72046   113.94481   200.23725
    59  H   1.0    0.04    1.06    1.44   354.47668   111.04597   199.52860
    60  H   1.0    0.05    1.06    1.44   354.04016   111.93792   202.35185
    61  N   5.0   -0.16    3.54    2.10   359.84350   105.32954   206.60563
    62  C   4.0    0.04    4.49    4.52   360.68254   102.83700   207.42955
    63  C   4.0    0.10    3.33    3.06   358.75502   101.83355   209.25691
    64  O   6.0   -0.27    1.17    1.80   357.98779    99.69060   209.06794
    65  C   4.0    0.06    4.37    4.33   363.25635   102.96172   208.72212
    66  O   6.0   -0.25    2.16    1.85   364.99868   104.24106   207.12341
    67  C   4.0   -0.05    4.21    4.02   364.17665   100.34067   209.37975
    68  H   1.0    0.12    1.16    1.46   360.87341   106.54275   206.94011
    69  H   1.0    0.07    1.13    1.45   360.84884   101.74285   205.96879
    70  H   1.0    0.06    1.11    1.45   363.10706   103.89902   210.29059
    71  H   1.0    0.17    1.11    1.44   364.62829   105.78308   207.06294
    72  H   1.0    0.07    1.06    1.44   365.81315   100.45405   210.19800
    73  H   1.0    0.07    1.06    1.44   362.98045    99.53942   210.51358
    74  H   1.0    0.07    1.06    1.44   364.32782    99.34289   207.84907
    75  N   5.0   -0.21    3.28    1.98   352.74003   102.81054   209.84840
    76  C   4.0    0.04    4.34    4.27   350.53849   102.00363   208.46890
    77  C   4.0    0.17    3.43    3.09   351.00715    99.78320   206.68878
    78  O   6.0   -0.25    1.23    1.80   349.23647    98.75708   205.58140
    79  C   4.0   -0.07    4.23    4.06   349.41411   104.21083   206.99680
    80  H   1.0    0.11    1.09    1.44   353.36552   104.21272   209.31172
    81  H   1.0    0.07    1.13    1.45   349.35364   101.40647   209.73312
    82  H   1.0    0.07    1.06    1.44   347.93445   103.64202   206.07650
    83  H   1.0    0.06    1.05    1.44   348.93412   105.54308   208.16087
    84  H   1.0    0.05    1.06    1.44   350.65755   104.85333   205.81383
    85  N   5.0   -0.15    3.46    2.05   353.38442    98.97818   206.42232
    86  C   4.0    0.04    4.37    4.34   353.97969    96.89570   204.74803
    87  C   4.0    0.17    3.37    3.07   354.20456    97.60435   201.98336
    88  O   6.0   -0.25    1.22    1.80   353.44489    96.11335   200.35441
    89  H   1.0    0.13    1.15    1.45   354.66188    99.61879   207.19522
    90  H   1.0    0.07    1.09    1.44   355.55761    96.13792   205.29038
    91  H   1.0    0.09    1.10    1.44   352.68144    95.61257   204.92188
    92  N   5.0   -0.15    3.55    2.11   354.93589    99.93438   201.50148
    93  C   4.0    0.04    4.57    4.62   355.30627   100.88680   198.95035
    94  C   4.0    0.16    3.50    3.12   357.86685    99.92493   198.04139
    95  O   6.0   -0.26    1.24    1.80   359.80949   100.36146   199.28861
    96  C   4.0   -0.02    4.42    4.42   355.32328   103.77241   198.87098
    97  C   4.0   -0.08    4.26    4.12   356.20578   104.73239   196.31985
    98  C   4.0   -0.08    4.22    4.04   352.76270   104.90058   199.56262
    99  H   1.0    0.13    1.17    1.46   355.23824   101.03231   202.66177
   100  H   1.0    0.06    1.13    1.45   353.92866   100.30854   197.88832
   101  H   1.0    0.06    1.14    1.45   356.51948   104.32988   200.14277
   102  H   1.0    0.04    1.06    1.44   356.19822   106.56543   196.31985
   103  H   1.0    0.07    1.06    1.44   357.90465   104.12768   195.99293
   104  H   1.0    0.05    1.06    1.44   355.07762   104.11823   195.01216
   105  H   1.0    0.04    1.06    1.44   352.85908   106.72983   199.48892
   106  H   1.0    0.06    1.06    1.44   351.49281   104.30720   198.37965
   107  H   1.0    0.06    1.06    1.44   352.30350   104.38279   201.25959
   108  N   5.0   -0.15    3.51    2.08   357.93677    98.47173   195.97592
   109  C   4.0    0.05    4.53    4.58   360.32350    97.47206   194.95736
   110  C   4.0    0.16    3.49    3.11   361.39308    99.37502   193.07330
   111  O   6.0   -0.26    1.22    1.80   363.69666    99.81532   192.98448
   112  C   4.0    0.06    4.34    4.27   359.82461    94.98519   193.54195
   113  O   6.0   -0.24    2.16    1.85   358.52448    93.28254   195.14255
   114  C   4.0   -0.06    4.17    3.95   362.33605    93.72474   192.69724
   115  H   1.0    0.10    1.13    1.45   356.61774    98.03898   195.13121
   116  H   1.0    0.08    1.12    1.45   361.49702    97.18105   196.33497
   117  H   1.0    0.05    1.11    1.44   358.81927    95.37447   192.06041
   118  H   1.0    0.16    1.08    1.44   358.25236    91.92572   194.36398
   119  H   1.0    0.07    1.05    1.44   361.96945    92.16193   191.81096
   120  H   1.0    0.07    1.05    1.44   363.24501    94.86046   191.58231
   121  H   1.0    0.07    1.05    1.44   363.36406    93.36191   194.17123
   122  N   5.0   -0.15    3.44    2.04   359.69233   100.52019   191.64845
   123  C   4.0    0.02    4.36    4.31   360.44633   102.26819   189.66990
   124  C   4.0    0.17    3.40    3.08   362.00346   104.46594   190.59776
   125  O   6.0   -0.28    1.23    1.80   361.54237   105.61678   192.57252
   126  H   1.0    0.09    1.13    1.45   358.08795   100.31232   191.79396
   127  H   1.0    0.06    1.10    1.44   361.40442   101.35356   188.40379
   128  H   1.0    0.05    1.09    1.44   358.94400   102.91259   188.84220
   129  N   5.0   -0.13    3.52    2.09   364.04437   105.02341   189.18613
   130  C   4.0    0.04    4.52    4.56   365.69599   107.12667   189.80785
   131  C   4.0    0.16    3.47    3.10   364.10862   109.58899   189.61132
   132  O   6.0   -0.29    1.26    1.80   362.42865   109.70804   188.07309
   133  C   4.0    0.05    4.35    4.28   367.86728   107.23817   187.86899
   134  O   6.0   -0.25    2.14    1.85   369.05592   104.78530   187.68191
   135  C   4.0   -0.07    4.22    4.04   369.79669   109.15435   188.67402
   136  H   1.0    0.11    1.14    1.45   364.48656   104.19193   187.86144
   137  H   1.0    0.06    1.12    1.45   366.39330   106.93203   191.49160
   138  H   1.0    0.06    1.11    1.45   367.18320   107.72005   186.23816
   139  H   1.0    0.16    1.08    1.44   370.23700   104.84766   186.62367
   140  H   1.0    0.06    1.06    1.44   371.15351   109.21104   187.44381
   141  H   1.0    0.06    1.06    1.44   369.00868   110.80597   188.78929
   142  H   1.0    0.06    1.06    1.44   370.47699   108.68759   190.31052
   143  N   5.0   -0.16    3.49    2.07   364.77569   111.52785   191.09665
   144  C   4.0    0.04    4.48    4.51   363.42076   113.88811   191.07397
   145  C   4.0    0.15    3.46    3.10   364.80026   116.02350   189.77195
   146  O   6.0   -0.29    1.23    1.80   367.13218   116.03673   189.58865
   147  C   4.0   -0.09    4.25    4.09   362.76313   114.61944   193.75549
   148  H   1.0    0.09    1.13    1.45   366.02669   111.48438   192.13222
   149  H   1.0    0.07    1.16    1.46   361.90520   113.61221   190.08186
   150  H   1.0    0.04    1.06    1.44   361.85039   116.20870   193.74982
   151  H   1.0    0.04    1.06    1.44   361.71433   113.31553   194.50571
   152  H   1.0    0.04    1.06    1.44   364.30137   114.80274   194.73437
   153  N   5.0   -0.15    3.52    2.09   363.32249   117.80741   188.86677
   154  C   4.0    0.05    4.37    4.33   364.36562   120.08453   187.67435
   155  C   4.0    0.08    3.21    3.04   362.68565   122.39188   188.14301
   156  O   6.0   -0.29    1.18    1.80   360.41798   122.14433   188.47749
   157  C   4.0    0.04    4.25    4.09   364.84561   119.70847   184.86055
   158  O   6.0   -0.25    2.10    1.84   363.02958   118.09842   183.73994
   159  H   1.0    0.13    1.15    1.45   361.69922   117.75449   188.91401
   160  H   1.0    0.05    1.14    1.45   365.98889   120.40011   188.46615
   161  H   1.0    0.05    1.08    1.44   364.82293   121.33552   184.01584
   162  H   1.0    0.06    1.07    1.44   366.51991   119.00171   184.61678
   163  H   1.0    0.15    1.08    1.44   363.34895   117.93591   182.19415
   164  N   5.0   -0.20    3.27    1.97   353.71512   124.12287   192.45347
   165  C   4.0    0.03    4.50    4.54   355.57083   122.08952   192.51583
   166  C   4.0    0.17    3.47    3.10   354.63164   119.98626   190.76594
   167  O   6.0   -0.31    1.29    1.80   352.91010   118.59731   191.40845
   168  C   4.0   -0.02    4.43    4.42   355.89776   121.06340   195.23137
   169  C   4.0   -0.09    4.27    4.14   357.84417   118.98093   195.14255
   170  C   4.0   -0.08    4.27    4.13   356.68766   123.17612   196.94535
   171  H   1.0    0.13    1.09    1.44   352.65877   124.13610   193.68746
   172  H   1.0    0.06    1.13    1.45   357.20167   122.71502   191.96025
   173  H   1.0    0.05    1.13    1.45   354.32739   120.38499   195.88899
   174  H   1.0    0.04    1.06    1.44   358.08795   118.29873   196.82630
   175  H   1.0    0.05    1.06    1.44   357.26592   117.64867   194.02383
   176  H   1.0    0.05    1.06    1.44   359.43154   119.65367   194.52083
   177  H   1.0    0.05    1.06    1.44   356.89364   122.53550   198.64988
   178  H   1.0    0.05    1.06    1.44   358.27692   123.87721   196.35953
   179  H   1.0    0.06    1.06    1.44   355.40454   124.48381   196.93590
   180  N   5.0   -0.15    3.51    2.09   355.71067   119.89744   188.51150
   181  C   4.0    0.04    4.49    4.53   355.02848   118.03795   186.60099
   182  C   4.0    0.15    3.48    3.11   356.32106   115.55107   187.16224
   183  O   6.0   -0.29    1.27    1.80   358.55282   115.45848   187.92758
   184  C   4.0   -0.05    4.40    4.37   355.81650   118.99604   183.97994
   185  C   4.0   -0.05    4.33    4.26   355.09651   117.24427   181.79920
   186  C   4.0   -0.05    4.34    4.28   355.94689   118.33275   179.34633
   187  C   4.0   -0.02    4.31    4.21   355.55572   116.52428   177.18637
   188  N   5.0   -0.16    4.13    3.24   356.45523   117.58064   174.76186
   189  H   1.0    0.12    1.16    1.46   356.87475   120.92734   188.03907
   190  H   1.0    0.06    1.13    1.45   353.21246   117.78473   186.62556
   191  H   1.0    0.06    1.09    1.44   355.04927   120.63633   183.69648
   192  H   1.0    0.07    1.09    1.44   357.63253   119.24360   183.96293
   193  H   1.0    0.06    1.10    1.44   355.85996   115.59643   182.04675
   194  H   1.0    0.06    1.09    1.44   353.28049   116.99671   181.77463
   195  H   1.0    0.06    1.10    1.44   355.02848   119.88421   179.01563
   196  H   1.0    0.05    1.10    1.44   357.72323   118.77495   179.45782
   197  H   1.0    0.07    1.09    1.44   356.44200   114.95770   177.53408
   198  H   1.0    0.06    1.09    1.44   353.77371   116.11421   177.05031
   199  H   1.0    0.09    1.09    1.44   355.50091   116.99482   173.50708
   200  H   1.0    0.09    1.10    1.44   356.35318   119.25871   174.80721
   201  H   1.0    0.09    1.09    1.44   358.05393   117.12521   174.50863
   202  N   5.0   -0.16    3.53    2.10   354.95856   113.49127   186.78618
   203  C   4.0    0.04    4.62    4.68   355.94689   110.97416   187.26995
   204  C   4.0    0.15    3.57    3.15   354.91510   109.38679   185.14401
   205  O   6.0   -0.28    1.26    1.80   352.74380   108.47405   185.20070
   206  C   4.0   -0.01    4.45    4.47   355.03604   109.91213   189.78140
   207  C   4.0   -0.07    4.28    4.15   355.68989   107.14179   190.00250
   208  C   4.0   -0.08    4.26    4.11   356.15098   111.38801   191.94891
   209  H   1.0    0.10    1.14    1.45   353.42789   113.51017   186.24005
   210  H   1.0    0.07    1.14    1.45   357.77803   110.99305   187.35688
   211  H   1.0    0.06    1.14    1.45   353.21057   110.07276   189.85132
   212  H   1.0    0.05    1.06    1.44   355.09462   106.49929   191.61254
   213  H   1.0    0.07    1.07    1.44   354.88675   106.21394   188.64189
   214  H   1.0    0.06    1.06    1.44   357.50780   106.93203   189.89478
   215  H   1.0    0.04    1.06    1.44   355.55383   110.69070   193.53628
   216  H   1.0    0.06    1.06    1.44   357.98024   111.28218   191.88466
   217  H   1.0    0.06    1.06    1.44   355.63698   113.14356   191.82230
   218  N   5.0   -0.16    3.42    2.03   356.47223   108.91436   183.23728
   219  C   4.0    0.03    4.26    4.12   355.67099   107.44226   181.08488
   220  C   4.0    0.11    3.17    3.03   353.66032   108.93703   179.64680
   221  O   6.0   -0.26    1.11    1.80   354.24047   110.25795   177.80620
   222  H   1.0    0.11    1.13    1.45   358.00858   109.43781   183.16358
   223  H   1.0    0.06    1.09    1.44   357.09773   107.08132   179.99262
   224  H   1.0    0.06    1.09    1.44   354.99447   105.82843   181.63290
   225  N   5.0   -0.20    3.27    1.97   347.33541   119.97492   192.40812
   226  C   4.0    0.04    4.31    4.22   346.66078   120.64388   194.99515
   227  C   4.0    0.10    3.24    3.04   346.87998   123.48225   195.36932
   228  O   6.0   -0.26    1.16    1.80   348.60342   124.66711   194.37532
   229  C   4.0   -0.04    4.42    4.41   348.41066   119.36265   196.89244
   230  C   4.0   -0.01    3.62    3.18   348.50137   116.53940   196.63543
   231  C   4.0   -0.04    3.53    3.13   350.14543   115.38100   194.91578
   232  C   4.0   -0.04    3.52    3.12   346.88565   114.99738   198.06974
   233  C   4.0   -0.04    3.48    3.11   350.17189   112.81664   194.63421
   234  C   4.0   -0.04    3.50    3.11   346.93668   112.42547   197.80895
   235  C   4.0    0.07    3.53    3.13   348.55428   111.32942   196.08930
   236  O   6.0   -0.26    2.15    1.85   348.54672   108.76129   195.76805
   237  H   1.0    0.13    1.09    1.44   348.91900   120.11854   192.07175
   238  H   1.0    0.06    1.12    1.45   344.93735   120.08453   195.27294
   239  H   1.0    0.05    1.10    1.44   350.10386   120.03350   196.69024
   240  H   1.0    0.05    1.10    1.44   347.86453   119.78973   198.58941
   241  H   1.0    0.08    1.12    1.45   351.23202   116.37121   193.95391
   242  H   1.0    0.07    1.10    1.44   345.76883   115.73249   199.20924
   243  H   1.0    0.06    1.10    1.44   351.26226   112.06642   193.47770
   244  H   1.0    0.07    1.10    1.44   345.88221   111.42013   198.78972
   245  H   1.0    0.15    1.11    1.44   347.49226   108.10555   196.75827
   246  H   1.0    0.11    1.08    1.44   374.39129   121.64125   202.18187
   247  H   1.0    0.07    1.04    1.44   371.88128   120.12520   205.98189
   248  H   1.0    0.09    1.08    1.44   363.37014   116.15359   203.45035
   249  H   1.0    0.07    1.04    1.43   364.89370   111.87018   208.19346
   250  H   1.0    0.10    1.08    1.44   356.13756   110.85287   207.31173
   251  H   1.0    0.07    1.05    1.44   358.09866   102.94065   210.64060
   252  H   1.0    0.11    1.08    1.44   352.33559   103.02852   211.48592
   253  H   1.0    0.06    1.04    1.44   363.44478   124.12209   188.17711
   254  H   1.0    0.11    1.08    1.44   354.51547   125.62315   192.48752
   255  H   1.0    0.08    1.04    1.43   351.85239   108.85421   180.19046
   256  H   1.0    0.11    1.08    1.44   346.90892   118.35557   192.11084
   257  H   1.0    0.07    1.04    1.44   345.61274   124.39578   196.43263

  Z AO/shell   Hii/eV     exponent
  1     Wed Apr 25 08:07:45 CEST 2018   EN: 2.200 GM2: 0.406  GM3: 0.0800  RAES: 1.40
     1s    -10.707211    1.230000
  6     Wed Apr 25 08:07:45 CEST 2018   EN: 2.550 GM2: 0.538  GM3: 0.1500  RAES: 3.00
     2s    -13.970922    2.096432
     2p    -10.063292    1.800000
  7     Wed Apr 25 08:07:45 CEST 2018   EN: 3.040 GM2: 0.461  GM3:-0.0640  RAES: 1.90
     2s    -16.686243    2.339881
     2p    -12.523956    2.014332
  8     Wed Apr 25 08:07:45 CEST 2018   EN: 3.440 GM2: 0.452  GM3:-0.0517  RAES: 1.80
     2s    -20.229985    2.439742
     2p    -15.503117    2.137023
 no old-style atom pair restraining (fixing) potential

molecular fragmentation (1/2 indicates fragments):
111111111111111111122222222222222222222222222222222222222222222222222222
222222222222222222222222222222222222222222222222222222222222222222222222
222222222222222222222222222222222222222222222222222222222222222222222222
22222222222222222222222222222112222222222
# atoms in fragment 1/2:    21   236
 fragment masses (1/2) :      115.17     1545.88
CMA distance (Bohr)    :  16.912
constraining FC (au)   :  0.0500
           ------------------------------------------------- 
          |        Self-Consistent Charge Iterations        |
           ------------------------------------------------- 

 Ncao       : 605
 Nao        : 605
 Nshell     : 373
 Nel        : 666
 T(el)      :   500.0
 intcut     :    35.0
 scfconv/Eh :  0.100E-06
   qconv/e  :  0.100E-04
 intneglect :  0.100E-08
 broydamp   :      0.400
 iter      E             dE          RMSdq      gap      omega  full diag
   1   -382.4838436 -0.382484E+03  0.450E+00    2.98       0.0  T
   2   -383.3284417 -0.844598E+00  0.215E+00    1.62       1.0  T
   3   -383.3745300 -0.460884E-01  0.122E+00    1.71       1.0  T
   4   -383.4348290 -0.602990E-01  0.251E-01    1.10       1.0  T
   5   -383.4387763 -0.394729E-02  0.114E-01    1.31       1.0  T
   6   -383.4393937 -0.617464E-03  0.506E-02    1.30       1.0  T
   7   -383.4395786 -0.184857E-03  0.211E-02    1.30       1.0  T
   8   -383.4395979 -0.193529E-04  0.101E-02    1.30       1.0  T
   9   -383.4396040 -0.607577E-05  0.406E-03    1.30       1.5  T
  10   -383.4396049 -0.845132E-06  0.148E-03    1.30       4.2  T
  11   -383.4396050 -0.109463E-06  0.614E-04    1.30      10.2  T
  12   -383.4396050 -0.884779E-08  0.260E-04    1.30      24.0  T
  13   -383.4396050 -0.364116E-08  0.108E-04    1.30      57.9  T
  14   -383.4396050 -0.661885E-09  0.450E-05    1.30     138.5  T
  15   -383.4396050 -0.600267E-10  0.205E-05    1.30     303.7  T
speedup  1.00
cpu  time for SCC    2.90 s
wall time for SCC    2.90 s

   *** convergence criteria satisfied after 15 iterations ***

          eigenvalues
 #    :         321        322        323        324        325        326        327        328
 occ. :        2.000      2.000      2.000      2.000      2.000      2.000      2.000      2.000
 eps  :       -10.851    -10.779    -10.774    -10.683    -10.629    -10.613    -10.369    -10.255
 #    :         329        330        331        332        333        334        335        336
 occ. :        2.000      2.000      2.000      2.000      2.000      0.000      0.000      0.000
 eps  :       -10.016    -10.002     -9.856     -9.734     -9.556     -8.254     -8.137     -7.928
 #    :         337        338        339        340        341        342        343        344
 occ. :        0.000      0.000      0.000      0.000      0.000      0.000      0.000      0.000
 eps  :        -7.812     -7.801     -7.648     -6.477     -6.423     -6.266     -6.179     -6.111


   #   Z            q   n(s)   n(p)   n(d)      C6AA      α(0)
   1   7 N     -0.394  1.281  4.113  0.000    30.204     8.162
   2   6 C      0.019  1.035  2.945  0.000    20.268     6.413
   3   6 C      0.184  1.089  2.727  0.000    24.047     8.031
   4   8 O     -0.368  1.750  4.617  0.000    21.046     6.151
   5   6 C     -0.116  1.015  3.102  0.000    22.705     6.781
   6   6 C     -0.035  1.029  3.006  0.000    21.157     6.542
   7   6 C     -0.162  0.978  3.184  0.000    23.676     6.932
   8   6 C     -0.153  0.975  3.178  0.000    23.493     6.906
   9   1 H      0.184  0.816  0.000  0.000     1.192     1.710
  10   1 H      0.075  0.925  0.000  0.000     2.035     2.231
  11   1 H      0.089  0.911  0.000  0.000     1.887     2.148
  12   1 H      0.068  0.932  0.000  0.000     2.105     2.268
  13   1 H      0.068  0.932  0.000  0.000     2.103     2.268
  14   1 H      0.055  0.945  0.000  0.000     2.260     2.351
  15   1 H      0.067  0.933  0.000  0.000     2.121     2.277
  16   1 H      0.057  0.943  0.000  0.000     2.235     2.338
  17   1 H      0.049  0.951  0.000  0.000     2.329     2.386
  18   1 H      0.048  0.952  0.000  0.000     2.350     2.397
  19   1 H      0.043  0.957  0.000  0.000     2.415     2.430
  20   7 N     -0.425  1.289  4.135  0.000    31.065     8.278
  21   6 C      0.026  1.032  2.942  0.000    20.152     6.393
  22   6 C      0.193  1.098  2.709  0.000    23.886     8.004
  23   8 O     -0.399  1.758  4.641  0.000    21.662     6.240
  24   6 C     -0.096  1.007  3.088  0.000    22.308     6.721
  25   6 C     -0.098  1.000  3.098  0.000    22.345     6.727
  26   6 C     -0.118  1.007  3.111  0.000    22.740     6.787
  27   6 C     -0.076  1.018  3.057  0.000    22.013     6.692
  28   7 N     -0.147  1.147  3.999  0.000    24.166     7.301
  29   1 H      0.205  0.795  0.000  0.000     1.081     1.629
  30   1 H      0.076  0.924  0.000  0.000     2.019     2.222
  31   1 H      0.082  0.918  0.000  0.000     1.954     2.186
  32   1 H      0.062  0.938  0.000  0.000     2.178     2.308
  33   1 H      0.072  0.928  0.000  0.000     2.060     2.245
  34   1 H      0.082  0.918  0.000  0.000     1.960     2.189
  35   1 H      0.088  0.912  0.000  0.000     1.896     2.153
  36   1 H      0.090  0.910  0.000  0.000     1.882     2.145
  37   1 H      0.126  0.874  0.000  0.000     1.562     1.954
  38   1 H      0.128  0.872  0.000  0.000     1.547     1.945
  39   1 H      0.300  0.700  0.000  0.000     0.714     1.324
  40   1 H      0.293  0.707  0.000  0.000     0.735     1.343
  41   1 H      0.290  0.710  0.000  0.000     0.744     1.351
  42   7 N     -0.421  1.279  4.142  0.000    30.970     8.265
  43   6 C      0.022  1.032  2.945  0.000    20.207     6.402
  44   6 C      0.258  1.055  2.688  0.000    22.657     7.795
  45   8 O     -0.523  1.763  4.760  0.000    24.304     6.610
  46   6 C     -0.102  1.011  3.090  0.000    22.418     6.737
  47   6 C     -0.022  1.019  3.003  0.000    20.921     6.505
  48   6 C     -0.157  0.978  3.180  0.000    23.574     6.918
  49   6 C     -0.146  0.971  3.175  0.000    23.344     6.883
  50   1 H      0.188  0.812  0.000  0.000     1.169     1.693
  51   1 H      0.055  0.945  0.000  0.000     2.263     2.352
  52   1 H      0.065  0.935  0.000  0.000     2.141     2.288
  53   1 H      0.055  0.945  0.000  0.000     2.253     2.347
  54   1 H      0.047  0.953  0.000  0.000     2.356     2.400
  55   1 H      0.067  0.933  0.000  0.000     2.120     2.276
  56   1 H      0.060  0.940  0.000  0.000     2.202     2.320
  57   1 H      0.057  0.943  0.000  0.000     2.235     2.338
  58   1 H      0.056  0.944  0.000  0.000     2.240     2.340
  59   1 H      0.047  0.953  0.000  0.000     2.363     2.404
  60   1 H      0.041  0.959  0.000  0.000     2.435     2.440
  61   7 N     -0.178  1.213  3.965  0.000    24.843     7.403
  62   6 C      0.002  1.039  2.958  0.000    20.535     6.451
  63   6 C      0.202  1.079  2.719  0.000    23.699     7.973
  64   8 O     -0.363  1.745  4.617  0.000    20.953     6.137
  65   6 C      0.108  1.021  2.871  0.000    18.879     6.200
  66   8 O     -0.479  1.676  4.804  0.000    22.450     6.396
  67   6 C     -0.164  0.979  3.185  0.000    23.719     6.940
  68   1 H      0.245  0.755  0.000  0.000     0.904     1.490
  69   1 H      0.104  0.896  0.000  0.000     1.748     2.067
  70   1 H      0.057  0.943  0.000  0.000     2.233     2.336
  71   1 H      0.336  0.664  0.000  0.000     0.622     1.239
  72   1 H      0.089  0.911  0.000  0.000     1.885     2.147
  73   1 H      0.064  0.936  0.000  0.000     2.150     2.293
  74   1 H      0.078  0.922  0.000  0.000     2.003     2.213
  75   7 N     -0.420  1.280  4.140  0.000    30.938     8.261
  76   6 C      0.027  1.028  2.945  0.000    20.127     6.389
  77   6 C      0.265  1.051  2.684  0.000    22.528     7.773
  78   8 O     -0.523  1.759  4.765  0.000    24.308     6.610
  79   6 C     -0.146  0.977  3.169  0.000    23.341     6.884
  80   1 H      0.180  0.820  0.000  0.000     1.216     1.727
  81   1 H      0.062  0.938  0.000  0.000     2.178     2.307
  82   1 H      0.061  0.939  0.000  0.000     2.186     2.312
  83   1 H      0.068  0.932  0.000  0.000     2.103     2.268
  84   1 H      0.059  0.941  0.000  0.000     2.210     2.325
  85   7 N     -0.178  1.206  3.973  0.000    24.866     7.406
  86   6 C     -0.046  1.006  3.040  0.000    21.440     6.600
  87   6 C      0.275  1.037  2.688  0.000    22.343     7.740
  88   8 O     -0.517  1.754  4.763  0.000    24.170     6.591
  89   1 H      0.226  0.774  0.000  0.000     0.983     1.553
  90   1 H      0.099  0.901  0.000  0.000     1.791     2.093
  91   1 H      0.100  0.900  0.000  0.000     1.788     2.091
  92   7 N     -0.177  1.207  3.970  0.000    24.830     7.401
  93   6 C      0.013  1.036  2.950  0.000    20.348     6.422
  94   6 C      0.272  1.048  2.679  0.000    22.395     7.750
  95   8 O     -0.497  1.757  4.740  0.000    23.727     6.531
  96   6 C     -0.027  1.032  2.995  0.000    21.015     6.519
  97   6 C     -0.152  0.977  3.175  0.000    23.463     6.902
  98   6 C     -0.152  0.978  3.174  0.000    23.463     6.903
  99   1 H      0.234  0.766  0.000  0.000     0.949     1.526
 100   1 H      0.075  0.925  0.000  0.000     2.028     2.227
 101   1 H      0.065  0.935  0.000  0.000     2.140     2.287
 102   1 H      0.079  0.921  0.000  0.000     1.985     2.203
 103   1 H      0.059  0.941  0.000  0.000     2.211     2.325
 104   1 H      0.058  0.942  0.000  0.000     2.228     2.334
 105   1 H      0.074  0.926  0.000  0.000     2.043     2.235
 106   1 H      0.059  0.941  0.000  0.000     2.212     2.325
 107   1 H      0.048  0.952  0.000  0.000     2.346     2.395
 108   7 N     -0.191  1.213  3.978  0.000    25.139     7.447
 109   6 C      0.004  1.048  2.948  0.000    20.520     6.449
 110   6 C      0.268  1.040  2.692  0.000    22.484     7.765
 111   8 O     -0.481  1.756  4.726  0.000    23.376     6.482
 112   6 C      0.103  1.027  2.870  0.000    18.964     6.215
 113   8 O     -0.505  1.690  4.815  0.000    23.002     6.475
 114   6 C     -0.168  0.985  3.182  0.000    23.803     6.954
 115   1 H      0.216  0.784  0.000  0.000     1.029     1.589
 116   1 H      0.105  0.895  0.000  0.000     1.743     2.065
 117   1 H      0.052  0.948  0.000  0.000     2.298     2.370
 118   1 H      0.348  0.652  0.000  0.000     0.592     1.209
 119   1 H      0.078  0.922  0.000  0.000     2.000     2.211
 120   1 H      0.070  0.930  0.000  0.000     2.085     2.258
 121   1 H      0.072  0.928  0.000  0.000     2.058     2.243
 122   7 N     -0.168  1.195  3.973  0.000    24.643     7.373
 123   6 C     -0.051  1.005  3.046  0.000    21.529     6.614
 124   6 C      0.276  1.037  2.687  0.000    22.330     7.738
 125   8 O     -0.480  1.748  4.732  0.000    23.342     6.478
 126   1 H      0.221  0.779  0.000  0.000     1.005     1.570
 127   1 H      0.099  0.901  0.000  0.000     1.797     2.096
 128   1 H      0.113  0.887  0.000  0.000     1.666     2.018
 129   7 N     -0.174  1.205  3.969  0.000    24.771     7.392
 130   6 C     -0.001  1.047  2.954  0.000    20.607     6.463
 131   6 C      0.271  1.044  2.685  0.000    22.420     7.754
 132   8 O     -0.470  1.733  4.737  0.000    23.130     6.448
 133   6 C      0.103  1.025  2.872  0.000    18.976     6.218
 134   8 O     -0.517  1.697  4.820  0.000    23.263     6.511
 135   6 C     -0.180  0.981  3.199  0.000    24.042     6.987
 136   1 H      0.222  0.778  0.000  0.000     1.001     1.567
 137   1 H      0.094  0.906  0.000  0.000     1.843     2.123
 138   1 H      0.055  0.945  0.000  0.000     2.254     2.348
 139   1 H      0.343  0.657  0.000  0.000     0.604     1.221
 140   1 H      0.082  0.918  0.000  0.000     1.961     2.190
 141   1 H      0.080  0.920  0.000  0.000     1.974     2.197
 142   1 H      0.085  0.915  0.000  0.000     1.928     2.171
 143   7 N     -0.179  1.202  3.977  0.000    24.868     7.406
 144   6 C      0.002  1.030  2.967  0.000    20.531     6.450
 145   6 C      0.265  1.040  2.695  0.000    22.528     7.773
 146   8 O     -0.494  1.742  4.752  0.000    23.656     6.521
 147   6 C     -0.171  0.982  3.189  0.000    23.859     6.959
 148   1 H      0.225  0.775  0.000  0.000     0.987     1.556
 149   1 H      0.107  0.893  0.000  0.000     1.723     2.052
 150   1 H      0.081  0.919  0.000  0.000     1.969     2.194
 151   1 H      0.081  0.919  0.000  0.000     1.964     2.191
 152   1 H      0.087  0.913  0.000  0.000     1.905     2.158
 153   7 N     -0.153  1.197  3.956  0.000    24.305     7.322
 154   6 C      0.006  1.037  2.957  0.000    20.481     6.444
 155   6 C      0.191  1.089  2.721  0.000    23.924     8.010
 156   8 O     -0.350  1.747  4.603  0.000    20.703     6.100
 157   6 C      0.061  0.992  2.947  0.000    19.735     6.358
 158   8 O     -0.488  1.675  4.813  0.000    22.629     6.422
 159   1 H      0.230  0.770  0.000  0.000     0.964     1.538
 160   1 H      0.115  0.885  0.000  0.000     1.654     2.011
 161   1 H      0.067  0.933  0.000  0.000     2.121     2.277
 162   1 H      0.076  0.924  0.000  0.000     2.025     2.225
 163   1 H      0.351  0.649  0.000  0.000     0.586     1.202
 164   7 N     -0.413  1.283  4.131  0.000    30.745     8.235
 165   6 C      0.014  1.042  2.945  0.000    20.345     6.422
 166   6 C      0.271  1.046  2.682  0.000    22.418     7.754
 167   8 O     -0.501  1.741  4.760  0.000    23.811     6.542
 168   6 C     -0.025  1.031  2.995  0.000    20.983     6.514
 169   6 C     -0.151  0.976  3.175  0.000    23.434     6.897
 170   6 C     -0.148  0.974  3.174  0.000    23.374     6.888
 171   1 H      0.176  0.824  0.000  0.000     1.234     1.740
 172   1 H      0.058  0.942  0.000  0.000     2.225     2.332
 173   1 H      0.041  0.959  0.000  0.000     2.440     2.443
 174   1 H      0.061  0.939  0.000  0.000     2.189     2.313
 175   1 H      0.049  0.951  0.000  0.000     2.326     2.385
 176   1 H      0.057  0.943  0.000  0.000     2.239     2.340
 177   1 H      0.055  0.945  0.000  0.000     2.263     2.352
 178   1 H      0.057  0.943  0.000  0.000     2.231     2.336
 179   1 H      0.042  0.958  0.000  0.000     2.422     2.433
 180   7 N     -0.185  1.210  3.974  0.000    25.000     7.426
 181   6 C      0.009  1.034  2.957  0.000    20.426     6.434
 182   6 C      0.266  1.044  2.690  0.000    22.513     7.770
 183   8 O     -0.484  1.747  4.737  0.000    23.438     6.491
 184   6 C     -0.108  1.014  3.094  0.000    22.539     6.756
 185   6 C     -0.096  0.999  3.096  0.000    22.309     6.722
 186   6 C     -0.117  1.003  3.113  0.000    22.711     6.782
 187   6 C     -0.073  1.012  3.060  0.000    21.958     6.684
 188   7 N     -0.143  1.145  3.998  0.000    24.090     7.290
 189   1 H      0.233  0.767  0.000  0.000     0.952     1.528
 190   1 H      0.078  0.922  0.000  0.000     2.003     2.213
 191   1 H      0.084  0.916  0.000  0.000     1.938     2.177
 192   1 H      0.089  0.911  0.000  0.000     1.884     2.146
 193   1 H      0.062  0.938  0.000  0.000     2.170     2.303
 194   1 H      0.067  0.933  0.000  0.000     2.116     2.275
 195   1 H      0.092  0.908  0.000  0.000     1.856     2.130
 196   1 H      0.098  0.902  0.000  0.000     1.807     2.102
 197   1 H      0.130  0.870  0.000  0.000     1.534     1.937
 198   1 H      0.125  0.875  0.000  0.000     1.570     1.959
 199   1 H      0.293  0.707  0.000  0.000     0.733     1.341
 200   1 H      0.292  0.708  0.000  0.000     0.737     1.345
 201   1 H      0.296  0.704  0.000  0.000     0.725     1.334
 202   7 N     -0.175  1.206  3.969  0.000    24.796     7.396
 203   6 C      0.001  1.040  2.959  0.000    20.545     6.451
 204   6 C      0.259  1.045  2.696  0.000    22.639     7.793
 205   8 O     -0.498  1.765  4.734  0.000    23.748     6.534
 206   6 C     -0.022  1.028  2.994  0.000    20.924     6.505
 207   6 C     -0.156  0.975  3.180  0.000    23.541     6.913
 208   6 C     -0.148  0.975  3.173  0.000    23.388     6.890
 209   1 H      0.208  0.792  0.000  0.000     1.063     1.615
 210   1 H      0.107  0.893  0.000  0.000     1.718     2.050
 211   1 H      0.059  0.941  0.000  0.000     2.210     2.325
 212   1 H      0.065  0.935  0.000  0.000     2.146     2.291
 213   1 H      0.051  0.949  0.000  0.000     2.307     2.375
 214   1 H      0.056  0.944  0.000  0.000     2.245     2.343
 215   1 H      0.059  0.941  0.000  0.000     2.212     2.326
 216   1 H      0.064  0.936  0.000  0.000     2.154     2.295
 217   1 H      0.056  0.944  0.000  0.000     2.250     2.346
 218   7 N     -0.168  1.205  3.963  0.000    24.626     7.370
 219   6 C     -0.045  1.005  3.040  0.000    21.438     6.602
 220   6 C      0.198  1.090  2.712  0.000    23.788     7.988
 221   8 O     -0.338  1.747  4.592  0.000    20.489     6.069
 222   1 H      0.237  0.763  0.000  0.000     0.936     1.516
 223   1 H      0.121  0.879  0.000  0.000     1.608     1.983
 224   1 H      0.104  0.896  0.000  0.000     1.749     2.068
 225   7 N     -0.409  1.284  4.124  0.000    30.617     8.218
 226   6 C      0.034  1.031  2.934  0.000    20.006     6.370
 227   6 C      0.195  1.086  2.719  0.000    23.833     7.995
 228   8 O     -0.368  1.753  4.615  0.000    21.056     6.152
 229   6 C     -0.085  1.005  3.080  0.000    22.096     6.689
 230   6 C     -0.012  1.084  2.928  0.000    28.300     8.726
 231   6 C     -0.060  1.064  2.996  0.000    29.491     8.906
 232   6 C     -0.064  1.058  3.006  0.000    29.603     8.923
 233   6 C     -0.077  1.050  3.028  0.000    29.935     8.972
 234   6 C     -0.093  1.047  3.046  0.000    30.326     9.031
 235   6 C      0.133  1.049  2.818  0.000    25.091     8.210
 236   8 O     -0.444  1.674  4.770  0.000    21.721     6.292
 237   1 H      0.195  0.805  0.000  0.000     1.132     1.666
 238   1 H      0.064  0.936  0.000  0.000     2.149     2.292
 239   1 H      0.065  0.935  0.000  0.000     2.141     2.288
 240   1 H      0.055  0.945  0.000  0.000     2.252     2.347
 241   1 H      0.098  0.902  0.000  0.000     1.799     2.097
 242   1 H      0.058  0.942  0.000  0.000     2.226     2.333
 243   1 H      0.079  0.921  0.000  0.000     1.990     2.206
 244   1 H      0.056  0.944  0.000  0.000     2.248     2.345
 245   1 H      0.333  0.667  0.000  0.000     0.630     1.246
 246   1 H      0.176  0.824  0.000  0.000     1.238     1.743
 247   1 H      0.055  0.945  0.000  0.000     2.258     2.350
 248   1 H      0.180  0.820  0.000  0.000     1.216     1.727
 249   1 H      0.074  0.926  0.000  0.000     2.042     2.235
 250   1 H      0.177  0.823  0.000  0.000     1.233     1.739
 251   1 H      0.077  0.923  0.000  0.000     2.013     2.218
 252   1 H      0.184  0.816  0.000  0.000     1.189     1.708
 253   1 H      0.092  0.908  0.000  0.000     1.858     2.132
 254   1 H      0.178  0.822  0.000  0.000     1.222     1.732
 255   1 H      0.085  0.915  0.000  0.000     1.927     2.170
 256   1 H      0.181  0.819  0.000  0.000     1.211     1.724
 257   1 H      0.059  0.941  0.000  0.000     2.214     2.327

 Mol. C6AA /au·bohr⁶  :     552734.700202
 Mol. C8AA /au·bohr⁸  :   12152352.352844
 Mol. α(0) /au        :       1109.267408

 
molecular dipole:
                 x           y           z       tot (Debye)
 q only:      736.157     240.250     368.985
   full:      735.960     241.291     369.875    2181.609
molecular quadrupole (traceless):
                xx          xy          yy          xz          yz          zz
 q only:   222501.795  132470.070 -140947.970  204132.478   66702.147  -81553.825
  q+dip:   222070.522  133016.268 -140826.709  204541.943   67187.970  -81243.813
   full:   222069.262  133015.395 -140826.804  204542.149   67187.346  -81242.458
speedup  1.00
cpu  time for grad    3.57 s
wall time for grad    3.58 s

SCC energy    :    -383.4516931
rep           :       8.4752256
ES            :       1.2013920
AES           :      -0.0218430
AXC           :       0.0640939
disp          :      -0.2960452
XB            :       0.0000000
fix           :       0.0000000
Gborn         :       0.0000000
Gsasa         :       0.0000000
Ghb           :       0.0000000
Gshift        :       0.0000000
Gsolv         :      -0.3964125     -248.75
Etot ala COSMO:    -383.4516931
grad norm     :       2.0562494
total E       :    -374.9552519
atomizationE  :      66.8279287    41935.16
(atE without considering molecular charge,
 total energy contains solvation terms)
H-L gap (eV)  :          1.3014

------------------------------------------------------------------------
 * finished run on 2019/03/07 at 11:37:49.495     
------------------------------------------------------------------------
 total:
 * wall-time:     0 d,  0 h,  0 min,  4.045 sec
 *  cpu-time:     0 d,  0 h,  0 min,  3.866 sec
 * ratio c/w:     0.956 speedup
 SCF:
 * wall-time:     0 d,  0 h,  0 min,  3.808 sec
 *  cpu-time:     0 d,  0 h,  0 min,  3.802 sec
 * ratio c/w:     0.999 speedup

