      -----------------------------------------------------------      
     |                   =====================                   |     
     |                           x T B                           |     
     |                   =====================                   |     
     |                         S. Grimme                         |     
     |          Mulliken Center for Theoretical Chemistry        |     
     |                    University of Bonn                     |     
     |                Version 6.1 RC1 (SAW190329)                |     
      -----------------------------------------------------------      

   This program is distributed in the hope that it will be useful,
   but WITHOUT ANY WARRANTY; without even the implied warranty of
   MERCHANTABILITY or FITNESS FOR A PARTICULAR PURPOSE.
   
   FOR NON-COMMERCIAL, ACADEMIA USE ONLY.
   
   Cite this work as:
   S. Grimme, C. Bannwarth, P. Shushkov, J. Comput. Theory Chem., 2017,
   13, 1989-2009. DOI: 10.1021/acs.jctc.7b00118
   C. Bannwarth, S. Ehlert and S. Grimme., J. Comput. Theory Chem., 2019,
   just accepted. DOI: 10.1021/acs.jctc.8b01176
   
   for sTDA-xTB:
   S. Grimme and C. Bannwarth, J. Chem. Phys., 2016, 145, 054103.
   DOI: 10.1063/1.4959605
   
   in the mass-spec context:
   V. Asgeirsson, C. Bauer and S. Grimme, Chem. Sci., 2017, 8, 4879.
   DOI: 10.1039/c7sc00601b
   
   for metadynamics refer to:
   S. Grimme, ChemRxiv, Preprint. DOI: 10.26434/chemrxiv.7660532.v1
   
   with help from (in alphabetical order)
   C. Bannwarth, F. Bohle, G. Brandenburg, E. Caldeweyher, M. Checinski,
   S. Dohm, S. Ehlert, S. Ehrlich, F. März, H. Neugebauer, J. Pisarek,
   P. Pracht, P. Shushkov, and S. Spicher.
   
 * started run on 2019/05/31 at 06:33:09.395     

           -------------------------------------------------
          |                Calculation Setup                |
           -------------------------------------------------

          program call               : /home/lum/qr/xtb-190329/bin/xtb xtb_tmp.xyz --chrg -2 --grad --gfn 2 --etemp 500 --acc 0.1 --gbsa h2o --parallel 2
          hostname                   : cu39
          coordinate file            : xtb_tmp.xyz
          omp threads                :                     2
          number of atoms            :                   283
          number of electrons        :                   778
          charge                     :                    -2
          spin                       :                   0.0
          first test random number   :      0.00467520877598


molecular fragmentation (1/2 indicates fragments):
111111111111111111111111111111111111111111111111111111111111111111111111
111111111122222222222222222222222222222222222222222222222222222222222222
222222222222222222222222222222222222222222222222222222222222222222222222
2222222222222222222222222222222222222222222222222222222222211222222
# atoms in fragment 1/2:    84   199
 fragment masses (1/2) :      597.73     1379.57
CMA distance (Bohr)    :  12.112
constraining FC (au)   :  0.0500

########################################################################
# WARNING! Please study the warnings concerning your input carefully
#  - XTBPATH is not set, using XTBHOME instead
#  - Process number higher than OMP_NUM_THREADS, I hope you know what you are doing.
########################################################################

           ------------------------------------------------- 
          |                 G F N 2 - x T B                 |
          | Geometry, Frequencies, Noncovalent interactions |
          |            JCTC 2018 parametrisation            |
           ------------------------------------------------- 
 
             k(s)              :                1.8500
             k(p)              :                2.2300
             k(d)              :                2.2300
             k(f)              :                2.0000
             kEN (H0ij)        :               -2.0000
             D4 a1             :                0.5200
             D4 a2             :                5.0000
             D4 s6             :                1.0000
             D4 s8             :                2.7000
             D4 s9             :                5.0000
             alphaj            :                2.0000

  Z AO/shell   Hii/eV     exponent
  1     Wed Apr 25 08:07:45 CEST 2018   EN: 2.200 GM2: 0.406  GM3: 0.0800  RAES: 1.40
     1s    -10.707211    1.230000
  6     Wed Apr 25 08:07:45 CEST 2018   EN: 2.550 GM2: 0.538  GM3: 0.1500  RAES: 3.00
     2s    -13.970922    2.096432
     2p    -10.063292    1.800000
  7     Wed Apr 25 08:07:45 CEST 2018   EN: 3.040 GM2: 0.461  GM3:-0.0640  RAES: 1.90
     2s    -16.686243    2.339881
     2p    -12.523956    2.014332
  8     Wed Apr 25 08:07:45 CEST 2018   EN: 3.440 GM2: 0.452  GM3:-0.0517  RAES: 1.80
     2s    -20.229985    2.439742
     2p    -15.503117    2.137023
 16     Tue Apr 24 11:44:34 CEST 2018   EN: 2.580 GM2: 0.340  GM3:-0.0502  RAES: 3.10
     3s    -20.029654    1.981333
     3p    -11.377694    2.025643
     3d     -0.420282    1.702555

 Solvent             : h2o
 Using internal parameter file: .param_gbsa2_h2o
 Gsolv ref. state (COSMO-RS): gsolv [1 M gas/solution]
 temperature (mdtemp)       :    298.150000000000     
 dielectric constant        :    80.2000000000000     
 rho                        :    1.00000000000000     
 mass                       :    18.0000000000000     
 surface tension            :    15.5689454083859     
 probe radius               :   0.975313790000000     
 vdW radii scaling          :    1.00000000000000     
 Gshift (Eh)                :   1.857443126794793E-003
 c1                         :    1.55243817000000     
 soset                      :   0.130326360000000     
 HB correction              :  T
 Number of grid points      :          230

            Z     q(EN)     CN     RAES       Cart. coordinates
     1  N   5.0   -0.70    3.00    1.93    69.56035    40.50619    27.52112
     2  C   4.0    0.07    3.98    3.59    69.88760    38.53746    29.38899
     3  C   4.0    0.28    3.00    3.02    67.62545    36.72047    29.36912
     4  O   6.0   -0.44    1.00    1.80    65.66134    37.21503    28.25680
     5  C   4.0   -0.14    4.02    3.65    70.19759    39.72294    32.02663
     6  C   4.0   -0.15    3.98    3.58    72.88664    40.65814    32.48583
     7  S   6.0   -0.19    2.02    3.10    73.27264    41.72829    35.72394
     8  C   4.0   -0.21    3.98    3.58    75.09227    39.13834    37.08073
     9  H   1.0    0.32    1.00    1.43    68.08891    41.71848    27.76697
    10  H   1.0    0.11    0.99    1.43    71.59685    37.47922    28.87059
    11  H   1.0    0.13    0.99    1.43    68.88485    41.32043    32.15758
    12  H   1.0    0.12    0.99    1.43    69.68941    38.32834    33.46411
    13  H   1.0    0.10    0.99    1.43    74.27971    39.16938    32.15295
    14  H   1.0    0.10    0.99    1.43    73.34510    42.25282    31.25403
    15  H   1.0    0.10    0.99    1.43    75.60340    39.69253    38.98313
    16  H   1.0    0.11    0.99    1.43    73.96539    37.42675    37.11619
    17  H   1.0    0.10    0.99    1.43    76.77636    38.83534    35.94923
    18  N   5.0   -0.47    3.01    1.93    67.97635    34.61937    30.72009
    19  C   4.0    0.09    3.99    3.60    66.15374    32.62409    31.08621
    20  C   4.0    0.27    3.01    3.02    65.84571    32.25722    33.93325
    21  O   6.0   -0.46    1.00    1.80    67.68494    32.35558    35.33285
    22  C   4.0    0.05    3.97    3.58    67.17589    30.12864    29.86698
    23  O   6.0   -0.47    1.99    1.82    69.83727    30.26965    29.83525
    24  C   4.0   -0.21    3.98    3.59    66.11864    29.88095    27.19100
    25  H   1.0    0.26    1.00    1.43    69.70252    34.20008    31.41385
    26  H   1.0    0.14    0.99    1.43    64.36891    33.18346    30.21217
    27  H   1.0    0.11    0.99    1.43    66.52750    28.51766    31.00946
    28  H   1.0    0.30    0.99    1.43    70.64766    28.66164    30.28830
    29  H   1.0    0.11    0.99    1.43    66.82086    28.15877    26.32342
    30  H   1.0    0.11    0.99    1.43    64.06465    29.84343    27.24599
    31  H   1.0    0.13    0.99    1.43    66.75186    31.49973    26.09983
    32  N   5.0   -0.48    3.01    1.93    63.48137    31.89379    34.75755
    33  C   4.0    0.07    3.99    3.60    62.81262    31.45368    37.38300
    34  C   4.0    0.25    3.02    3.02    60.95151    29.23640    37.47344
    35  O   6.0   -0.42    1.00    1.80    60.04045    28.37211    35.52493
    36  C   4.0   -0.12    3.99    3.60    61.50102    33.78729    38.55367
    37  C   4.0   -0.02    3.02    3.02    62.84588    36.25704    38.10361
    38  C   4.0   -0.08    3.04    3.02    65.45663    36.46345    38.15067
    39  C   4.0   -0.11    3.04    3.02    61.45700    38.44885    37.69086
    40  C   4.0   -0.10    3.03    3.02    66.65182    38.73352    37.66453
    41  C   4.0   -0.09    3.03    3.02    62.62457    40.73803    37.24843
    42  C   4.0    0.10    3.03    3.02    65.24683    40.88789    37.16093
    43  O   6.0   -0.49    1.99    1.83    66.35219    43.14053    36.61990
    44  H   1.0    0.26    1.00    1.43    62.07554    31.50315    33.51764
    45  H   1.0    0.13    0.99    1.43    64.52509    30.98960    38.44288
    46  H   1.0    0.11    0.99    1.43    59.59055    33.91965    37.78502
    47  H   1.0    0.10    0.99    1.43    61.36163    33.44861    40.58545
    48  H   1.0    0.13    1.00    1.43    66.60220    34.82256    38.51044
    49  H   1.0    0.10    1.00    1.43    59.42151    38.35244    37.72999
    50  H   1.0    0.11    0.99    1.43    68.69248    38.83311    37.64126
    51  H   1.0    0.11    1.00    1.43    61.52718    42.42636    36.96032
    52  H   1.0    0.25    0.99    1.43    68.17280    42.95143    36.57325
    53  N   5.0   -0.50    3.01    1.93    60.30320    28.39922    39.77485
    54  C   4.0    0.08    4.00    3.61    58.22252    26.65922    40.07007
    55  C   4.0    0.27    3.01    3.02    56.72580    27.32511    42.44371
    56  O   6.0   -0.43    1.00    1.80    57.68466    28.52563    44.17431
    57  C   4.0   -0.00    3.98    3.58    59.12167    23.89109    40.30152
    58  O   6.0   -0.47    1.99    1.82    59.96196    23.24645    42.73401
    59  H   1.0    0.25    1.00    1.43    61.05983    29.16492    41.35885
    60  H   1.0    0.14    0.99    1.43    57.04201    26.81114    38.37443
    61  H   1.0    0.13    0.99    1.43    57.53315    22.63725    39.88990
    62  H   1.0    0.13    0.99    1.43    60.61145    23.57413    38.89093
    63  H   1.0    0.27    0.99    1.43    61.21804    24.46423    43.30255
    64  N   5.0   -0.48    3.01    1.93    54.34360    26.50459    42.44662
    65  C   4.0    0.07    3.99    3.60    52.67225    26.62056    44.61361
    66  C   4.0    0.05    3.00    3.02    51.64645    23.95593    45.04745
    67  O   6.0   -0.43    1.00    1.80    50.57468    22.81563    43.33471
    68  C   4.0   -0.07    3.98    3.59    50.42626    28.40303    44.08114
    69  C   4.0   -0.16    3.98    3.59    51.33065    31.13761    43.76449
    70  C   4.0   -0.24    3.98    3.59    48.51881    28.18468    46.23350
    71  C   4.0   -0.25    3.98    3.58    49.62096    32.66996    42.02557
    72  H   1.0    0.26    1.00    1.43    53.66674    25.51010    40.96122
    73  H   1.0    0.12    0.99    1.43    53.73936    27.27686    46.25719
    74  H   1.0    0.13    0.99    1.43    49.55164    27.75719    42.31594
    75  H   1.0    0.10    0.99    1.43    51.40853    31.99672    45.63770
    76  H   1.0    0.13    0.99    1.43    53.24299    31.14165    42.99271
    77  H   1.0    0.09    0.99    1.43    47.02678    29.58088    46.03276
    78  H   1.0    0.10    0.99    1.43    47.66958    26.31094    46.25983
    79  H   1.0    0.09    0.99    1.43    49.46189    28.47835    48.03960
    80  H   1.0    0.09    0.99    1.43    50.21576    34.63665    41.97850
    81  H   1.0    0.10    0.99    1.43    49.71080    31.91597    40.11640
    82  H   1.0    0.09    0.99    1.43    47.67461    32.58295    42.66845
    83  N   5.0   -0.72    3.00    1.93    41.28441    13.28788    38.95360
    84  C   4.0    0.06    3.98    3.58    40.70282    14.87006    36.78087
    85  C   4.0    0.26    3.01    3.02    41.83722    13.55488    34.45612
    86  O   6.0   -0.44    1.00    1.80    43.15584    11.66310    34.69092
    87  C   4.0   -0.15    3.98    3.59    41.59857    17.63012    37.14250
    88  C   4.0   -0.10    3.97    3.58    44.19963    17.93901    38.38784
    89  C   4.0   -0.20    3.98    3.59    46.34221    17.02862    36.68420
    90  C   4.0   -0.23    3.98    3.59    44.59896    20.70944    39.11017
    91  H   1.0    0.29    1.00    1.43    42.60881    11.94841    38.59355
    92  H   1.0    0.10    0.99    1.43    38.64738    14.92731    36.52021
    93  H   1.0    0.10    0.99    1.43    41.61417    18.57479    35.31037
    94  H   1.0    0.09    0.99    1.43    40.20316    18.57128    38.33781
    95  H   1.0    0.10    0.99    1.43    44.23275    16.82948    40.13578
    96  H   1.0    0.11    0.99    1.43    48.14719    17.34879    37.61565
    97  H   1.0    0.13    0.99    1.43    46.17667    15.02024    36.28082
    98  H   1.0    0.13    0.99    1.43    46.33478    18.05723    34.90268
    99  H   1.0    0.12    0.99    1.43    46.40953    20.96549    40.05575
   100  H   1.0    0.11    0.99    1.43    44.57144    21.90517    37.43941
   101  H   1.0    0.09    0.99    1.43    43.11328    21.33809    40.38566
   102  N   5.0   -0.50    3.00    1.93    41.20632    14.48412    32.17446
   103  C   4.0    0.06    4.00    3.61    42.38772    13.43901    29.92977
   104  C   4.0    0.28    3.01    3.02    45.13351    14.35869    29.75650
   105  O   6.0   -0.40    1.00    1.80    45.74908    16.51352    30.29569
   106  C   4.0   -0.21    3.98    3.59    40.99108    14.19370    27.52991
   107  H   1.0    0.22    1.00    1.43    40.41494    16.21121    32.03077
   108  H   1.0    0.12    0.99    1.43    42.36101    11.38397    30.18048
   109  H   1.0    0.10    0.99    1.43    41.79626    13.20352    25.92253
   110  H   1.0    0.10    0.99    1.43    39.00164    13.71864    27.68917
   111  H   1.0    0.14    0.99    1.43    41.18792    16.21178    27.17548
   112  N   5.0   -0.51    3.01    1.93    46.78300    12.61101    28.90407
   113  C   4.0    0.09    3.99    3.60    49.48491    13.06273    29.00027
   114  C   4.0    0.32    3.01    3.02    50.16997    15.51909    27.62556
   115  O   6.0   -0.44    1.00    1.80    51.28230    17.22640    28.71648
   116  C   4.0   -0.04    3.98    3.58    50.95435    10.82786    27.87581
   117  O   6.0   -0.48    1.99    1.82    53.52558    11.50493    27.79936
   118  H   1.0    0.21    1.00    1.43    46.20863    10.80121    28.71056
   119  H   1.0    0.13    0.99    1.43    50.09641    13.36190    30.96552
   120  H   1.0    0.09    0.99    1.43    50.66938     9.16834    29.08937
   121  H   1.0    0.10    0.99    1.43    50.25284    10.41274    25.96542
   122  H   1.0    0.24    0.99    1.43    54.51147    10.07234    27.23770
   123  N   5.0   -0.47    3.01    1.93    49.53177    15.64422    25.18514
   124  C   4.0    0.09    4.00    3.61    50.34216    17.74580    23.62123
   125  C   4.0    0.28    3.01    3.02    50.04108    20.24102    25.07150
   126  O   6.0   -0.39    1.00    1.80    51.76891    21.75214    25.32583
   127  C   4.0   -0.02    3.98    3.58    48.81504    17.79292    21.15662
   128  O   6.0   -0.50    1.99    1.82    49.19314    15.44968    19.94333
   129  H   1.0    0.25    1.00    1.43    48.67518    14.19856    24.28134
   130  H   1.0    0.13    0.99    1.43    52.35872    17.53144    23.16137
   131  H   1.0    0.13    0.99    1.43    46.79434    18.10483    21.57562
   132  H   1.0    0.10    0.99    1.43    49.51685    19.38097    20.01039
   133  H   1.0    0.24    0.99    1.43    48.59830    15.55700    18.22201
   134  N   5.0   -0.46    3.01    1.93    47.70121    20.57171    25.96936
   135  C   4.0    0.08    3.99    3.61    46.78135    22.93395    26.97032
   136  C   4.0    0.29    3.01    3.02    48.11221    23.76634    29.39961
   137  O   6.0   -0.44    1.00    1.80    47.89359    25.93247    30.18749
   138  C   4.0   -0.11    3.98    3.59    43.93968    22.63711    27.44304
   139  C   4.0    0.30    2.99    3.02    42.60733    21.75772    24.95415
   140  O   6.0   -0.46    1.00    1.80    43.13447    19.56305    24.23110
   141  O   6.0   -0.42    1.00    1.80    41.16907    23.26327    23.88892
   142  H   1.0    0.29    1.00    1.43    46.23983    19.43348    25.37986
   143  H   1.0    0.13    0.99    1.43    47.10268    24.47592    25.60268
   144  H   1.0    0.13    0.99    1.43    43.66451    21.18798    28.88875
   145  H   1.0    0.11    0.99    1.43    43.13063    24.42555    28.06033
   146  N   5.0   -0.49    3.01    1.93    49.41334    21.97369    30.60913
   147  C   4.0    0.10    3.99    3.61    50.88072    22.49618    32.84657
   148  C   4.0    0.30    3.01    3.02    52.87977    24.56005    32.46479
   149  O   6.0   -0.42    1.00    1.80    53.38512    26.03633    34.16554
   150  C   4.0   -0.01    3.98    3.59    52.20180    20.05667    33.68244
   151  O   6.0   -0.48    1.99    1.82    53.31399    20.41659    36.06768
   152  H   1.0    0.31    1.00    1.43    49.64048    20.25649    29.79110
   153  H   1.0    0.14    0.99    1.43    49.64055    23.16607    34.37136
   154  H   1.0    0.12    0.99    1.43    50.77123    18.55713    33.75374
   155  H   1.0    0.13    0.99    1.43    53.62385    19.54925    32.25655
   156  H   1.0    0.25    0.99    1.43    54.03973    18.82777    36.60112
   157  N   5.0   -0.48    3.01    1.93    54.12267    24.47466    30.25837
   158  C   4.0    0.08    4.00    3.61    56.22059    26.14880    29.75547
   159  C   4.0    0.26    3.01    3.02    55.71479    27.78294    27.42530
   160  O   6.0   -0.39    1.00    1.80    54.85897    26.92539    25.46435
   161  C   4.0   -0.12    3.99    3.60    58.70546    24.65105    29.40415
   162  C   4.0   -0.01    3.03    3.02    58.69168    22.94500    27.13608
   163  C   4.0   -0.08    3.03    3.02    59.89876    23.66092    24.91866
   164  C   4.0   -0.06    3.03    3.02    57.50505    20.60571    27.22521
   165  C   4.0   -0.10    3.03    3.02    59.89766    22.08754    22.83209
   166  C   4.0   -0.08    3.03    3.02    57.49487    19.03304    25.13959
   167  C   4.0   -0.10    3.03    3.02    58.68995    19.76987    22.93422
   168  H   1.0    0.30    1.00    1.43    53.48404    23.42621    28.78870
   169  H   1.0    0.15    0.99    1.43    56.41851    27.33905    31.43653
   170  H   1.0    0.11    0.99    1.43    60.24145    26.01954    29.25697
   171  H   1.0    0.12    0.99    1.43    58.99593    23.54877    31.12348
   172  H   1.0    0.11    0.99    1.43    60.84531    25.46953    24.84105
   173  H   1.0    0.13    0.99    1.43    56.57279    20.00629    28.93999
   174  H   1.0    0.11    1.00    1.43    60.85097    22.66368    21.12395
   175  H   1.0    0.13    1.00    1.43    56.55137    17.22718    25.26165
   176  H   1.0    0.10    1.00    1.43    58.68022    18.54677    21.30150
   177  N   5.0   -0.50    3.01    1.93    56.33070    30.22749    27.72958
   178  C   4.0    0.07    3.99    3.60    56.34574    32.07719    25.71519
   179  C   4.0    0.26    3.01    3.02    58.59415    33.84797    26.21518
   180  O   6.0   -0.43    1.00    1.80    59.82424    33.69717    28.17981
   181  C   4.0   -0.13    3.98    3.59    53.90765    33.65955    25.53992
   182  C   4.0   -0.08    3.97    3.58    51.47022    32.07335    25.50602
   183  C   4.0   -0.21    3.98    3.59    50.41917    31.78701    28.17821
   184  C   4.0   -0.24    3.98    3.59    49.49474    33.28575    23.78159
   185  H   1.0    0.26    1.00    1.43    57.25067    30.80265    29.30798
   186  H   1.0    0.14    0.99    1.43    56.60879    31.05956    23.92858
   187  H   1.0    0.11    0.99    1.43    53.84329    34.97755    27.12470
   188  H   1.0    0.11    0.99    1.43    54.03010    34.75108    23.79694
   189  H   1.0    0.15    0.99    1.43    51.90478    30.19288    24.76924
   190  H   1.0    0.12    0.99    1.43    48.86695    30.43793    28.21889
   191  H   1.0    0.13    0.99    1.43    51.86596    31.09922    29.46675
   192  H   1.0    0.09    0.99    1.43    49.73627    33.60076    28.86225
   193  H   1.0    0.10    0.99    1.43    47.75610    32.19027    23.83847
   194  H   1.0    0.09    0.99    1.43    49.08450    35.20068    24.40292
   195  H   1.0    0.10    0.99    1.43    50.15998    33.34125    21.83715
   196  N   5.0   -0.48    3.01    1.93    59.03380    35.51011    24.38340
   197  C   4.0    0.08    3.99    3.61    61.09845    37.31194    24.41236
   198  C   4.0    0.27    3.01    3.02    60.18388    39.85550    25.48258
   199  O   6.0   -0.43    1.00    1.80    58.22256    40.84402    24.76303
   200  C   4.0   -0.14    3.98    3.59    62.05917    37.69999    21.71183
   201  C   4.0   -0.12    3.98    3.59    62.99775    35.23118    20.54164
   202  C   4.0    0.27    3.00    3.02    60.87875    33.56520    19.54752
   203  O   6.0   -0.44    1.00    1.80    58.70330    34.29668    19.24188
   204  N   5.0   -0.67    3.00    1.93    61.58820    31.20470    18.96062
   205  H   1.0    0.27    1.00    1.43    57.98424    35.47200    22.77765
   206  H   1.0    0.16    0.99    1.43    62.59035    36.55788    25.63062
   207  H   1.0    0.13    0.99    1.43    60.53224    38.47399    20.55782
   208  H   1.0    0.11    0.99    1.43    63.59279    39.06844    21.77771
   209  H   1.0    0.09    0.99    1.43    64.23746    35.64952    18.94737
   210  H   1.0    0.11    0.99    1.43    64.09133    34.17968    21.93683
   211  H   1.0    0.24    1.00    1.43    63.34937    30.57334    19.29217
   212  H   1.0    0.27    1.00    1.43    60.27521    29.97709    18.33151
   213  N   5.0   -0.48    3.01    1.93    61.71969    40.87668    27.21388
   214  C   4.0    0.07    3.99    3.61    61.15106    43.25414    28.42976
   215  C   4.0    0.05    3.00    3.02    63.33282    45.09397    28.01129
   216  O   6.0   -0.45    1.00    1.80    65.54847    44.39746    28.00721
   217  C   4.0   -0.08    3.98    3.58    60.60940    42.85287    31.26573
   218  C   4.0   -0.24    3.98    3.59    59.78300    45.32965    32.47963
   219  C   4.0   -0.21    3.98    3.59    58.55809    40.84390    31.56696
   220  H   1.0    0.29    1.00    1.43    63.32776    39.96014    27.70507
   221  H   1.0    0.12    0.99    1.43    59.44406    43.98029    27.50755
   222  H   1.0    0.14    0.99    1.43    62.35947    42.20686    32.16488
   223  H   1.0    0.09    0.99    1.43    59.30571    45.00002    34.44738
   224  H   1.0    0.10    0.99    1.43    61.29546    46.71649    32.39865
   225  H   1.0    0.09    0.99    1.43    58.12464    46.07797    31.52284
   226  H   1.0    0.09    0.99    1.43    57.99907    40.70758    33.53484
   227  H   1.0    0.11    0.99    1.43    56.91519    41.36256    30.44415
   228  H   1.0    0.14    0.99    1.43    59.22636    39.01131    30.92554
   229  N   5.0   -0.73    3.00    1.93    42.03636    38.24169    35.25228
   230  C   4.0    0.06    3.98    3.58    42.04319    35.52963    35.61976
   231  C   4.0    0.06    3.00    3.02    40.22919    34.87387    37.77234
   232  O   6.0   -0.45    1.00    1.80    38.70474    33.13902    37.55569
   233  C   4.0   -0.15    3.98    3.59    44.70647    34.47383    36.06825
   234  C   4.0   -0.11    3.98    3.58    45.30273    32.22925    34.32484
   235  C   4.0   -0.22    3.98    3.59    48.08427    31.48876    34.51318
   236  C   4.0   -0.22    3.98    3.59    43.66135    29.93566    34.93814
   237  H   1.0    0.24    1.00    1.43    43.60778    39.25239    35.67161
   238  H   1.0    0.11    0.99    1.43    41.23272    34.67247    33.90976
   239  H   1.0    0.09    0.99    1.43    46.05821    35.99136    35.71277
   240  H   1.0    0.10    0.99    1.43    44.90919    33.88383    38.03369
   241  H   1.0    0.10    0.99    1.43    44.91813    32.81247    32.37428
   242  H   1.0    0.13    0.99    1.43    48.48735    29.95277    33.20790
   243  H   1.0    0.09    0.99    1.43    49.30136    33.08056    34.06076
   244  H   1.0    0.10    0.99    1.43    48.52202    30.83737    36.41144
   245  H   1.0    0.11    0.99    1.43    43.97762    28.46678    33.53434
   246  H   1.0    0.10    0.99    1.43    44.16159    29.17929    36.78313
   247  H   1.0    0.12    0.99    1.43    41.66213    30.40873    34.95991
   248  N   5.0   -0.70    3.00    1.93    67.58524    31.33366    45.30071
   249  C   4.0    0.07    3.98    3.59    69.01745    32.29244    43.17759
   250  C   4.0    0.29    3.01    3.02    70.46617    30.11426    41.91707
   251  O   6.0   -0.40    1.00    1.80    71.13699    28.25945    43.12512
   252  C   4.0   -0.09    3.98    3.58    70.81965    34.38425    44.13803
   253  C   4.0   -0.21    3.98    3.59    73.15515    33.28813    45.42807
   254  C   4.0   -0.24    3.98    3.59    71.62896    36.13695    42.00523
   255  H   1.0    0.26    1.00    1.43    68.52343    31.17987    46.95369
   256  H   1.0    0.10    0.99    1.43    67.64753    33.07974    41.84046
   257  H   1.0    0.09    0.99    1.43    69.74013    35.46683    45.53951
   258  H   1.0    0.09    0.99    1.43    74.28481    34.81249    46.21831
   259  H   1.0    0.10    0.99    1.43    72.63792    32.00735    46.94684
   260  H   1.0    0.15    0.99    1.43    74.31395    32.26279    44.07316
   261  H   1.0    0.09    0.99    1.43    72.71973    37.69106    42.78919
   262  H   1.0    0.13    0.99    1.43    72.81271    35.10853    40.67429
   263  H   1.0    0.09    0.99    1.43    69.98450    36.89345    41.04237
   264  N   5.0   -0.48    3.01    1.93    70.93164    30.37823    39.43449
   265  C   4.0    0.08    3.99    3.61    72.69836    28.70472    38.18088
   266  C   4.0    0.08    3.00    3.02    75.38043    29.40360    39.01077
   267  O   6.0   -0.44    1.00    1.80    75.93299    31.55375    39.68674
   268  C   4.0   -0.10    3.98    3.59    72.46702    28.86027    35.31443
   269  C   4.0    0.30    2.99    3.02    73.22558    26.37581    33.93790
   270  O   6.0   -0.41    1.00    1.80    74.48161    24.79216    35.13645
   271  O   6.0   -0.44    1.00    1.80    72.47869    26.16750    31.70395
   272  H   1.0    0.26    1.00    1.43    70.31639    31.88906    38.45244
   273  H   1.0    0.15    0.99    1.43    72.29452    26.76505    38.79931
   274  H   1.0    0.15    0.99    1.43    70.52252    29.29320    34.79414
   275  H   1.0    0.12    0.99    1.43    73.65638    30.37018    34.54394
   276  H   1.0    0.28    1.00    1.43    70.95045    41.48516    27.47858
   277  H   1.0    0.11    1.00    1.43    51.84615    23.12977    46.73525
   278  H   1.0    0.28    1.00    1.43    41.87390    14.25751    40.22044
   279  H   1.0    0.11    1.00    1.43    62.98046    46.92897    27.72900
   280  H   1.0    0.28    1.00    1.43    41.73738    38.59201    33.61508
   281  H   1.0    0.12    1.00    1.43    40.27564    35.86336    39.38163
   282  H   1.0    0.28    1.00    1.43    66.26620    32.36272    45.60686
   283  H   1.0    0.13    1.00    1.43    76.74093    28.09207    39.01237

           ------------------------------------------------- 
          |        Self-Consistent Charge Iterations        |
           ------------------------------------------------- 

          ...................................................
          :                      SETUP                      :
          :.................................................:
          :  # basis functions                 703          :
          :  # atomic orbitals                 702          :
          :  # shells                          422          :
          :  # electrons                       778          :
          :  max. iterations                   250          :
          :  Hamiltonian                  GFN2-xTB          :
          :  restarted?                      false          :
          :  GBSA solvation                   true          :
          :  PC potential                    false          :
          :  electronic temp.          500.0000000     K    :
          :  accuracy                    0.1000000          :
          :  -> integral cutoff          0.3500000E+02      :
          :  -> integral neglect         0.1000000E-08      :
          :  -> SCF convergence          0.1000000E-06 Eh   :
          :  -> wf. convergence          0.1000000E-04 e    :
          :  Broyden damping             0.4000000          :
          ...................................................

 iter      E             dE          RMSdq      gap      omega  full diag
   1   -446.2263230 -0.446226E+03  0.435E+00    2.05       0.0  T
   2   -447.3391900 -0.111287E+01  0.224E+00    1.69       1.0  T
   3   -447.3746887 -0.354987E-01  0.119E+00    2.04       1.0  T
   4   -447.3940004 -0.193117E-01  0.274E-01    1.51       1.0  T
   5   -447.4046632 -0.106628E-01  0.116E-01    1.71       1.0  T
   6   -447.4049871 -0.323934E-03  0.459E-02    1.70       1.0  T
   7   -447.4050580 -0.708905E-04  0.212E-02    1.72       1.0  T
   8   -447.4050833 -0.252840E-04  0.938E-03    1.72       1.0  T
   9   -447.4050874 -0.407465E-05  0.443E-03    1.72       1.3  T
  10   -447.4050883 -0.963690E-06  0.200E-03    1.72       3.0  T
  11   -447.4050885 -0.140253E-06  0.851E-04    1.72       7.0  T
  12   -447.4050885 -0.248911E-07  0.410E-04    1.72      14.5  T
  13   -447.4050885 -0.111526E-07  0.199E-04    1.72      29.9  T
  14   -447.4050885 -0.185446E-08  0.948E-05    1.72      62.7  T
  15   -447.4050885 -0.358114E-09  0.369E-05    1.72     161.2  T

   *** convergence criteria satisfied after 15 iterations ***

         #    Occupation            Energy/Eh            Energy/eV
      -------------------------------------------------------------
         1        2.0000           -0.7369906             -20.0545
       ...           ...                  ...                  ...
       383        2.0000           -0.3739184             -10.1748
       384        2.0000           -0.3726870             -10.1413
       385        2.0000           -0.3672946              -9.9946
       386        2.0000           -0.3656837              -9.9508
       387        2.0000           -0.3653432              -9.9415
       388        2.0000           -0.3628594              -9.8739
       389        2.0000           -0.3584851              -9.7549 (HOMO)
       390                         -0.2952517              -8.0342 (LUMO)
       391                         -0.2939103              -7.9977
       392                         -0.2937999              -7.9947
       393                         -0.2795731              -7.6076
       394                         -0.2396377              -6.5209
       ...                                ...                  ...
       702                          0.6698849              18.2285
      -------------------------------------------------------------
                  HL-Gap            0.0632334 Eh            1.7207 eV
             Fermi-level           -0.3272773 Eh           -8.9057 eV

 SCC (total)                   0 d,  0 h,  0 min,  6.929 sec
 SCC setup                      ...        0 min,  0.129 sec (  1.859%)
 Dispersion                     ...        0 min,  0.078 sec (  1.124%)
 integral evaluation            ...        0 min,  0.373 sec (  5.384%)
 zeroth order Hamiltonian       ...        0 min,  0.010 sec (  0.150%)
 iterations                     ...        0 min,  4.792 sec ( 69.154%)
 molecular gradient             ...        0 min,  1.511 sec ( 21.810%)
 printout                       ...        0 min,  0.036 sec (  0.517%)

         :::::::::::::::::::::::::::::::::::::::::::::::::::::
         ::                     SUMMARY                     ::
         :::::::::::::::::::::::::::::::::::::::::::::::::::::
         :: total energy             -442.161199242067 Eh   ::
         :: total w/o Gsasa/hb       -442.104740913370 Eh   ::
         :: gradient norm               0.447985595775 Eh/α ::
         :: HOMO-LUMO gap               1.720667581522 eV   ::
         ::.................................................::
         :: SCC energy               -447.417701311155 Eh   ::
         :: -> isotropic ES             1.446930390895 Eh   ::
         :: -> anisotropic ES          -0.017130195364 Eh   ::
         :: -> anisotropic XC           0.124751166541 Eh   ::
         :: -> dispersion              -0.348615716363 Eh   ::
         :: -> Gsolv                   -0.374522315857 Eh   ::
         ::    -> Gborn                -0.318063987161 Eh   ::
         ::    -> Gsasa                -0.014470255206 Eh   ::
         ::    -> Ghb                  -0.043845516617 Eh   ::
         ::    -> Gshift                0.001857443127 Eh   ::
         :: repulsion energy            5.231378521204 Eh   ::
         :: add. restraining            0.000000000000 Eh   ::
         :::::::::::::::::::::::::::::::::::::::::::::::::::::

           -------------------------------------------------
          |                Property Printout                |
           -------------------------------------------------

    * Orbital Energies and Occupations

         #    Occupation            Energy/Eh            Energy/eV
      -------------------------------------------------------------
         1        2.0000           -0.7369906             -20.0545
       ...           ...                  ...                  ...
       377        2.0000           -0.3982589             -10.8372
       378        2.0000           -0.3954078             -10.7596
       379        2.0000           -0.3906997             -10.6315
       380        2.0000           -0.3899628             -10.6114
       381        2.0000           -0.3887067             -10.5772
       382        2.0000           -0.3797162             -10.3326
       383        2.0000           -0.3739184             -10.1748
       384        2.0000           -0.3726870             -10.1413
       385        2.0000           -0.3672946              -9.9946
       386        2.0000           -0.3656837              -9.9508
       387        2.0000           -0.3653432              -9.9415
       388        2.0000           -0.3628594              -9.8739
       389        2.0000           -0.3584851              -9.7549 (HOMO)
       390                         -0.2952517              -8.0342 (LUMO)
       391                         -0.2939103              -7.9977
       392                         -0.2937999              -7.9947
       393                         -0.2795731              -7.6076
       394                         -0.2396377              -6.5209
       395                         -0.2386791              -6.4948
       396                         -0.2368791              -6.4458
       397                         -0.2356246              -6.4117
       398                         -0.2299845              -6.2582
       399                         -0.2282612              -6.2113
       400                         -0.2275565              -6.1921
       ...                                ...                  ...
       702                          0.6698849              18.2285
      -------------------------------------------------------------
                  HL-Gap            0.0632334 Eh            1.7207 eV
             Fermi-level           -0.3272773 Eh           -8.9057 eV

   #   Z        covCN         q      C6AA      α(0)
   1   7 N      2.635    -0.395    30.225     8.165
   2   6 C      3.786     0.031    20.069     6.381
   3   6 C      2.751     0.270    22.434     7.756
   4   8 O      0.858    -0.471    23.153     6.451
   5   6 C      3.839    -0.068    21.774     6.638
   6   6 C      3.795    -0.006    20.692     6.477
   7  16 S      1.975    -0.217   150.334    20.636
   8   6 C      3.744    -0.053    21.606     6.631
   9   1 H      0.860     0.180     1.214     1.726
  10   1 H      0.923     0.040     2.448     2.447
  11   1 H      0.924     0.057     2.240     2.340
  12   1 H      0.924     0.033     2.541     2.493
  13   1 H      0.924     0.041     2.437     2.441
  14   1 H      0.924     0.056     2.243     2.342
  15   1 H      0.926     0.073     2.057     2.243
  16   1 H      0.925     0.045     2.383     2.414
  17   1 H      0.925     0.051     2.306     2.375
  18   7 N      2.695    -0.158    24.427     7.340
  19   6 C      3.790     0.011    20.405     6.433
  20   6 C      2.756     0.269    22.459     7.760
  21   8 O      0.858    -0.475    23.248     6.464
  22   6 C      3.723     0.131    18.555     6.151
  23   8 O      1.653    -0.478    22.435     6.394
  24   6 C      3.753    -0.126    22.968     6.834
  25   1 H      0.860     0.207     1.073     1.622
  26   1 H      0.924     0.079     1.986     2.204
  27   1 H      0.923    -0.003     3.116     2.761
  28   1 H      0.802     0.321     0.662     1.278
  29   1 H      0.925     0.062     2.177     2.307
  30   1 H      0.925     0.042     2.421     2.433
  31   1 H      0.925     0.064     2.154     2.295
  32   7 N      2.690    -0.164    24.556     7.360
  33   6 C      3.790     0.021    20.224     6.405
  34   6 C      2.763     0.266    22.520     7.772
  35   8 O      0.859    -0.485    23.449     6.492
  36   6 C      3.810    -0.076    21.946     6.668
  37   6 C      2.965    -0.001    28.040     8.686
  38   6 C      2.928    -0.043    29.067     8.842
  39   6 C      2.929    -0.042    29.043     8.838
  40   6 C      2.919    -0.075    29.877     8.963
  41   6 C      2.920    -0.060    29.503     8.907
  42   6 C      2.847     0.145    24.841     8.169
  43   8 O      1.659    -0.414    21.117     6.203
  44   1 H      0.860     0.203     1.091     1.636
  45   1 H      0.924     0.072     2.067     2.248
  46   1 H      0.924     0.060     2.197     2.318
  47   1 H      0.924     0.071     2.072     2.251
  48   1 H      0.926     0.038     2.479     2.462
  49   1 H      0.926     0.047     2.355     2.400
  50   1 H      0.925     0.040     2.445     2.445
  51   1 H      0.926     0.063     2.158     2.297
  52   1 H      0.804     0.333     0.629     1.246
  53   7 N      2.689    -0.171    24.690     7.380
  54   6 C      3.799     0.004    20.520     6.450
  55   6 C      2.756     0.276    22.329     7.738
  56   8 O      0.858    -0.468    23.086     6.442
  57   6 C      3.678     0.073    19.568     6.337
  58   8 O      1.654    -0.469    22.228     6.364
  59   1 H      0.860     0.218     1.019     1.581
  60   1 H      0.924     0.082     1.958     2.188
  61   1 H      0.924     0.064     2.156     2.296
  62   1 H      0.923     0.039     2.458     2.452
  63   1 H      0.804     0.339     0.614     1.231
  64   7 N      2.694    -0.153    24.317     7.324
  65   6 C      3.793     0.019    20.266     6.411
  66   6 C      2.771     0.201    23.730     7.978
  67   8 O      0.856    -0.359    20.888     6.128
  68   6 C      3.855    -0.019    20.877     6.498
  69   6 C      3.803    -0.066    21.756     6.641
  70   6 C      3.756    -0.121    22.876     6.820
  71   6 C      3.752    -0.109    22.653     6.787
  72   1 H      0.860     0.201     1.102     1.645
  73   1 H      0.924     0.093     1.848     2.126
  74   1 H      0.924     0.051     2.312     2.378
  75   1 H      0.924     0.057     2.236     2.338
  76   1 H      0.924     0.035     2.514     2.479
  77   1 H      0.925     0.066     2.133     2.284
  78   1 H      0.925     0.039     2.459     2.452
  79   1 H      0.925     0.056     2.251     2.346
  80   1 H      0.925     0.050     2.321     2.382
  81   1 H      0.925     0.031     2.573     2.508
  82   1 H      0.925     0.044     2.399     2.422
  83   7 N      2.637    -0.392    30.155     8.156
  84   6 C      3.781     0.026    20.159     6.396
  85   6 C      2.760     0.272    22.409     7.752
  86   8 O      0.859    -0.489    23.538     6.505
  87   6 C      3.804    -0.074    21.913     6.664
  88   6 C      3.848    -0.007    20.666     6.466
  89   6 C      3.755    -0.099    22.453     6.757
  90   6 C      3.756    -0.112    22.704     6.794
  91   1 H      0.860     0.167     1.289     1.778
  92   1 H      0.924     0.054     2.273     2.358
  93   1 H      0.924     0.024     2.667     2.554
  94   1 H      0.924     0.055     2.256     2.349
  95   1 H      0.924     0.039     2.457     2.451
  96   1 H      0.925     0.037     2.486     2.465
  97   1 H      0.925     0.028     2.609     2.526
  98   1 H      0.925     0.021     2.717     2.578
  99   1 H      0.925     0.048     2.347     2.396
 100   1 H      0.925     0.025     2.661     2.551
 101   1 H      0.925     0.046     2.373     2.409
 102   7 N      2.688    -0.179    24.885     7.409
 103   6 C      3.799     0.024    20.173     6.395
 104   6 C      2.758     0.279    22.275     7.729
 105   8 O      0.858    -0.483    23.418     6.488
 106   6 C      3.757    -0.126    22.965     6.833
 107   1 H      0.860     0.194     1.138     1.671
 108   1 H      0.924     0.083     1.945     2.181
 109   1 H      0.925     0.072     2.066     2.248
 110   1 H      0.925     0.083     1.952     2.185
 111   1 H      0.925     0.048     2.343     2.394
 112   7 N      2.689    -0.199    25.328     7.475
 113   6 C      3.794     0.022    20.207     6.401
 114   6 C      2.757     0.293    22.026     7.685
 115   8 O      0.859    -0.487    23.500     6.499
 116   6 C      3.676     0.068    19.664     6.353
 117   8 O      1.656    -0.491    22.703     6.432
 118   1 H      0.860     0.226     0.982     1.553
 119   1 H      0.923     0.074     2.040     2.234
 120   1 H      0.923     0.064     2.157     2.297
 121   1 H      0.923     0.055     2.261     2.351
 122   1 H      0.805     0.365     0.554     1.169
 123   7 N      2.690    -0.171    24.704     7.382
 124   6 C      3.798     0.021    20.230     6.404
 125   6 C      2.753     0.285    22.177     7.711
 126   8 O      0.858    -0.492    23.605     6.514
 127   6 C      3.675     0.072    19.595     6.343
 128   8 O      1.656    -0.467    22.202     6.361
 129   1 H      0.860     0.231     0.962     1.537
 130   1 H      0.923     0.079     1.986     2.204
 131   1 H      0.923     0.041     2.436     2.441
 132   1 H      0.923     0.037     2.495     2.470
 133   1 H      0.805     0.362     0.560     1.175
 134   7 N      2.693    -0.217    25.722     7.533
 135   6 C      3.794     0.053    19.697     6.320
 136   6 C      2.755     0.277    22.309     7.735
 137   8 O      0.858    -0.500    23.794     6.540
 138   6 C      3.804    -0.095    22.305     6.724
 139   6 C      2.684     0.370    20.721     7.449
 140   8 O      0.856    -0.611    26.385     6.887
 141   8 O      0.856    -0.608    26.305     6.876
 142   1 H      0.859     0.232     0.955     1.531
 143   1 H      0.923     0.028     2.616     2.529
 144   1 H      0.924     0.035     2.523     2.484
 145   1 H      0.925     0.035     2.516     2.481
 146   7 N      2.690    -0.192    25.155     7.449
 147   6 C      3.795     0.031    20.052     6.377
 148   6 C      2.757     0.283    22.210     7.717
 149   8 O      0.858    -0.474    23.206     6.459
 150   6 C      3.681     0.083    19.398     6.308
 151   8 O      1.656    -0.474    22.335     6.380
 152   1 H      0.860     0.221     1.007     1.572
 153   1 H      0.923     0.076     2.020     2.223
 154   1 H      0.924     0.047     2.360     2.403
 155   1 H      0.923     0.035     2.521     2.483
 156   1 H      0.805     0.353     0.582     1.198
 157   7 N      2.688    -0.173    24.736     7.387
 158   6 C      3.798     0.027    20.125     6.388
 159   6 C      2.752     0.278    22.289     7.731
 160   8 O      0.858    -0.475    23.241     6.464
 161   6 C      3.810    -0.069    21.819     6.649
 162   6 C      2.969     0.015    27.668     8.628
 163   6 C      2.926    -0.037    28.909     8.817
 164   6 C      2.926    -0.030    28.749     8.793
 165   6 C      2.920    -0.035    28.870     8.811
 166   6 C      2.920    -0.027    28.665     8.780
 167   6 C      2.921    -0.037    28.923     8.819
 168   1 H      0.860     0.202     1.096     1.640
 169   1 H      0.924     0.072     2.066     2.248
 170   1 H      0.924     0.048     2.344     2.394
 171   1 H      0.924     0.059     2.213     2.326
 172   1 H      0.926     0.026     2.646     2.544
 173   1 H      0.926     0.019     2.747     2.592
 174   1 H      0.926     0.050     2.325     2.385
 175   1 H      0.926     0.032     2.558     2.501
 176   1 H      0.926     0.048     2.347     2.396
 177   7 N      2.693    -0.179    24.875     7.407
 178   6 C      3.791     0.023    20.202     6.401
 179   6 C      2.757     0.264    22.546     7.776
 180   8 O      0.858    -0.499    23.769     6.537
 181   6 C      3.806    -0.076    21.940     6.668
 182   6 C      3.849    -0.007    20.662     6.466
 183   6 C      3.756    -0.102    22.507     6.764
 184   6 C      3.755    -0.116    22.773     6.804
 185   1 H      0.860     0.203     1.093     1.637
 186   1 H      0.924     0.062     2.178     2.308
 187   1 H      0.924     0.054     2.270     2.356
 188   1 H      0.924     0.062     2.171     2.304
 189   1 H      0.924     0.028     2.610     2.526
 190   1 H      0.925     0.028     2.619     2.531
 191   1 H      0.925     0.022     2.711     2.575
 192   1 H      0.925     0.049     2.334     2.389
 193   1 H      0.925     0.035     2.515     2.480
 194   1 H      0.925     0.053     2.283     2.363
 195   1 H      0.925     0.043     2.407     2.426
 196   7 N      2.691    -0.165    24.566     7.361
 197   6 C      3.795     0.011    20.398     6.431
 198   6 C      2.756     0.272    22.399     7.750
 199   8 O      0.858    -0.487    23.488     6.498
 200   6 C      3.808    -0.069    21.812     6.648
 201   6 C      3.807    -0.106    22.525     6.756
 202   6 C      2.743     0.287    22.127     7.702
 203   8 O      0.859    -0.501    23.815     6.543
 204   7 N      2.639    -0.290    27.490     7.787
 205   1 H      0.860     0.219     1.015     1.578
 206   1 H      0.924     0.088     1.898     2.154
 207   1 H      0.924     0.074     2.038     2.232
 208   1 H      0.925     0.070     2.089     2.260
 209   1 H      0.924     0.096     1.824     2.112
 210   1 H      0.924     0.066     2.125     2.280
 211   1 H      0.860     0.230     0.966     1.539
 212   1 H      0.860     0.228     0.975     1.546
 213   7 N      2.691    -0.169    24.646     7.373
 214   6 C      3.797     0.020    20.247     6.407
 215   6 C      2.766     0.199    23.764     7.984
 216   8 O      0.856    -0.361    20.913     6.131
 217   6 C      3.852    -0.009    20.699     6.471
 218   6 C      3.757    -0.124    22.938     6.829
 219   6 C      3.757    -0.115    22.750     6.800
 220   1 H      0.860     0.222     0.999     1.566
 221   1 H      0.924     0.094     1.845     2.124
 222   1 H      0.924     0.046     2.372     2.408
 223   1 H      0.925     0.062     2.173     2.305
 224   1 H      0.925     0.049     2.338     2.391
 225   1 H      0.925     0.059     2.216     2.328
 226   1 H      0.925     0.060     2.200     2.320
 227   1 H      0.925     0.049     2.331     2.388
 228   1 H      0.925     0.032     2.565     2.504
 229   7 N      2.636    -0.392    30.140     8.154
 230   6 C      3.782     0.039    19.934     6.360
 231   6 C      2.766     0.202    23.698     7.972
 232   8 O      0.856    -0.386    21.408     6.203
 233   6 C      3.805    -0.074    21.903     6.663
 234   6 C      3.849    -0.006    20.656     6.464
 235   6 C      3.757    -0.107    22.595     6.777
 236   6 C      3.756    -0.107    22.608     6.779
 237   1 H      0.860     0.172     1.263     1.760
 238   1 H      0.923     0.049     2.336     2.390
 239   1 H      0.924     0.062     2.181     2.309
 240   1 H      0.924     0.049     2.338     2.391
 241   1 H      0.924     0.026     2.649     2.545
 242   1 H      0.925     0.033     2.545     2.495
 243   1 H      0.925     0.037     2.487     2.466
 244   1 H      0.925     0.036     2.496     2.471
 245   1 H      0.925     0.022     2.706     2.573
 246   1 H      0.925     0.036     2.499     2.472
 247   1 H      0.925     0.042     2.418     2.432
 248   7 N      2.637    -0.393    30.179     8.159
 249   6 C      3.786     0.030    20.085     6.383
 250   6 C      2.757     0.278    22.291     7.732
 251   8 O      0.858    -0.497    23.722     6.530
 252   6 C      3.852    -0.019    20.882     6.500
 253   6 C      3.756    -0.103    22.524     6.767
 254   6 C      3.757    -0.120    22.860     6.817
 255   1 H      0.860     0.161     1.328     1.805
 256   1 H      0.924     0.035     2.523     2.484
 257   1 H      0.924     0.044     2.395     2.420
 258   1 H      0.925     0.049     2.329     2.386
 259   1 H      0.925     0.036     2.505     2.475
 260   1 H      0.925     0.024     2.675     2.558
 261   1 H      0.925     0.053     2.287     2.365
 262   1 H      0.925     0.037     2.490     2.467
 263   1 H      0.925     0.047     2.359     2.402
 264   7 N      2.690    -0.185    25.016     7.428
 265   6 C      3.795     0.050    19.742     6.327
 266   6 C      2.768     0.209    23.579     7.952
 267   8 O      0.856    -0.367    21.024     6.148
 268   6 C      3.802    -0.096    22.329     6.728
 269   6 C      2.684     0.370    20.722     7.450
 270   8 O      0.856    -0.624    26.712     6.929
 271   8 O      0.856    -0.625    26.731     6.932
 272   1 H      0.860     0.212     1.048     1.603
 273   1 H      0.923     0.067     2.116     2.275
 274   1 H      0.925     0.068     2.110     2.272
 275   1 H      0.924     0.037     2.494     2.469
 276   1 H      0.862     0.181     1.206     1.720
 277   1 H      0.930     0.090     1.881     2.145
 278   1 H      0.862     0.185     1.188     1.707
 279   1 H      0.930     0.090     1.876     2.141
 280   1 H      0.862     0.185     1.185     1.705
 281   1 H      0.930     0.081     1.965     2.192
 282   1 H      0.862     0.187     1.173     1.696
 283   1 H      0.930     0.063     2.168     2.302

 Mol. C6AA /au·bohr⁶  :     761847.216436
 Mol. C8AA /au·bohr⁸  :   17111384.037339
 Mol. α(0) /au        :       1307.903824


Wiberg/Mayer (AO) data.
largest (>0.10) Wiberg bond orders for each atom
          total WBO             WBO to atom ...
     1  N   2.992        C    2 1.032    H  276 0.953    H    9 0.930
     2  C   3.989        N    1 1.032    C    5 0.959    H   10 0.953    C    3 0.940
     3  C   3.940        O    4 1.623    N   18 1.296    C    2 0.940
     4  O   1.978        C    3 1.623    N   18 0.189
     5  C   3.993        C    6 1.012    H   11 0.973    H   12 0.970    C    2 0.959
     6  C   3.980        C    5 1.012    S    7 0.986    H   14 0.974    H   13 0.973
     7  S   2.082        C    8 1.010    C    6 0.986
     8  C   3.976        S    7 1.010    H   17 0.984    H   16 0.983    H   15 0.978
     9  H   0.968        N    1 0.930
    10  H   0.998        C    2 0.953
    11  H   0.997        C    5 0.973
    12  H   0.999        C    5 0.970
    13  H   0.998        C    6 0.973
    14  H   0.997        C    6 0.974
    15  H   0.994        C    8 0.978
    16  H   0.998        C    8 0.983
    17  H   0.997        C    8 0.984
    18  N   3.479        C    3 1.296    C   19 0.995    H   25 0.919    O    4 0.189
    19  C   3.971        N   18 0.995    H   26 0.955    C   20 0.942    C   22 0.934
    20  C   3.951        O   21 1.621    N   32 1.303    C   19 0.942
    21  O   1.966        C   20 1.621    N   32 0.194
    22  C   3.960        O   23 1.006    C   24 0.996    H   27 0.966    C   19 0.934
    23  O   1.949        C   22 1.006    H   28 0.829
    24  C   3.992        C   22 0.996    H   30 0.985    H   31 0.984    H   29 0.983
    25  H   0.957        N   18 0.919
    26  H   0.994        C   19 0.955
    27  H   1.000        C   22 0.966
    28  H   0.897        O   23 0.829
    29  H   0.996        C   24 0.983
    30  H   0.998        C   24 0.985
    31  H   0.996        C   24 0.984
    32  N   3.474        C   20 1.303    C   33 0.985    H   44 0.919    O   21 0.194
    33  C   3.963        N   32 0.985    C   36 0.956    H   45 0.948    C   34 0.942
    34  C   3.948        O   35 1.640    N   53 1.292    C   33 0.942
    35  O   1.967        C   34 1.640    N   53 0.194
    36  C   3.984        C   37 1.006    H   46 0.972    C   33 0.956    H   47 0.955
    37  C   3.986        C   38 1.413    C   39 1.399    C   36 1.006
    38  C   3.990        C   40 1.447    C   37 1.413    H   48 0.952    C   41 0.106
    39  C   3.988        C   41 1.463    C   37 1.399    H   49 0.967    C   40 0.104
    40  C   3.987        C   38 1.447    C   42 1.371    H   50 0.957    C   39 0.104
    41  C   3.986        C   39 1.463    C   42 1.358    H   51 0.962    C   38 0.106
    42  C   3.942        C   40 1.371    C   41 1.358    O   43 1.081
    43  O   2.109        C   42 1.081    H   52 0.863
    44  H   0.959        N   32 0.919
    45  H   0.995        C   33 0.948
    46  H   0.996        C   36 0.972
    47  H   0.993        C   36 0.955
    48  H   0.999        C   38 0.952
    49  H   0.998        C   39 0.967
    50  H   0.998        C   40 0.957
    51  H   0.995        C   41 0.962
    52  H   0.889        O   43 0.863
    53  N   3.463        C   34 1.292    C   54 0.990    H   59 0.915    O   35 0.194
    54  C   3.965        N   53 0.990    C   57 0.951    H   60 0.947    C   55 0.940
    55  C   3.957        O   56 1.636    N   64 1.307    C   54 0.940
    56  O   1.966        C   55 1.636    N   64 0.201
    57  C   3.959        O   58 1.013    H   61 0.969    H   62 0.965    C   54 0.951
    58  O   1.945        C   57 1.013    H   63 0.870
    59  H   0.952        N   53 0.915
    60  H   0.993        C   54 0.947
    61  H   0.996        C   57 0.969
    62  H   0.998        C   57 0.965
    63  H   0.885        O   58 0.870
    64  N   3.488        C   55 1.307    C   65 0.970    H   72 0.927    O   56 0.201
    65  C   3.954        C   66 0.972    N   64 0.970    H   73 0.957    C   68 0.941
    66  C   3.897        O   67 1.905    C   65 0.972    H  277 0.951
    67  O   2.049        C   66 1.905
    68  C   3.983        C   70 1.008    C   69 0.993    H   74 0.964    C   65 0.941
    69  C   3.994        C   71 1.019    C   68 0.993    H   76 0.975    H   75 0.975
    70  C   3.992        C   68 1.008    H   79 0.984    H   77 0.981    H   78 0.981
    71  C   3.995        C   69 1.019    H   82 0.986    H   80 0.985    H   81 0.981
    72  H   0.960        N   64 0.927
    73  H   0.991        C   65 0.957
    74  H   0.997        C   68 0.964
    75  H   0.997        C   69 0.975
    76  H   0.999        C   69 0.975
    77  H   0.995        C   70 0.981
    78  H   0.998        C   70 0.981
    79  H   0.997        C   70 0.984
    80  H   0.997        C   71 0.985
    81  H   0.999        C   71 0.981
    82  H   0.998        C   71 0.986
    83  N   2.989        C   84 1.028    H  278 0.943    H   91 0.943
    84  C   3.988        N   83 1.028    C   87 0.969    C   85 0.949    H   92 0.945
    85  C   3.936        O   86 1.638    N  102 1.273    C   84 0.949
    86  O   1.959        C   85 1.638    N  102 0.180
    87  C   3.994        C   88 0.999    H   94 0.974    H   93 0.973    C   84 0.969
    88  C   3.996        C   89 1.010    C   90 1.006    C   87 0.999    H   95 0.958
    89  C   3.997        C   88 1.010    H   96 0.985    H   98 0.984    H   97 0.984
    90  C   3.994        C   88 1.006    H  100 0.988    H  101 0.986    H   99 0.985
    91  H   0.972        N   83 0.943
    92  H   0.997        C   84 0.945
    93  H   0.999        C   87 0.973
    94  H   0.997        C   87 0.974
    95  H   0.998        C   88 0.958
    96  H   0.999        C   89 0.985
    97  H   0.999        C   89 0.984
    98  H   1.000        C   89 0.984
    99  H   0.997        C   90 0.985
   100  H   0.999        C   90 0.988
   101  H   0.998        C   90 0.986
   102  N   3.443        C   85 1.273    C  103 0.982    H  107 0.928    O   86 0.180
   103  C   3.968        C  106 0.993    N  102 0.982    H  108 0.952    C  104 0.930
   104  C   3.939        O  105 1.665    N  112 1.266    C  103 0.930
   105  O   1.981        C  104 1.665    N  112 0.191
   106  C   3.984        C  103 0.993    H  111 0.983    H  109 0.980    H  110 0.978
   107  H   0.962        N  102 0.928
   108  H   0.993        C  103 0.952
   109  H   0.994        C  106 0.980
   110  H   0.993        C  106 0.978
   111  H   0.998        C  106 0.983
   112  N   3.427        C  104 1.266    C  113 0.980    H  118 0.916    O  105 0.191
   113  C   3.966        N  112 0.980    C  116 0.978    H  119 0.953    C  114 0.934
   114  C   3.942        O  115 1.617    N  123 1.308    C  113 0.934
   115  O   1.981        C  114 1.617    N  123 0.191
   116  C   3.955        O  117 1.007    C  113 0.978    H  120 0.966    H  121 0.964
   117  O   1.916        C  116 1.007    H  122 0.853
   118  H   0.949        N  112 0.916
   119  H   0.994        C  113 0.953
   120  H   0.996        C  116 0.966
   121  H   0.997        C  116 0.964
   122  H   0.866        O  117 0.853
   123  N   3.470        C  114 1.308    C  124 0.982    H  129 0.913    O  115 0.191
   124  C   3.968        N  123 0.982    C  127 0.980    H  130 0.949    C  125 0.930
   125  C   3.947        O  126 1.633    N  134 1.295    C  124 0.930
   126  O   1.960        C  125 1.633    N  134 0.194
   127  C   3.965        O  128 1.010    C  124 0.980    H  132 0.970    H  131 0.962
   128  O   1.927        C  127 1.010    H  133 0.855
   129  H   0.947        N  123 0.913
   130  H   0.993        C  124 0.949
   131  H   0.998        C  127 0.962
   132  H   0.998        C  127 0.970
   133  H   0.868        O  128 0.855
   134  N   3.445        C  125 1.295    C  135 0.990    H  142 0.850    O  126 0.194
   135  C   3.973        N  134 0.990    C  138 0.971    H  143 0.949    C  136 0.936
   136  C   3.950        O  137 1.621    N  146 1.307    C  135 0.936
   137  O   1.935        C  136 1.621    N  146 0.194
   138  C   3.979        H  145 0.980    H  144 0.972    C  135 0.971    C  139 0.907
   139  C   3.939        O  141 1.546    O  140 1.458    C  138 0.907
   140  O   1.846        C  139 1.458    O  141 0.215
   141  O   1.841        C  139 1.546    O  140 0.215
   142  H   0.946        N  134 0.850
   143  H   0.999        C  135 0.949
   144  H   0.999        C  138 0.972
   145  H   0.998        C  138 0.980
   146  N   3.465        C  136 1.307    C  147 0.983    H  152 0.886    O  137 0.194
   147  C   3.963        N  146 0.983    C  150 0.974    H  153 0.952    C  148 0.933
   148  C   3.950        O  149 1.644    N  157 1.296    C  147 0.933
   149  O   1.960        C  148 1.644    N  157 0.196
   150  C   3.960        O  151 1.009    C  147 0.974    H  155 0.964    H  154 0.962
   151  O   1.926        C  150 1.009    H  156 0.863
   152  H   0.951        N  146 0.886
   153  H   0.993        C  147 0.952
   154  H   0.997        C  150 0.962
   155  H   0.999        C  150 0.964
   156  H   0.875        O  151 0.863
   157  N   3.473        C  148 1.296    C  158 0.985    H  168 0.914    O  149 0.196
   158  C   3.964        N  157 0.985    H  169 0.953    C  161 0.949    C  159 0.938
   159  C   3.950        O  160 1.655    N  177 1.286    C  158 0.938
   160  O   1.977        C  159 1.655    N  177 0.201
   161  C   3.990        C  162 1.013    H  170 0.971    H  171 0.966    C  158 0.949
   162  C   3.988        C  164 1.412    C  163 1.412    C  161 1.013    C  167 0.109
   163  C   3.991        C  165 1.446    C  162 1.412    H  172 0.969    C  166 0.111
   164  C   3.992        C  166 1.444    C  162 1.412    H  173 0.966    C  165 0.111
   165  C   3.991        C  163 1.446    C  167 1.437    H  174 0.970    C  164 0.111
   166  C   3.992        C  164 1.444    C  167 1.439    H  175 0.969    C  163 0.111
   167  C   3.990        C  166 1.439    C  165 1.437    H  176 0.970    C  162 0.109
   168  H   0.959        N  157 0.914
   169  H   0.994        C  158 0.953
   170  H   0.997        C  161 0.971
   171  H   0.996        C  161 0.966
   172  H   0.999        C  163 0.969
   173  H   1.000        C  164 0.966
   174  H   0.997        C  165 0.970
   175  H   0.999        C  166 0.969
   176  H   0.997        C  167 0.970
   177  N   3.461        C  159 1.286    C  178 0.984    H  185 0.913    O  160 0.201
   178  C   3.963        N  177 0.984    C  181 0.967    H  186 0.949    C  179 0.937
   179  C   3.955        O  180 1.607    N  196 1.334    C  178 0.937
   180  O   1.947        C  179 1.607    N  196 0.199
   181  C   3.988        C  182 0.990    H  187 0.976    H  188 0.968    C  178 0.967
   182  C   3.994        C  183 1.010    C  184 1.008    C  181 0.990    H  189 0.967
   183  C   3.996        C  182 1.010    H  190 0.985    H  191 0.985    H  192 0.985
   184  C   3.995        C  182 1.008    H  193 0.986    H  195 0.986    H  194 0.986
   185  H   0.959        N  177 0.913
   186  H   0.996        C  178 0.949
   187  H   0.997        C  181 0.976
   188  H   0.996        C  181 0.968
   189  H   0.999        C  182 0.967
   190  H   0.999        C  183 0.985
   191  H   1.000        C  183 0.985
   192  H   0.998        C  183 0.985
   193  H   0.998        C  184 0.986
   194  H   0.997        C  184 0.986
   195  H   0.998        C  184 0.986
   196  N   3.495        C  179 1.334    C  197 0.975    H  205 0.898    O  180 0.199
   197  C   3.956        C  200 0.981    N  196 0.975    H  206 0.945    C  198 0.926
   198  C   3.953        O  199 1.636    N  213 1.311    C  197 0.926
   199  O   1.955        C  198 1.636    N  213 0.204
   200  C   3.988        C  201 1.007    C  197 0.981    H  208 0.972    H  207 0.969
   201  C   3.994        C  200 1.007    C  202 0.974    H  210 0.961    H  209 0.948
   202  C   3.941        O  203 1.624    N  204 1.309    C  201 0.974
   203  O   1.951        C  202 1.624    N  204 0.192
   204  N   3.393        C  202 1.309    H  211 0.929    H  212 0.927    O  203 0.192
   205  H   0.952        N  196 0.898
   206  H   0.992        C  197 0.945
   207  H   0.994        C  200 0.969
   208  H   0.994        C  200 0.972
   209  H   0.990        C  201 0.948
   210  H   0.996        C  201 0.961
   211  H   0.947        N  204 0.929
   212  H   0.948        N  204 0.927
   213  N   3.484        C  198 1.311    C  214 0.983    H  220 0.894    O  199 0.204
   214  C   3.962        C  215 0.987    N  213 0.983    H  221 0.944    C  217 0.931
   215  C   3.898        O  216 1.885    C  214 0.987    H  279 0.951
   216  O   2.056        C  215 1.885
   217  C   3.985        C  218 1.008    C  219 1.007    H  222 0.965    C  214 0.931
   218  C   3.991        C  217 1.008    H  225 0.984    H  224 0.984    H  223 0.978
   219  C   3.994        C  217 1.007    H  228 0.986    H  227 0.985    H  226 0.979
   220  H   0.951        N  213 0.894
   221  H   0.991        C  214 0.944
   222  H   0.998        C  217 0.965
   223  H   0.995        C  218 0.978
   224  H   0.998        C  218 0.984
   225  H   0.997        C  218 0.984
   226  H   0.995        C  219 0.979
   227  H   0.998        C  219 0.985
   228  H   0.999        C  219 0.986
   229  N   3.000        C  230 1.014    H  280 0.954    H  237 0.949
   230  C   3.985        N  229 1.014    C  231 0.976    C  233 0.960    H  238 0.958
   231  C   3.888        O  232 1.889    C  230 0.976    H  281 0.952
   232  O   2.028        C  231 1.889
   233  C   3.992        C  234 0.995    H  240 0.973    H  239 0.965    C  230 0.960
   234  C   3.995        C  236 1.009    C  235 1.007    C  233 0.995    H  241 0.968
   235  C   3.995        C  234 1.007    H  243 0.986    H  242 0.984    H  244 0.979
   236  C   3.996        C  234 1.009    H  245 0.987    H  246 0.986    H  247 0.983
   237  H   0.971        N  229 0.949
   238  H   0.998        C  230 0.958
   239  H   0.996        C  233 0.965
   240  H   0.998        C  233 0.973
   241  H   0.999        C  234 0.968
   242  H   0.998        C  235 0.984
   243  H   0.999        C  235 0.986
   244  H   0.999        C  235 0.979
   245  H   0.999        C  236 0.987
   246  H   0.999        C  236 0.986
   247  H   0.998        C  236 0.983
   248  N   2.994        C  249 1.022    H  255 0.955    H  282 0.954
   249  C   3.985        N  248 1.022    H  256 0.952    C  252 0.952    C  250 0.943
   250  C   3.935        O  251 1.646    N  264 1.274    C  249 0.943
   251  O   1.950        C  250 1.646    N  264 0.190
   252  C   3.993        C  253 1.011    C  254 1.010    H  257 0.965    C  249 0.952
   253  C   3.996        C  252 1.011    H  258 0.985    H  260 0.983    H  259 0.983
   254  C   3.994        C  252 1.010    H  261 0.984    H  262 0.980    H  263 0.978
   255  H   0.974        N  248 0.955
   256  H   0.999        C  249 0.952
   257  H   0.998        C  252 0.965
   258  H   0.998        C  253 0.985
   259  H   0.999        C  253 0.983
   260  H   0.999        C  253 0.983
   261  H   0.997        C  254 0.984
   262  H   0.999        C  254 0.980
   263  H   0.998        C  254 0.978
   264  N   3.451        C  250 1.274    C  265 0.987    H  272 0.914    O  251 0.190
   265  C   3.975        N  264 0.987    C  266 0.982    C  268 0.964    H  273 0.942
   266  C   3.903        O  267 1.882    C  265 0.982    H  283 0.956
   267  O   2.031        C  266 1.882
   268  C   3.979        H  275 0.965    C  265 0.964    H  274 0.952    C  269 0.915
   269  C   3.937        O  270 1.526    O  271 1.472    C  268 0.915
   270  O   1.821        C  269 1.526    O  271 0.214
   271  O   1.834        C  269 1.472    O  270 0.214
   272  H   0.955        N  264 0.914
   273  H   0.995        C  265 0.942
   274  H   0.995        C  268 0.952
   275  H   0.999        C  268 0.965
   276  H   0.967        N    1 0.953
   277  H   0.992        C   66 0.951
   278  H   0.966        N   83 0.943
   279  H   0.991        C  215 0.951
   280  H   0.966        N  229 0.954
   281  H   0.993        C  231 0.952
   282  H   0.965        N  248 0.954
   283  H   0.996        C  266 0.956
 
molecular dipole:
                 x           y           z       tot (Debye)
 q only:     -116.556     -50.651     -61.861
   full:     -115.546     -52.146     -62.810     359.601
molecular quadrupole (traceless):
                xx          xy          yy          xz          yz          zz
 q only:    -5671.072   -4443.314    3375.219   -5629.468   -2268.848    2295.853
  q+dip:    -5461.675   -4523.484    3246.111   -5641.481   -2372.715    2215.564
   full:    -5460.804   -4526.337    3243.852   -5642.045   -2373.950    2216.952


           -------------------------------------------------
          | TOTAL ENERGY             -442.161199242067 Eh   |
          | GRADIENT NORM               0.447985595775 Eh/α |
          | HOMO-LUMO GAP               1.720667581522 eV   |
           -------------------------------------------------

------------------------------------------------------------------------
 * finished run on 2019/05/31 at 06:33:16.970     
------------------------------------------------------------------------
 total:
 * wall-time:     0 d,  0 h,  0 min,  7.574 sec
 *  cpu-time:     0 d,  0 h,  0 min, 14.549 sec
 * ratio c/w:     1.921 speedup
 SCF:
 * wall-time:     0 d,  0 h,  0 min,  6.932 sec
 *  cpu-time:     0 d,  0 h,  0 min, 13.459 sec
 * ratio c/w:     1.942 speedup

