      -----------------------------------------------------------      
     |                   =====================                   |     
     |                           x T B                           |     
     |                   =====================                   |     
     |                         S. Grimme                         |     
     |          Mulliken Center for Theoretical Chemistry        |     
     |                    University of Bonn                     |     
     |                 Version 6.0.1 (SAW181210)                 |     
      -----------------------------------------------------------      

   This program is distributed in the hope that it will be useful,
   but WITHOUT ANY WARRANTY; without even the implied warranty of
   MERCHANTABILITY or FITNESS FOR A PARTICULAR PURPOSE.
   
   FOR NON-COMMERCIAL, ACADEMIA USE ONLY.
   
   Cite this work as:
   S. Grimme, C. Bannwarth, P. Shushkov, J. Comput. Theory Chem., 2017,
   13, 1989-2009.
   C. Bannwarth, S. Ehlert and S. Grimme., ChemRxiv, 2018, preprint.
   http://doi.org/10.26434/chemrxiv.7246238.v1
   
   for sTDA-xTB:
   S. Grimme and C. Bannwarth, J. Chem. Phys., 2016, 145, 054103.
   
   in the mass-spec context:
   V. Asgeirsson, C. Bauer and S. Grimme, Chem. Sci., 2017, 8, 4879.
   
   if GBSA is used:
   P. Shushkov, F. März and S. Grimme, unpublished.
   
   for ANC optimizer:
   S. Grimme, unpublished.
   Rational Function algorithm used in ANCopt:
   F. Eckert, P. Pulay, H.-J. Werner, J. Comput. Chem., 1997, 18, 1473.
   
   with help from (in alphabetical order)
   C. Bannwarth, F. Bohle, G. Brandenburg, E. Caldeweyher, M. Checinski,
   S. Dohm, S. Ehlert, S. Ehrlich, F. März, H. Neugebauer, J. Pisarek,
   P. Pracht, P. Shushkov, and S. Spicher.
   
 * started run on 2019/03/07 at 11:37:45.090     
========================================================================
 # omp threads = 1
========================================================================
number of atoms            : 176
number of electrons        : 476
charge                     : 0
spin                       : .0
first test random number   : .3081
           ------------------------------------------------- 
          |                 G F N 2 - x T B                 |
          | Geometry, Frequencies, Noncovalent interactions |
          |            JCTC 2018 parametrisation            |
           ------------------------------------------------- 
 
      method parameters     
 k(s)        :  1.8500
 k(p)        :  2.2300
 k(d)        :  2.2300
 k(f)        :  2.0000
 kEN (H0ij)  : -2.0000
 D4 a1       :  0.5200
 D4 a2       :  5.0000
 D4 s6       :  1.0000
 D4 s8       :  2.7000
 D4 s9       :  5.0000
 alphaj      :  2.0000

 Solvent             : h2o
 Using internal parameter file: .param_gbsa2_h2o
 Gsolv ref. state (COSMO-RS): gsolv [1 M gas/solution]
 temperature (mdtemp)       :    298.150000000000     
 dielectric constant        :    80.2000000000000     
 rho                        :    1.00000000000000     
 mass                       :    18.0000000000000     
 surface tension            :    15.5689454083859     
 probe radius               :   0.975313790000000     
 vdW radii scaling          :    1.00000000000000     
 Gshift (Eh)                :   1.857443126794793E-003
 c1                         :    1.55243817000000     
 soset                      :   0.130326360000000     
 HB correction              :  T

            Z     q(EN)     CN     RAES       Cart. coordinates
     1  N   5.0   -0.23    3.27    1.97   257.47516   126.95179   245.82122
     2  C   4.0    0.03    4.32    4.23   260.16991   126.72313   245.37336
     3  C   4.0    0.08    3.25    3.04   260.45148   125.37198   242.85057
     4  O   6.0   -0.32    1.20    1.80   262.01995   126.08063   241.29344
     5  C   4.0   -0.04    4.37    4.33   261.49650   125.18679   247.40859
     6  C   4.0    0.25    3.14    3.03   261.18280   126.26393   250.07310
     7  O   6.0   -0.27    1.17    1.80   261.50973   128.59963   250.42270
     8  O   6.0   -0.27    1.18    1.80   260.70281   124.75593   251.78142
     9  H   1.0    0.12    1.09    1.44   256.98950   126.33385   247.24418
    10  H   1.0    0.06    1.12    1.45   260.93525   128.38798   245.38469
    11  H   1.0    0.05    1.10    1.44   260.84643   123.47280   247.37835
    12  H   1.0    0.05    1.09    1.44   263.28418   125.09041   247.01175
    13  N   5.0   -0.23    3.27    1.97   259.10221   129.82795   237.87303
    14  C   4.0    0.04    4.35    4.30   261.29241   131.50414   237.68406
    15  C   4.0    0.17    3.44    3.09   263.34465   130.17188   236.12504
    16  O   6.0   -0.30    1.29    1.80   264.32920   131.25092   234.33358
    17  C   4.0    0.03    4.26    4.12   262.20703   132.18822   240.34102
    18  O   6.0   -0.27    2.09    1.84   264.05708   134.10629   240.28243
    19  H   1.0    0.11    1.08    1.44   258.59577   129.55394   239.39237
    20  H   1.0    0.06    1.12    1.45   260.85588   133.06883   236.83557
    21  H   1.0    0.04    1.07    1.44   260.78407   132.74191   241.35580
    22  H   1.0    0.06    1.08    1.44   262.89678   130.69723   241.15360
    23  H   1.0    0.14    1.08    1.44   264.52006   134.44266   241.76398
    24  N   5.0   -0.16    3.51    2.09   263.79629   127.75681   236.68062
    25  C   4.0    0.04    4.45    4.46   265.67090   126.24503   235.36348
    26  C   4.0    0.09    3.29    3.05   265.04918   126.15621   232.54023
    27  O   6.0   -0.30    1.18    1.80   266.70269   126.30361   230.92829
    28  C   4.0   -0.03    4.44    4.44   265.76161   123.48225   236.39149
    29  C   4.0   -0.05    4.33    4.26   266.48537   123.37076   239.19017
    30  C   4.0   -0.08    4.28    4.16   267.63811   121.91945   234.90238
    31  C   4.0   -0.09    4.16    3.91   266.67435   120.72892   240.26732
    32  H   1.0    0.12    1.17    1.46   263.00828   126.94990   237.85036
    33  H   1.0    0.06    1.13    1.45   267.30363   127.02927   235.64127
    34  H   1.0    0.05    1.13    1.45   264.07030   122.80195   236.20252
    35  H   1.0    0.05    1.10    1.44   268.09731   124.21547   239.41505
    36  H   1.0    0.07    1.11    1.45   265.24571   124.31373   240.15771
    37  H   1.0    0.04    1.06    1.44   267.67212   120.20925   235.56379
    38  H   1.0    0.06    1.06    1.44   267.13922   121.88165   233.13927
    39  H   1.0    0.05    1.06    1.44   269.30673   122.66400   235.04978
    40  H   1.0    0.05    1.06    1.44   267.13733   120.82152   242.03799
    41  H   1.0    0.05    1.06    1.44   265.05485   119.88421   240.10291
    42  H   1.0    0.04    1.06    1.44   267.94991   119.78406   239.35080
    43  N   5.0   -0.22    3.27    1.97   266.44002   132.55105   229.80390
    44  C   4.0    0.03    4.35    4.28   269.17445   132.97435   229.84359
    45  C   4.0    0.09    3.24    3.04   270.41600   131.47012   227.74410
    46  O   6.0   -0.27    1.12    1.80   271.73881   132.56994   226.17185
    47  C   4.0    0.05    4.33    4.25   270.38955   132.13531   232.35692
    48  O   6.0   -0.27    2.20    1.86   269.49193   129.69189   233.03345
    49  C   4.0   -0.07    4.15    3.91   269.91523   134.03070   234.51688
    50  H   1.0    0.14    1.12    1.45   265.86932   131.74035   231.09270
    51  H   1.0    0.05    1.12    1.45   269.43146   134.77714   229.62816
    52  H   1.0    0.05    1.11    1.45   272.20368   132.07484   232.09614
    53  H   1.0    0.18    1.15    1.45   268.49415   129.16655   231.91662
    54  H   1.0    0.06    1.05    1.44   270.71269   133.42221   236.05134
    55  H   1.0    0.05    1.05    1.44   270.62198   135.66154   234.06713
    56  H   1.0    0.07    1.05    1.44   268.11243   134.20267   234.79467
    57  N   5.0   -0.23    3.27    1.97   282.99969   129.41788   234.04256
    58  C   4.0    0.03    4.40    4.38   282.06805   127.70012   235.95307
    59  C   4.0    0.16    3.49    3.11   279.95534   128.84529   237.47430
    60  O   6.0   -0.29    1.25    1.80   279.28638   131.04872   237.13793
    61  C   4.0   -0.04    4.40    4.37   284.21289   126.93478   237.80311
    62  C   4.0   -0.04    4.28    4.16   285.55460   129.04183   239.26387
    63  C   4.0    0.17    3.29    3.05   283.87841   130.34763   241.27265
    64  O   6.0   -0.30    1.32    1.80   282.90898   129.14576   242.97907
    65  N   5.0   -0.23    3.23    1.96   283.58739   132.82128   241.05533
    66  H   1.0    0.12    1.09    1.44   282.75402   130.99391   234.35625
    67  H   1.0    0.05    1.13    1.45   281.43878   126.22802   235.06112
    68  H   1.0    0.07    1.10    1.44   283.50991   125.76315   239.02388
    69  H   1.0    0.04    1.11    1.44   285.48090   126.01826   236.84691
    70  H   1.0    0.05    1.09    1.44   287.03425   128.34263   240.08779
    71  H   1.0    0.04    1.09    1.44   286.14797   130.30416   238.07523
    72  H   1.0    0.11    1.09    1.44   284.29604   133.61874   239.82890
    73  H   1.0    0.12    1.09    1.44   282.68977   133.63197   242.14003
    74  N   5.0   -0.15    3.55    2.11   278.92733   127.32784   239.17883
    75  C   4.0    0.04    4.49    4.53   276.90721   128.13665   240.87581
    76  C   4.0    0.16    3.51    3.12   277.45901   126.91588   243.40804
    77  O   6.0   -0.29    1.26    1.80   277.21524   124.60664   243.69339
    78  C   4.0   -0.04    4.42    4.41   274.34852   127.32973   239.78544
    79  C   4.0   -0.01    3.60    3.17   272.18101   127.61319   241.58068
    80  C   4.0   -0.04    3.52    3.13   271.10764   129.97913   242.02665
    81  C   4.0   -0.04    3.51    3.12   271.14355   125.55339   242.82412
    82  C   4.0   -0.04    3.44    3.09   269.04595   130.27393   243.63670
    83  C   4.0   -0.04    3.44    3.09   269.08753   125.85197   244.46818
    84  C   4.0   -0.04    3.43    3.09   268.04062   128.23869   244.85935
    85  H   1.0    0.12    1.16    1.46   279.38275   125.78205   239.39048
    86  H   1.0    0.06    1.13    1.45   276.83162   129.95834   241.07234
    87  H   1.0    0.05    1.10    1.44   274.00648   128.32184   238.28310
    88  H   1.0    0.05    1.10    1.44   274.45624   125.57796   239.25820
    89  H   1.0    0.06    1.10    1.44   271.78417   131.39265   241.23108
    90  H   1.0    0.06    1.10    1.44   271.82007   123.95279   242.56333
    91  H   1.0    0.06    1.10    1.44   268.35053   131.86886   243.88047
    92  H   1.0    0.06    1.09    1.44   268.42045   124.45546   245.29966
    93  H   1.0    0.06    1.10    1.44   266.67057   128.44089   245.94216
    94  N   5.0   -0.15    3.48    2.06   278.36419   128.42389   245.23541
    95  C   4.0    0.04    4.47    4.50   278.91977   127.38076   247.76953
    96  C   4.0    0.17    3.49    3.11   280.82650   125.23592   247.56544
    97  O   6.0   -0.29    1.27    1.80   280.32195   123.11565   248.39692
    98  C   4.0   -0.02    4.41    4.39   276.44612   126.46046   249.00352
    99  C   4.0    0.17    3.27    3.05   276.63509   126.10141   251.86456
   100  O   6.0   -0.27    1.20    1.80   277.31539   127.83807   253.24028
   101  N   5.0   -0.23    3.22    1.96   275.92078   123.85075   252.77919
   102  H   1.0    0.10    1.12    1.45   278.66466   130.01126   245.06155
   103  H   1.0    0.06    1.12    1.45   279.65298   128.69034   248.82211
   104  H   1.0    0.05    1.09    1.44   275.11575   127.66800   248.64069
   105  H   1.0    0.07    1.10    1.44   275.95290   124.87120   248.23440
   106  H   1.0    0.13    1.08    1.44   275.93022   123.58619   254.38168
   107  H   1.0    0.11    1.09    1.44   275.45401   122.67156   251.76252
   108  N   5.0   -0.15    3.43    2.04   283.01859   125.76693   246.46373
   109  C   4.0    0.02    4.35    4.28   284.94989   123.79028   246.20295
   110  C   4.0    0.16    3.34    3.06   284.63430   122.16133   243.85969
   111  O   6.0   -0.31    1.22    1.80   286.42576   121.93646   242.34412
   112  H   1.0    0.13    1.16    1.46   283.42866   127.22013   245.86468
   113  H   1.0    0.05    1.09    1.44   286.60529   124.57640   246.16137
   114  H   1.0    0.06    1.09    1.44   284.90453   122.71502   247.68638
   115  N   5.0   -0.15    3.48    2.07   282.39309   121.06151   243.52520
   116  C   4.0    0.04    4.56    4.61   281.80160   119.46281   241.33123
   117  C   4.0    0.16    3.48    3.11   282.19656   120.70247   238.76876
   118  O   6.0   -0.32    1.29    1.80   280.88509   122.48448   238.03744
   119  C   4.0   -0.02    4.40    4.38   279.05394   118.50282   241.51454
   120  C   4.0   -0.08    4.23    4.06   278.55316   116.58097   239.41127
   121  C   4.0   -0.08    4.25    4.10   278.56639   117.37088   244.10157
   122  H   1.0    0.12    1.15    1.45   281.15910   121.22025   244.57022
   123  H   1.0    0.05    1.14    1.45   283.00725   118.08331   241.41060
   124  H   1.0    0.06    1.13    1.45   277.89932   119.91067   241.29722
   125  H   1.0    0.05    1.05    1.44   276.82595   115.98004   239.53032
   126  H   1.0    0.06    1.06    1.44   278.81206   117.37655   237.78044
   127  H   1.0    0.05    1.06    1.44   279.70401   115.16557   239.58890
   128  H   1.0    0.05    1.06    1.44   276.83540   116.77562   244.19228
   129  H   1.0    0.05    1.06    1.44   279.70968   115.96681   244.37936
   130  H   1.0    0.06    1.06    1.44   278.84040   118.64644   245.38847
   131  N   5.0   -0.16    3.49    2.07   284.04093   119.74815   237.36092
   132  C   4.0    0.03    4.51    4.55   284.57383   120.70058   234.80979
   133  C   4.0    0.15    3.45    3.10   282.61230   119.62154   233.00132
   134  O   6.0   -0.28    1.25    1.80   282.86930   117.47670   232.16228
   135  C   4.0   -0.05    4.38    4.35   287.22512   120.05429   233.97264
   136  C   4.0   -0.05    4.33    4.25   289.29437   121.24293   235.64127
   137  C   4.0   -0.06    4.32    4.23   289.51357   124.07374   235.31056
   138  C   4.0   -0.04    4.30    4.20   291.44487   125.13198   237.08880
   139  N   5.0   -0.17    4.13    3.24   290.89496   124.70868   239.81756
   140  H   1.0    0.10    1.13    1.45   285.01603   118.54062   237.84280
   141  H   1.0    0.04    1.14    1.45   284.46612   122.52983   234.81357
   142  H   1.0    0.06    1.09    1.44   287.42543   118.23259   233.97831
   143  H   1.0    0.05    1.09    1.44   287.45755   120.61365   232.24354
   144  H   1.0    0.05    1.10    1.44   288.93721   120.86876   237.40060
   145  H   1.0    0.04    1.09    1.44   290.90630   120.46436   235.24442
   146  H   1.0    0.04    1.09    1.44   289.98034   124.46302   233.58147
   147  H   1.0    0.04    1.11    1.45   287.88841   124.86364   235.61670
   148  H   1.0    0.04    1.09    1.44   293.07382   124.38932   236.69573
   149  H   1.0    0.04    1.09    1.44   291.59227   126.93478   236.79211
   150  H   1.0    0.07    1.09    1.44   291.05937   126.15810   240.65471
   151  H   1.0    0.09    1.10    1.44   289.32271   124.13610   239.99142
   152  H   1.0    0.08    1.09    1.44   291.97400   123.57863   240.43928
   153  N   5.0   -0.17    3.50    2.07   280.57706   121.05018   232.52511
   154  C   4.0    0.03    4.50    4.53   278.51915   120.19791   230.90372
   155  C   4.0    0.09    3.23    3.04   279.12197   119.00927   228.36204
   156  O   6.0   -0.27    1.12    1.80   277.97869   117.14600   227.61560
   157  C   4.0   -0.03    4.40    4.39   276.55950   122.30306   230.54279
   158  C   4.0   -0.08    4.25    4.11   275.06851   122.59786   232.95597
   159  C   4.0   -0.08    4.27    4.15   277.92577   124.78427   229.95697
   160  H   1.0    0.09    1.15    1.45   280.36163   122.53928   233.13927
   161  H   1.0    0.06    1.15    1.45   277.87664   118.77683   231.86748
   162  H   1.0    0.05    1.12    1.45   275.43323   121.87976   229.15951
   163  H   1.0    0.05    1.06    1.44   273.82318   123.92634   232.74621
   164  H   1.0    0.05    1.06    1.44   274.22002   121.02183   233.34714
   165  H   1.0    0.05    1.06    1.44   276.20423   123.03628   234.32602
   166  H   1.0    0.05    1.05    1.44   276.69367   126.12220   229.72642
   167  H   1.0    0.05    1.07    1.44   279.03882   125.21324   231.34781
   168  H   1.0    0.05    1.05    1.44   278.91221   124.59341   228.42440
   169  H   1.0    0.11    1.08    1.44   257.03514   128.59460   245.80983
   170  H   1.0    0.06    1.05    1.44   259.35246   123.88915   242.44507
   171  H   1.0    0.10    1.08    1.44   257.79185   130.50868   237.02917
   172  H   1.0    0.06    1.05    1.44   263.25587   125.97381   231.97292
   173  H   1.0    0.11    1.08    1.44   265.63431   134.04826   229.76217
   174  H   1.0    0.07    1.04    1.44   270.15927   129.60071   227.64199
   175  H   1.0    0.09    1.09    1.44   284.67877   129.21334   233.86534
   176  H   1.0    0.06    1.05    1.44   280.47346   119.75070   227.26896

  Z AO/shell   Hii/eV     exponent
  1     Wed Apr 25 08:07:45 CEST 2018   EN: 2.200 GM2: 0.406  GM3: 0.0800  RAES: 1.40
     1s    -10.707211    1.230000
  6     Wed Apr 25 08:07:45 CEST 2018   EN: 2.550 GM2: 0.538  GM3: 0.1500  RAES: 3.00
     2s    -13.970922    2.096432
     2p    -10.063292    1.800000
  7     Wed Apr 25 08:07:45 CEST 2018   EN: 3.040 GM2: 0.461  GM3:-0.0640  RAES: 1.90
     2s    -16.686243    2.339881
     2p    -12.523956    2.014332
  8     Wed Apr 25 08:07:45 CEST 2018   EN: 3.440 GM2: 0.452  GM3:-0.0517  RAES: 1.80
     2s    -20.229985    2.439742
     2p    -15.503117    2.137023
 no old-style atom pair restraining (fixing) potential

molecular fragmentation (1/2 indicates fragments):
111111111111222222222222222222222222222222222222222222222222222222222222
222222222222222222222222222222222222222222222222222222222222222222222222
22222222222222222222222211222222
# atoms in fragment 1/2:    14   162
 fragment masses (1/2) :      116.10     1081.30
CMA distance (Bohr)    :  17.747
constraining FC (au)   :  0.0500
           ------------------------------------------------- 
          |        Self-Consistent Charge Iterations        |
           ------------------------------------------------- 

 Ncao       : 428
 Nao        : 428
 Nshell     : 260
 Nel        : 476
 T(el)      :   500.0
 intcut     :    35.0
 scfconv/Eh :  0.100E-06
   qconv/e  :  0.100E-04
 intneglect :  0.100E-08
 broydamp   :      0.400
 iter      E             dE          RMSdq      gap      omega  full diag
   1   -274.3048522 -0.274305E+03  0.471E+00    3.47       0.0  T
   2   -274.9799324 -0.675080E+00  0.221E+00    2.23       1.0  T
   3   -275.0189780 -0.390456E-01  0.128E+00    2.39       1.0  T
   4   -275.0624982 -0.435201E-01  0.256E-01    1.88       1.0  T
   5   -275.0654164 -0.291829E-02  0.120E-01    2.06       1.0  T
   6   -275.0657982 -0.381775E-03  0.539E-02    2.02       1.0  T
   7   -275.0659182 -0.119981E-03  0.220E-02    2.00       1.0  T
   8   -275.0659315 -0.132923E-04  0.109E-02    1.98       1.0  T
   9   -275.0659362 -0.474683E-05  0.446E-03    1.97       1.7  T
  10   -275.0659370 -0.770244E-06  0.181E-03    1.97       4.2  T
  11   -275.0659371 -0.115371E-06  0.672E-04    1.97      11.2  T
  12   -275.0659371 -0.116274E-07  0.324E-04    1.97      23.3  T
  13   -275.0659371 -0.427667E-08  0.137E-04    1.97      55.0  T
  14   -275.0659371 -0.743057E-09  0.641E-05    1.97     117.6  T
  15   -275.0659371 -0.121702E-09  0.221E-05    1.97     340.5  T
speedup  1.00
cpu  time for SCC    0.69 s
wall time for SCC    0.69 s

   *** convergence criteria satisfied after 15 iterations ***

          eigenvalues
 #    :         226        227        228        229        230        231        232        233
 occ. :        2.000      2.000      2.000      2.000      2.000      2.000      2.000      2.000
 eps  :       -10.955    -10.924    -10.916    -10.891    -10.850    -10.793    -10.765    -10.469
 #    :         234        235        236        237        238        239        240        241
 occ. :        2.000      2.000      2.000      2.000      2.000      0.000      0.000      0.000
 eps  :       -10.305    -10.221    -10.003    -10.002     -9.848     -7.880     -7.759     -7.734
 #    :         242        243        244        245        246        247        248        249
 occ. :        0.000      0.000      0.000      0.000      0.000      0.000      0.000      0.000
 eps  :        -7.697     -6.675     -6.561     -6.537     -6.316     -6.272     -6.246     -6.198


   #   Z            q   n(s)   n(p)   n(d)      C6AA      α(0)
   1   7 N     -0.413  1.274  4.139  0.000    30.739     8.234
   2   6 C      0.045  1.026  2.929  0.000    19.834     6.342
   3   6 C      0.186  1.097  2.718  0.000    24.023     8.028
   4   8 O     -0.377  1.742  4.635  0.000    21.226     6.177
   5   6 C     -0.107  1.021  3.086  0.000    22.526     6.754
   6   6 C      0.376  1.018  2.605  0.000    20.624     7.432
   7   8 O     -0.664  1.780  4.884  0.000    27.740     7.061
   8   8 O     -0.635  1.771  4.865  0.000    27.000     6.967
   9   1 H      0.175  0.825  0.000  0.000     1.243     1.746
  10   1 H      0.057  0.943  0.000  0.000     2.232     2.336
  11   1 H      0.049  0.951  0.000  0.000     2.332     2.388
  12   1 H      0.051  0.949  0.000  0.000     2.300     2.372
  13   7 N     -0.419  1.284  4.135  0.000    30.912     8.257
  14   6 C      0.016  1.039  2.945  0.000    20.322     6.420
  15   6 C      0.270  1.048  2.682  0.000    22.441     7.757
  16   8 O     -0.492  1.739  4.753  0.000    23.601     6.513
  17   6 C      0.069  0.992  2.939  0.000    19.601     6.336
  18   8 O     -0.500  1.676  4.824  0.000    22.894     6.459
  19   1 H      0.174  0.826  0.000  0.000     1.250     1.751
  20   1 H      0.071  0.929  0.000  0.000     2.069     2.249
  21   1 H      0.040  0.960  0.000  0.000     2.448     2.446
  22   1 H      0.047  0.953  0.000  0.000     2.358     2.401
  23   1 H      0.335  0.665  0.000  0.000     0.623     1.240
  24   7 N     -0.181  1.210  3.971  0.000    24.920     7.414
  25   6 C      0.006  1.046  2.947  0.000    20.477     6.444
  26   6 C      0.207  1.086  2.707  0.000    23.611     7.958
  27   8 O     -0.368  1.749  4.619  0.000    21.049     6.151
  28   6 C     -0.035  1.044  2.990  0.000    21.154     6.541
  29   6 C     -0.093  1.005  3.088  0.000    22.257     6.714
  30   6 C     -0.156  0.977  3.179  0.000    23.548     6.914
  31   6 C     -0.147  0.975  3.173  0.000    23.383     6.892
  32   1 H      0.233  0.767  0.000  0.000     0.954     1.530
  33   1 H      0.115  0.885  0.000  0.000     1.656     2.012
  34   1 H      0.065  0.935  0.000  0.000     2.145     2.290
  35   1 H      0.059  0.941  0.000  0.000     2.214     2.327
  36   1 H      0.059  0.941  0.000  0.000     2.205     2.322
  37   1 H      0.080  0.920  0.000  0.000     1.982     2.201
  38   1 H      0.055  0.945  0.000  0.000     2.262     2.352
  39   1 H      0.070  0.930  0.000  0.000     2.080     2.255
  40   1 H      0.051  0.949  0.000  0.000     2.310     2.377
  41   1 H      0.051  0.949  0.000  0.000     2.309     2.376
  42   1 H      0.068  0.932  0.000  0.000     2.106     2.269
  43   7 N     -0.424  1.286  4.138  0.000    31.040     8.274
  44   6 C      0.014  1.040  2.946  0.000    20.347     6.424
  45   6 C      0.198  1.091  2.711  0.000    23.785     7.987
  46   8 O     -0.380  1.759  4.621  0.000    21.291     6.186
  47   6 C      0.104  1.028  2.869  0.000    18.956     6.214
  48   8 O     -0.488  1.668  4.820  0.000    22.634     6.422
  49   6 C     -0.156  0.982  3.175  0.000    23.570     6.920
  50   1 H      0.202  0.798  0.000  0.000     1.094     1.638
  51   1 H      0.073  0.927  0.000  0.000     2.057     2.243
  52   1 H      0.050  0.950  0.000  0.000     2.324     2.384
  53   1 H      0.325  0.675  0.000  0.000     0.650     1.266
  54   1 H      0.069  0.931  0.000  0.000     2.092     2.262
  55   1 H      0.063  0.937  0.000  0.000     2.159     2.298
  56   1 H      0.068  0.932  0.000  0.000     2.103     2.268
  57   7 N     -0.419  1.287  4.132  0.000    30.916     8.258
  58   6 C      0.017  1.033  2.950  0.000    20.293     6.415
  59   6 C      0.270  1.040  2.690  0.000    22.440     7.758
  60   8 O     -0.510  1.755  4.754  0.000    23.998     6.568
  61   6 C     -0.108  1.016  3.091  0.000    22.541     6.757
  62   6 C     -0.134  1.018  3.116  0.000    23.069     6.837
  63   6 C      0.278  1.042  2.680  0.000    22.294     7.731
  64   8 O     -0.510  1.746  4.764  0.000    24.009     6.570
  65   7 N     -0.294  1.198  4.096  0.000    27.583     7.800
  66   1 H      0.179  0.821  0.000  0.000     1.217     1.728
  67   1 H      0.070  0.930  0.000  0.000     2.083     2.257
  68   1 H      0.069  0.931  0.000  0.000     2.101     2.267
  69   1 H      0.086  0.914  0.000  0.000     1.913     2.163
  70   1 H      0.104  0.896  0.000  0.000     1.749     2.068
  71   1 H      0.085  0.915  0.000  0.000     1.929     2.172
  72   1 H      0.237  0.763  0.000  0.000     0.937     1.516
  73   1 H      0.227  0.773  0.000  0.000     0.979     1.550
  74   7 N     -0.186  1.210  3.975  0.000    25.026     7.430
  75   6 C      0.023  1.033  2.944  0.000    20.195     6.398
  76   6 C      0.269  1.046  2.685  0.000    22.461     7.761
  77   8 O     -0.472  1.748  4.724  0.000    23.174     6.454
  78   6 C     -0.094  1.007  3.088  0.000    22.279     6.717
  79   6 C      0.001  1.083  2.916  0.000    28.007     8.680
  80   6 C     -0.064  1.058  3.006  0.000    29.583     8.920
  81   6 C     -0.057  1.060  2.997  0.000    29.418     8.895
  82   6 C     -0.052  1.052  2.999  0.000    29.282     8.874
  83   6 C     -0.054  1.058  2.995  0.000    29.330     8.881
  84   6 C     -0.052  1.051  3.000  0.000    29.281     8.874
  85   1 H      0.225  0.775  0.000  0.000     0.985     1.555
  86   1 H      0.076  0.924  0.000  0.000     2.021     2.223
  87   1 H      0.079  0.921  0.000  0.000     1.989     2.205
  88   1 H      0.082  0.918  0.000  0.000     1.963     2.191
  89   1 H      0.062  0.938  0.000  0.000     2.176     2.307
  90   1 H      0.074  0.926  0.000  0.000     2.041     2.234
  91   1 H      0.050  0.950  0.000  0.000     2.314     2.379
  92   1 H      0.048  0.952  0.000  0.000     2.350     2.397
  93   1 H      0.032  0.968  0.000  0.000     2.551     2.497
  94   7 N     -0.188  1.217  3.972  0.000    25.082     7.438
  95   6 C      0.020  1.040  2.940  0.000    20.245     6.407
  96   6 C      0.273  1.040  2.687  0.000    22.382     7.747
  97   8 O     -0.496  1.749  4.747  0.000    23.687     6.525
  98   6 C     -0.114  1.013  3.102  0.000    22.673     6.777
  99   6 C      0.288  1.040  2.672  0.000    22.124     7.701
 100   8 O     -0.505  1.753  4.753  0.000    23.906     6.555
 101   7 N     -0.302  1.201  4.101  0.000    27.790     7.829
 102   1 H      0.221  0.779  0.000  0.000     1.005     1.571
 103   1 H      0.092  0.908  0.000  0.000     1.855     2.130
 104   1 H      0.084  0.916  0.000  0.000     1.939     2.178
 105   1 H      0.093  0.907  0.000  0.000     1.854     2.129
 106   1 H      0.241  0.759  0.000  0.000     0.920     1.503
 107   1 H      0.237  0.763  0.000  0.000     0.933     1.513
 108   7 N     -0.183  1.212  3.971  0.000    24.962     7.420
 109   6 C     -0.054  1.011  3.043  0.000    21.599     6.626
 110   6 C      0.259  1.047  2.695  0.000    22.641     7.791
 111   8 O     -0.489  1.726  4.763  0.000    23.551     6.506
 112   1 H      0.243  0.757  0.000  0.000     0.912     1.496
 113   1 H      0.121  0.879  0.000  0.000     1.607     1.982
 114   1 H      0.106  0.894  0.000  0.000     1.734     2.059
 115   7 N     -0.169  1.213  3.956  0.000    24.647     7.373
 116   6 C      0.003  1.045  2.952  0.000    20.533     6.451
 117   6 C      0.267  1.042  2.690  0.000    22.492     7.766
 118   8 O     -0.498  1.745  4.752  0.000    23.729     6.531
 119   6 C     -0.029  1.037  2.991  0.000    21.043     6.524
 120   6 C     -0.152  0.978  3.174  0.000    23.474     6.904
 121   6 C     -0.158  0.978  3.180  0.000    23.595     6.922
 122   1 H      0.217  0.783  0.000  0.000     1.022     1.584
 123   1 H      0.084  0.916  0.000  0.000     1.936     2.176
 124   1 H      0.071  0.929  0.000  0.000     2.075     2.253
 125   1 H      0.067  0.933  0.000  0.000     2.113     2.273
 126   1 H      0.049  0.951  0.000  0.000     2.337     2.390
 127   1 H      0.063  0.937  0.000  0.000     2.162     2.299
 128   1 H      0.065  0.935  0.000  0.000     2.144     2.289
 129   1 H      0.065  0.935  0.000  0.000     2.136     2.285
 130   1 H      0.059  0.941  0.000  0.000     2.209     2.324
 131   7 N     -0.168  1.210  3.958  0.000    24.645     7.373
 132   6 C      0.001  1.038  2.961  0.000    20.570     6.457
 133   6 C      0.266  1.042  2.692  0.000    22.510     7.769
 134   8 O     -0.490  1.759  4.732  0.000    23.569     6.509
 135   6 C     -0.103  1.008  3.095  0.000    22.459     6.745
 136   6 C     -0.121  1.012  3.109  0.000    22.802     6.796
 137   6 C     -0.122  1.006  3.116  0.000    22.824     6.800
 138   6 C     -0.079  1.014  3.065  0.000    22.076     6.702
 139   7 N     -0.135  1.141  3.995  0.000    23.924     7.265
 140   1 H      0.229  0.771  0.000  0.000     0.970     1.543
 141   1 H      0.093  0.907  0.000  0.000     1.846     2.125
 142   1 H      0.082  0.918  0.000  0.000     1.959     2.189
 143   1 H      0.085  0.915  0.000  0.000     1.923     2.169
 144   1 H      0.082  0.918  0.000  0.000     1.957     2.188
 145   1 H      0.094  0.906  0.000  0.000     1.838     2.120
 146   1 H      0.110  0.890  0.000  0.000     1.692     2.034
 147   1 H      0.078  0.922  0.000  0.000     1.996     2.209
 148   1 H      0.138  0.862  0.000  0.000     1.475     1.899
 149   1 H      0.135  0.865  0.000  0.000     1.498     1.914
 150   1 H      0.285  0.715  0.000  0.000     0.761     1.366
 151   1 H      0.278  0.722  0.000  0.000     0.783     1.386
 152   1 H      0.295  0.705  0.000  0.000     0.727     1.336
 153   7 N     -0.183  1.211  3.972  0.000    24.968     7.421
 154   6 C      0.009  1.037  2.954  0.000    20.419     6.433
 155   6 C      0.209  1.077  2.714  0.000    23.570     7.951
 156   8 O     -0.375  1.763  4.612  0.000    21.188     6.171
 157   6 C     -0.028  1.038  2.989  0.000    21.026     6.521
 158   6 C     -0.157  0.978  3.180  0.000    23.574     6.918
 159   6 C     -0.163  0.981  3.182  0.000    23.685     6.934
 160   1 H      0.222  0.778  0.000  0.000     0.999     1.565
 161   1 H      0.101  0.899  0.000  0.000     1.772     2.082
 162   1 H      0.068  0.932  0.000  0.000     2.110     2.272
 163   1 H      0.070  0.930  0.000  0.000     2.082     2.256
 164   1 H      0.064  0.936  0.000  0.000     2.148     2.292
 165   1 H      0.065  0.935  0.000  0.000     2.135     2.285
 166   1 H      0.071  0.929  0.000  0.000     2.074     2.252
 167   1 H      0.069  0.931  0.000  0.000     2.101     2.266
 168   1 H      0.067  0.933  0.000  0.000     2.115     2.274
 169   1 H      0.180  0.820  0.000  0.000     1.214     1.726
 170   1 H      0.080  0.920  0.000  0.000     1.973     2.197
 171   1 H      0.194  0.806  0.000  0.000     1.137     1.670
 172   1 H      0.070  0.930  0.000  0.000     2.084     2.257
 173   1 H      0.184  0.816  0.000  0.000     1.193     1.711
 174   1 H      0.079  0.921  0.000  0.000     1.985     2.203
 175   1 H      0.200  0.800  0.000  0.000     1.106     1.647
 176   1 H      0.074  0.926  0.000  0.000     2.042     2.235

 Mol. C6AA /au·bohr⁶  :     278111.501661
 Mol. C8AA /au·bohr⁸  :    6175100.486313
 Mol. α(0) /au        :        788.738365

 
molecular dipole:
                 x           y           z       tot (Debye)
 q only:       28.581      -2.448      -7.429
   full:       27.364      -1.485      -5.536      71.062
molecular quadrupole (traceless):
                xx          xy          yy          xz          yz          zz
 q only:    18062.362    4421.810   -6687.266    7368.640   -2307.232  -11375.096
  q+dip:    16832.027    4582.347   -6558.821    7704.067   -1598.607  -10273.206
   full:    16834.096    4582.640   -6560.761    7707.102   -1599.964  -10273.335
speedup  1.00
cpu  time for grad    1.02 s
wall time for grad    1.02 s

SCC energy    :    -275.0728944
rep           :       5.8557106
ES            :       0.9288705
AES           :      -0.0329751
AXC           :       0.0417445
disp          :      -0.2110847
XB            :       0.0000000
fix           :       0.0000000
Gborn         :       0.0000000
Gsasa         :       0.0000000
Ghb           :       0.0000000
Gshift        :       0.0000000
Gsolv         :      -0.2425352     -152.19
Etot ala COSMO:    -275.0728944
grad norm     :       1.7360100
total E       :    -269.2004869
atomizationE  :      47.5395134    29831.50
(atE without considering molecular charge,
 total energy contains solvation terms)
H-L gap (eV)  :          1.9682

------------------------------------------------------------------------
 * finished run on 2019/03/07 at 11:37:46.425     
------------------------------------------------------------------------
 total:
 * wall-time:     0 d,  0 h,  0 min,  1.334 sec
 *  cpu-time:     0 d,  0 h,  0 min,  1.174 sec
 * ratio c/w:     0.880 speedup
 SCF:
 * wall-time:     0 d,  0 h,  0 min,  1.136 sec
 *  cpu-time:     0 d,  0 h,  0 min,  1.134 sec
 * ratio c/w:     0.998 speedup

