      -----------------------------------------------------------      
     |                   =====================                   |     
     |                           x T B                           |     
     |                   =====================                   |     
     |                         S. Grimme                         |     
     |          Mulliken Center for Theoretical Chemistry        |     
     |                    University of Bonn                     |     
     |                Version 6.1 RC1 (SAW190329)                |     
      -----------------------------------------------------------      

   This program is distributed in the hope that it will be useful,
   but WITHOUT ANY WARRANTY; without even the implied warranty of
   MERCHANTABILITY or FITNESS FOR A PARTICULAR PURPOSE.
   
   FOR NON-COMMERCIAL, ACADEMIA USE ONLY.
   
   Cite this work as:
   S. Grimme, C. Bannwarth, P. Shushkov, J. Comput. Theory Chem., 2017,
   13, 1989-2009. DOI: 10.1021/acs.jctc.7b00118
   C. Bannwarth, S. Ehlert and S. Grimme., J. Comput. Theory Chem., 2019,
   just accepted. DOI: 10.1021/acs.jctc.8b01176
   
   for sTDA-xTB:
   S. Grimme and C. Bannwarth, J. Chem. Phys., 2016, 145, 054103.
   DOI: 10.1063/1.4959605
   
   in the mass-spec context:
   V. Asgeirsson, C. Bauer and S. Grimme, Chem. Sci., 2017, 8, 4879.
   DOI: 10.1039/c7sc00601b
   
   for metadynamics refer to:
   S. Grimme, ChemRxiv, Preprint. DOI: 10.26434/chemrxiv.7660532.v1
   
   with help from (in alphabetical order)
   C. Bannwarth, F. Bohle, G. Brandenburg, E. Caldeweyher, M. Checinski,
   S. Dohm, S. Ehlert, S. Ehrlich, F. März, H. Neugebauer, J. Pisarek,
   P. Pracht, P. Shushkov, and S. Spicher.
   
 * started run on 2019/05/31 at 06:33:55.212     

           -------------------------------------------------
          |                Calculation Setup                |
           -------------------------------------------------

          program call               : /home/lum/qr/xtb-190329/bin/xtb xtb_tmp.xyz --chrg 0 --grad --gfn 2 --etemp 500 --acc 0.1 --gbsa h2o --parallel 2
          hostname                   : cu39
          coordinate file            : xtb_tmp.xyz
          omp threads                :                     2
          number of atoms            :                   165
          number of electrons        :                   442
          charge                     :                     0
          spin                       :                   0.0
          first test random number   :      0.89347980541446


molecular fragmentation (1/2 indicates fragments):
111111111111111111111111111111111111111111111111111111111111122222222222
222222222222222222222222222222222222222222222222222222222222222222222222
222222222222222112222
# atoms in fragment 1/2:    63   102
 fragment masses (1/2) :      416.50      688.80
CMA distance (Bohr)    :   9.353
constraining FC (au)   :  0.0500

########################################################################
# WARNING! Please study the warnings concerning your input carefully
#  - XTBPATH is not set, using XTBHOME instead
#  - Process number higher than OMP_NUM_THREADS, I hope you know what you are doing.
########################################################################

           ------------------------------------------------- 
          |                 G F N 2 - x T B                 |
          | Geometry, Frequencies, Noncovalent interactions |
          |            JCTC 2018 parametrisation            |
           ------------------------------------------------- 
 
             k(s)              :                1.8500
             k(p)              :                2.2300
             k(d)              :                2.2300
             k(f)              :                2.0000
             kEN (H0ij)        :               -2.0000
             D4 a1             :                0.5200
             D4 a2             :                5.0000
             D4 s6             :                1.0000
             D4 s8             :                2.7000
             D4 s9             :                5.0000
             alphaj            :                2.0000

  Z AO/shell   Hii/eV     exponent
  1     Wed Apr 25 08:07:45 CEST 2018   EN: 2.200 GM2: 0.406  GM3: 0.0800  RAES: 1.40
     1s    -10.707211    1.230000
  6     Wed Apr 25 08:07:45 CEST 2018   EN: 2.550 GM2: 0.538  GM3: 0.1500  RAES: 3.00
     2s    -13.970922    2.096432
     2p    -10.063292    1.800000
  7     Wed Apr 25 08:07:45 CEST 2018   EN: 3.040 GM2: 0.461  GM3:-0.0640  RAES: 1.90
     2s    -16.686243    2.339881
     2p    -12.523956    2.014332
  8     Wed Apr 25 08:07:45 CEST 2018   EN: 3.440 GM2: 0.452  GM3:-0.0517  RAES: 1.80
     2s    -20.229985    2.439742
     2p    -15.503117    2.137023

 Solvent             : h2o
 Using internal parameter file: .param_gbsa2_h2o
 Gsolv ref. state (COSMO-RS): gsolv [1 M gas/solution]
 temperature (mdtemp)       :    298.150000000000     
 dielectric constant        :    80.2000000000000     
 rho                        :    1.00000000000000     
 mass                       :    18.0000000000000     
 surface tension            :    15.5689454083859     
 probe radius               :   0.975313790000000     
 vdW radii scaling          :    1.00000000000000     
 Gshift (Eh)                :   1.857443126794793E-003
 c1                         :    1.55243817000000     
 soset                      :   0.130326360000000     
 HB correction              :  T
 Number of grid points      :          230

            Z     q(EN)     CN     RAES       Cart. coordinates
     1  N   5.0   -0.70    3.00    1.93    83.36446    79.25709    92.98791
     2  C   4.0    0.07    3.98    3.59    82.44667    76.95824    94.13085
     3  C   4.0    0.28    3.01    3.02    81.25853    75.35873    92.05956
     4  O   6.0   -0.46    1.00    1.80    80.23294    76.31442    90.21629
     5  C   4.0   -0.14    3.98    3.59    80.51459    77.41192    96.25992
     6  C   4.0   -0.09    3.98    3.58    78.28905    79.05523    95.45426
     7  C   4.0    0.30    2.99    3.02    75.95014    78.59058    97.12989
     8  O   6.0   -0.41    1.00    1.80    74.73861    80.40912    97.96685
     9  O   6.0   -0.48    1.06    1.80    75.38823    76.29203    97.46612
    10  H   1.0    0.32    1.00    1.43    82.11753    80.21347    91.89201
    11  H   1.0    0.11    0.99    1.43    84.09307    75.99881    94.94566
    12  H   1.0    0.14    0.99    1.43    79.79093    75.58293    96.89175
    13  H   1.0    0.11    0.99    1.43    81.47839    78.31243    97.84599
    14  H   1.0    0.13    0.99    1.43    78.80160    81.05103    95.44270
    15  H   1.0    0.14    0.99    1.43    77.69787    78.56262    93.53757
    16  N   5.0   -0.49    3.01    1.93    81.39710    72.86847    92.40145
    17  C   4.0    0.08    3.99    3.61    80.11875    71.06834    90.80127
    18  C   4.0    0.27    3.02    3.02    78.44034    69.49568    92.55322
    19  O   6.0   -0.41    1.00    1.80    79.20033    68.70781    94.58389
    20  C   4.0   -0.15    3.98    3.59    81.90217    69.27550    89.37198
    21  C   4.0   -0.14    3.98    3.59    83.38022    70.62939    87.29126
    22  C   4.0   -0.04    3.98    3.59    84.75463    68.77989    85.54948
    23  N   5.0   -0.46    3.02    1.93    86.18347    70.16673    83.66624
    24  C   4.0    0.40    3.01    3.02    87.88615    69.19162    82.11916
    25  N   5.0   -0.62    3.02    1.93    88.95563    70.71120    80.40491
    26  N   5.0   -0.63    3.01    1.93    88.78041    66.85133    82.44927
    27  H   1.0    0.24    1.00    1.43    82.53541    72.10638    93.74297
    28  H   1.0    0.14    0.99    1.43    78.98560    72.16019    89.45707
    29  H   1.0    0.12    0.99    1.43    83.21142    68.41219    90.71316
    30  H   1.0    0.12    0.99    1.43    80.75820    67.77522    88.53373
    31  H   1.0    0.12    0.99    1.43    82.09534    71.77774    86.15607
    32  H   1.0    0.13    0.99    1.43    84.77023    71.88614    88.15158
    33  H   1.0    0.11    0.99    1.43    86.02860    67.62084    86.69466
    34  H   1.0    0.12    0.99    1.43    83.39402    67.54137    84.58380
    35  H   1.0    0.29    1.00    1.43    85.52972    71.91322    83.09218
    36  H   1.0    0.32    1.00    1.43    88.04604    72.38675    80.12816
    37  H   1.0    0.28    1.00    1.43    89.75931    69.91259    78.87752
    38  H   1.0    0.26    1.00    1.43    87.82446    65.64087    83.55731
    39  H   1.0    0.27    1.00    1.43    90.06656    66.14374    81.23897
    40  N   5.0   -0.48    3.01    1.93    76.09625    69.09509    91.69684
    41  C   4.0    0.07    3.99    3.60    74.34570    67.51653    93.07672
    42  C   4.0    0.06    3.00    3.02    73.73482    65.14294    91.52781
    43  O   6.0   -0.40    1.00    1.80    73.48298    65.20321    89.22969
    44  C   4.0   -0.15    3.98    3.59    71.84265    68.85962    93.67516
    45  C   4.0   -0.14    3.98    3.58    72.12852    71.22192    95.32850
    46  C   4.0   -0.16    3.98    3.59    69.55340    71.91436    96.47278
    47  C   4.0   -0.05    3.98    3.58    69.20213    74.69799    97.12347
    48  N   5.0   -0.70    3.96    2.76    70.90238    75.51213    99.18736
    49  H   1.0    0.29    1.00    1.43    75.55331    69.68883    89.95987
    50  H   1.0    0.14    0.99    1.43    75.32474    67.00877    94.82505
    51  H   1.0    0.12    0.99    1.43    70.93914    69.37808    91.89449
    52  H   1.0    0.10    0.99    1.43    70.62888    67.49555    94.63687
    53  H   1.0    0.13    0.99    1.43    73.51633    70.87313    96.81140
    54  H   1.0    0.14    0.99    1.43    72.85141    72.77428    94.18184
    55  H   1.0    0.10    0.99    1.43    68.09114    71.42901    95.10559
    56  H   1.0    0.10    0.99    1.43    69.23857    70.77436    98.16043
    57  H   1.0    0.12    0.99    1.43    69.58387    75.87635    95.47554
    58  H   1.0    0.10    0.99    1.43    67.24654    75.01390    97.70510
    59  H   1.0    0.26    1.00    1.43    70.37472    77.24858    99.84830
    60  H   1.0    0.25    1.00    1.43    70.88814    74.23475   100.63827
    61  H   1.0    0.33    1.03    1.43    72.89056    75.76698    98.47681
    62  N   5.0   -0.72    3.00    1.93    81.47749    58.48385    74.87909
    63  C   4.0    0.06    3.98    3.58    79.50005    59.83240    76.16966
    64  C   4.0    0.08    3.00    3.02    76.88339    59.44474    74.95305
    65  O   6.0   -0.40    1.00    1.80    75.01005    60.59089    75.69003
    66  C   4.0   -0.12    3.98    3.59    80.17597    62.63769    76.27229
    67  C   4.0   -0.12    3.97    3.58    82.75578    63.11562    77.46049
    68  C   4.0    0.31    2.99    3.02    83.75009    65.80911    76.76941
    69  O   6.0   -0.38    1.00    1.80    83.87243    66.34980    74.47521
    70  O   6.0   -0.38    1.00    1.80    84.38240    67.18760    78.56478
    71  H   1.0    0.27    1.00    1.43    82.53790    59.49426    73.65460
    72  H   1.0    0.12    0.99    1.43    79.35879    59.04609    78.08708
    73  H   1.0    0.14    0.99    1.43    80.20414    63.36529    74.33402
    74  H   1.0    0.13    0.99    1.43    78.70893    63.66348    77.29926
    75  H   1.0    0.12    0.99    1.43    82.69993    62.95283    79.51475
    76  H   1.0    0.11    0.99    1.43    84.14115    61.78460    76.70438
    77  N   5.0   -0.69    3.00    1.93    72.21456    67.71119    83.32672
    78  C   4.0    0.08    3.98    3.59    72.24766    70.40999    82.84820
    79  C   4.0    0.28    3.01    3.02    74.38236    71.68276    84.32861
    80  O   6.0   -0.43    1.00    1.80    74.84268    71.12588    86.52333
    81  C   4.0   -0.09    3.98    3.58    69.64867    71.52930    83.60676
    82  C   4.0   -0.21    3.98    3.59    69.72244    74.40052    83.83388
    83  C   4.0   -0.23    3.98    3.59    67.65598    70.73226    81.68040
    84  H   1.0    0.31    1.00    1.43    72.12059    67.17478    85.16055
    85  H   1.0    0.11    0.99    1.43    72.54521    70.65773    80.81756
    86  H   1.0    0.12    0.99    1.43    69.18157    70.75774    85.46765
    87  H   1.0    0.11    0.99    1.43    67.84204    75.12298    84.23131
    88  H   1.0    0.14    0.99    1.43    70.97697    74.97072    85.35642
    89  H   1.0    0.12    0.99    1.43    70.38536    75.27726    82.09787
    90  H   1.0    0.10    0.99    1.43    65.80068    71.36542    82.28977
    91  H   1.0    0.11    0.99    1.43    68.06499    71.60437    79.86413
    92  H   1.0    0.10    0.99    1.43    67.64300    68.69893    81.37565
    93  N   5.0   -0.49    3.00    1.93    75.70950    73.43464    83.03823
    94  C   4.0    0.07    3.99    3.61    77.41422    75.15870    84.30464
    95  C   4.0    0.26    3.02    3.02    76.00471    77.57604    85.02880
    96  O   6.0   -0.45    1.00    1.80    74.16964    78.33236    83.82585
    97  C   4.0   -0.14    3.99    3.60    79.66380    76.07906    82.69320
    98  C   4.0   -0.10    3.97    3.58    80.90409    74.11315    80.97953
    99  C   4.0    0.31    2.99    3.02    83.42265    75.23870    79.97654
   100  O   6.0   -0.41    1.00    1.80    83.32250    76.84221    78.26959
   101  O   6.0   -0.47    1.00    1.80    85.42264    74.54146    81.03313
   102  H   1.0    0.24    1.00    1.43    75.08651    73.97644    81.31944
   103  H   1.0    0.14    0.99    1.43    78.07959    74.19941    86.00883
   104  H   1.0    0.13    0.99    1.43    79.03394    77.64737    81.50130
   105  H   1.0    0.12    0.99    1.43    81.07643    76.80116    84.01945
   106  H   1.0    0.12    0.99    1.43    81.30100    72.36051    81.98507
   107  H   1.0    0.13    0.99    1.43    79.71050    73.68649    79.35329
   108  N   5.0   -0.50    3.01    1.93    77.02544    78.88774    86.92839
   109  C   4.0    0.08    4.00    3.61    76.05198    81.35084    87.65677
   110  C   4.0    0.26    3.01    3.02    78.30008    82.90226    88.62074
   111  O   6.0   -0.46    1.00    1.80    79.24839    82.61624    90.70072
   112  C   4.0    0.05    3.98    3.58    73.89296    81.13576    89.58839
   113  O   6.0   -0.48    1.99    1.82    71.67322    80.22554    88.40029
   114  C   4.0   -0.20    3.98    3.59    73.35640    83.68015    90.83844
   115  H   1.0    0.30    1.00    1.43    78.33225    78.07771    88.08067
   116  H   1.0    0.13    0.99    1.43    75.26273    82.22639    85.94789
   117  H   1.0    0.14    0.99    1.43    74.44466    79.76976    91.05813
   118  H   1.0    0.30    0.99    1.43    72.07623    79.66965    86.70094
   119  H   1.0    0.12    0.99    1.43    71.55973    83.56677    91.81915
   120  H   1.0    0.12    0.99    1.43    74.82982    84.11061    92.20022
   121  H   1.0    0.11    0.99    1.43    73.25389    85.16585    89.42513
   122  N   5.0   -0.48    3.01    1.93    79.22278    84.48932    86.88619
   123  C   4.0    0.07    3.99    3.61    81.30205    86.22447    87.32413
   124  C   4.0    0.26    3.01    3.02    80.18177    88.82724    87.92662
   125  O   6.0   -0.43    1.00    1.80    78.58583    89.76984    86.54344
   126  C   4.0   -0.14    3.99    3.60    82.92527    86.37025    84.93560
   127  C   4.0   -0.16    3.98    3.59    83.72642    83.73492    84.07533
   128  C   4.0   -0.16    3.98    3.59    85.56112    83.83686    81.85190
   129  C   4.0   -0.04    3.98    3.59    86.15955    81.15724    80.99848
   130  N   5.0   -0.72    3.98    2.82    87.88610    81.13137    78.78396
   131  H   1.0    0.24    1.00    1.43    78.23170    84.82595    85.29075
   132  H   1.0    0.13    0.99    1.43    82.37626    85.52111    88.93907
   133  H   1.0    0.12    0.99    1.43    81.82638    87.31095    83.46485
   134  H   1.0    0.11    0.99    1.43    84.57465    87.52989    85.35514
   135  H   1.0    0.12    0.99    1.43    84.60810    82.76845    85.66245
   136  H   1.0    0.12    0.99    1.43    82.05767    82.64519    83.54375
   137  H   1.0    0.11    0.99    1.43    84.67743    84.89304    80.32032
   138  H   1.0    0.11    0.99    1.43    87.27409    84.81350    82.44431
   139  H   1.0    0.12    0.99    1.43    87.02808    80.08438    82.52932
   140  H   1.0    0.15    0.99    1.43    84.42769    80.18579    80.44192
   141  H   1.0    0.27    1.00    1.43    88.10474    79.28443    78.21093
   142  H   1.0    0.25    1.00    1.43    87.08182    82.12246    77.31468
   143  H   1.0    0.24    1.00    1.43    89.60908    81.92116    79.22991
   144  N   5.0   -0.48    3.01    1.93    81.06132    89.91677    90.02653
   145  C   4.0    0.07    3.99    3.61    80.22340    92.40168    90.78442
   146  C   4.0    0.05    3.00    3.02    82.51253    93.79037    91.87830
   147  O   6.0   -0.40    1.00    1.80    84.27934    92.67813    92.85654
   148  C   4.0   -0.08    3.98    3.58    78.06780    92.32898    92.78232
   149  C   4.0   -0.23    3.98    3.59    76.63199    94.83371    92.83402
   150  C   4.0   -0.20    3.98    3.59    76.18682    90.20398    92.23381
   151  H   1.0    0.26    1.00    1.43    82.52634    89.17740    91.02680
   152  H   1.0    0.13    0.99    1.43    79.50707    93.33614    89.08173
   153  H   1.0    0.13    0.99    1.43    78.94876    91.99597    94.62610
   154  H   1.0    0.10    0.99    1.43    75.02350    94.67429    94.10564
   155  H   1.0    0.10    0.99    1.43    77.81383    96.39495    93.44708
   156  H   1.0    0.11    0.99    1.43    75.88418    95.24335    90.96407
   157  H   1.0    0.10    0.99    1.43    74.71013    90.17323    93.67060
   158  H   1.0    0.12    0.99    1.43    75.27929    90.52348    90.41805
   159  H   1.0    0.13    0.99    1.43    77.09457    88.35904    92.17494
   160  H   1.0    0.30    1.00    1.43    83.84734    80.34266    94.20484
   161  H   1.0    0.12    1.00    1.43    73.52937    63.47621    92.39433
   162  H   1.0    0.29    1.00    1.43    82.56625    57.84490    76.01878
   163  H   1.0    0.15    1.00    1.43    76.67826    58.23003    73.52006
   164  H   1.0    0.29    1.00    1.43    70.86020    67.01663    82.56787
   165  H   1.0    0.12    1.00    1.43    82.59654    95.67684    91.80587

           ------------------------------------------------- 
          |        Self-Consistent Charge Iterations        |
           ------------------------------------------------- 

          ...................................................
          :                      SETUP                      :
          :.................................................:
          :  # basis functions                 396          :
          :  # atomic orbitals                 396          :
          :  # shells                          242          :
          :  # electrons                       442          :
          :  max. iterations                   250          :
          :  Hamiltonian                  GFN2-xTB          :
          :  restarted?                      false          :
          :  GBSA solvation                   true          :
          :  PC potential                    false          :
          :  electronic temp.          500.0000000     K    :
          :  accuracy                    0.1000000          :
          :  -> integral cutoff          0.3500000E+02      :
          :  -> integral neglect         0.1000000E-08      :
          :  -> SCF convergence          0.1000000E-06 Eh   :
          :  -> wf. convergence          0.1000000E-04 e    :
          :  Broyden damping             0.4000000          :
          ...................................................

 iter      E             dE          RMSdq      gap      omega  full diag
   1   -253.8300244 -0.253830E+03  0.426E+00    2.44       0.0  T
   2   -254.5302839 -0.700260E+00  0.211E+00    1.80       1.0  T
   3   -254.5595250 -0.292410E-01  0.118E+00    2.23       1.0  T
   4   -254.5718660 -0.123410E-01  0.298E-01    1.39       1.0  T
   5   -254.5777754 -0.590944E-02  0.118E-01    1.55       1.0  T
   6   -254.5780218 -0.246363E-03  0.519E-02    1.59       1.0  T
   7   -254.5780487 -0.269120E-04  0.174E-02    1.63       1.0  T
   8   -254.5780610 -0.123443E-04  0.627E-03    1.64       1.2  T
   9   -254.5780619 -0.880375E-06  0.220E-03    1.64       3.5  T
  10   -254.5780620 -0.644141E-07  0.909E-04    1.64       8.6  T
  11   -254.5780620 -0.228843E-07  0.295E-04    1.64      26.4  T
  12   -254.5780620 -0.309043E-08  0.121E-04    1.64      64.2  T
  13   -254.5780620 -0.330971E-09  0.473E-05    1.64     164.7  T
  14   -254.5780620 -0.515001E-10  0.192E-05    1.64     404.7  T

   *** convergence criteria satisfied after 14 iterations ***

         #    Occupation            Energy/Eh            Energy/eV
      -------------------------------------------------------------
         1        2.0000           -0.7403607             -20.1462
       ...           ...                  ...                  ...
       215        2.0000           -0.3775602             -10.2739
       216        2.0000           -0.3750684             -10.2061
       217        2.0000           -0.3748478             -10.2001
       218        2.0000           -0.3719325             -10.1208
       219        2.0000           -0.3643116              -9.9134
       220        2.0000           -0.3628730              -9.8743
       221        2.0000           -0.3549482              -9.6586 (HOMO)
       222                         -0.2946603              -8.0181 (LUMO)
       223                         -0.2928811              -7.9697
       224                         -0.2837456              -7.7211
       225                         -0.2425191              -6.5993
       226                         -0.2339740              -6.3668
       ...                                ...                  ...
       396                          0.6391663              17.3926
      -------------------------------------------------------------
                  HL-Gap            0.0602878 Eh            1.6405 eV
             Fermi-level           -0.3250203 Eh           -8.8443 eV

 SCC (total)                   0 d,  0 h,  0 min,  1.288 sec
 SCC setup                      ...        0 min,  0.020 sec (  1.586%)
 Dispersion                     ...        0 min,  0.007 sec (  0.569%)
 integral evaluation            ...        0 min,  0.057 sec (  4.455%)
 zeroth order Hamiltonian       ...        0 min,  0.002 sec (  0.177%)
 iterations                     ...        0 min,  0.980 sec ( 76.151%)
 molecular gradient             ...        0 min,  0.214 sec ( 16.646%)
 printout                       ...        0 min,  0.005 sec (  0.409%)

         :::::::::::::::::::::::::::::::::::::::::::::::::::::
         ::                     SUMMARY                     ::
         :::::::::::::::::::::::::::::::::::::::::::::::::::::
         :: total energy             -251.635490563378 Eh   ::
         :: total w/o Gsasa/hb       -251.595319742129 Eh   ::
         :: gradient norm               0.386417994947 Eh/α ::
         :: HOMO-LUMO gap               1.640515527215 eV   ::
         ::.................................................::
         :: SCC energy               -254.586032419672 Eh   ::
         :: -> isotropic ES             0.919099824554 Eh   ::
         :: -> anisotropic ES          -0.049139543965 Eh   ::
         :: -> anisotropic XC           0.079622805720 Eh   ::
         :: -> dispersion              -0.177393299972 Eh   ::
         :: -> Gsolv                   -0.225213589123 Eh   ::
         ::    -> Gborn                -0.185042767875 Eh   ::
         ::    -> Gsasa                -0.009827849212 Eh   ::
         ::    -> Ghb                  -0.032200415163 Eh   ::
         ::    -> Gshift                0.001857443127 Eh   ::
         :: repulsion energy            2.940467046092 Eh   ::
         :: add. restraining            0.000000000000 Eh   ::
         :::::::::::::::::::::::::::::::::::::::::::::::::::::

           -------------------------------------------------
          |                Property Printout                |
           -------------------------------------------------

    * Orbital Energies and Occupations

         #    Occupation            Energy/Eh            Energy/eV
      -------------------------------------------------------------
         1        2.0000           -0.7403607             -20.1462
       ...           ...                  ...                  ...
       209        2.0000           -0.4028882             -10.9631
       210        2.0000           -0.4017547             -10.9323
       211        2.0000           -0.3991864             -10.8624
       212        2.0000           -0.3984267             -10.8417
       213        2.0000           -0.3913575             -10.6494
       214        2.0000           -0.3899601             -10.6114
       215        2.0000           -0.3775602             -10.2739
       216        2.0000           -0.3750684             -10.2061
       217        2.0000           -0.3748478             -10.2001
       218        2.0000           -0.3719325             -10.1208
       219        2.0000           -0.3643116              -9.9134
       220        2.0000           -0.3628730              -9.8743
       221        2.0000           -0.3549482              -9.6586 (HOMO)
       222                         -0.2946603              -8.0181 (LUMO)
       223                         -0.2928811              -7.9697
       224                         -0.2837456              -7.7211
       225                         -0.2425191              -6.5993
       226                         -0.2339740              -6.3668
       227                         -0.2289589              -6.2303
       228                         -0.2279752              -6.2035
       229                         -0.2247856              -6.1167
       230                         -0.2174021              -5.9158
       231                         -0.2095504              -5.7022
       232                         -0.1860862              -5.0637
       ...                                ...                  ...
       396                          0.6391663              17.3926
      -------------------------------------------------------------
                  HL-Gap            0.0602878 Eh            1.6405 eV
             Fermi-level           -0.3250203 Eh           -8.8443 eV

   #   Z        covCN         q      C6AA      α(0)
   1   7 N      2.638    -0.387    30.015     8.137
   2   6 C      3.787     0.031    20.064     6.380
   3   6 C      2.761     0.279    22.279     7.730
   4   8 O      0.859    -0.492    23.607     6.514
   5   6 C      3.804    -0.059    21.627     6.621
   6   6 C      3.800    -0.081    22.054     6.686
   7   6 C      2.686     0.361    20.873     7.477
   8   8 O      0.856    -0.600    26.115     6.852
   9   8 O      0.905    -0.575    25.476     6.768
  10   1 H      0.860     0.168     1.287     1.777
  11   1 H      0.924     0.043     2.404     2.425
  12   1 H      0.924     0.039     2.465     2.455
  13   1 H      0.924     0.034     2.535     2.490
  14   1 H      0.924     0.029     2.599     2.521
  15   1 H      0.924     0.030     2.589     2.516
  16   7 N      2.696    -0.169    24.662     7.376
  17   6 C      3.797     0.019    20.263     6.410
  18   6 C      2.766     0.270    22.449     7.759
  19   8 O      0.859    -0.481    23.369     6.481
  20   6 C      3.805    -0.073    21.899     6.662
  21   6 C      3.803    -0.072    21.876     6.659
  22   6 C      3.738    -0.009    20.822     6.511
  23   7 N      2.702    -0.156    24.368     7.332
  24   6 C      2.737     0.249    22.812     7.820
  25   7 N      2.653    -0.273    27.055     7.725
  26   7 N      2.648    -0.255    26.634     7.665
  27   1 H      0.860     0.213     1.042     1.599
  28   1 H      0.924     0.069     2.102     2.267
  29   1 H      0.924     0.072     2.067     2.249
  30   1 H      0.924     0.053     2.277     2.360
  31   1 H      0.924     0.048     2.346     2.395
  32   1 H      0.924     0.074     2.042     2.235
  33   1 H      0.924     0.081     1.969     2.194
  34   1 H      0.923     0.053     2.286     2.365
  35   1 H      0.859     0.242     0.913     1.497
  36   1 H      0.860     0.248     0.889     1.477
  37   1 H      0.860     0.228     0.973     1.545
  38   1 H      0.860     0.231     0.960     1.535
  39   1 H      0.860     0.239     0.927     1.508
  40   7 N      2.690    -0.167    24.624     7.370
  41   6 C      3.794     0.020    20.242     6.407
  42   6 C      2.768     0.196    23.814     7.992
  43   8 O      0.856    -0.364    20.976     6.140
  44   6 C      3.807    -0.071    21.854     6.655
  45   6 C      3.799    -0.069    21.816     6.650
  46   6 C      3.803    -0.087    22.165     6.703
  47   6 C      3.730    -0.024    21.103     6.558
  48   7 N      3.464    -0.197    25.261     7.465
  49   1 H      0.860     0.220     1.011     1.575
  50   1 H      0.924     0.099     1.794     2.095
  51   1 H      0.924     0.057     2.236     2.339
  52   1 H      0.924     0.073     2.058     2.244
  53   1 H      0.924     0.059     2.208     2.324
  54   1 H      0.924     0.046     2.377     2.411
  55   1 H      0.925     0.077     2.007     2.215
  56   1 H      0.924     0.078     2.002     2.213
  57   1 H      0.924     0.083     1.951     2.185
  58   1 H      0.924     0.096     1.820     2.110
  59   1 H      0.859     0.256     0.862     1.454
  60   1 H      0.859     0.266     0.826     1.424
  61   1 H      0.887     0.301     0.708     1.317
  62   7 N      2.637    -0.386    29.980     8.132
  63   6 C      3.782     0.039    19.937     6.361
  64   6 C      2.763     0.195    23.829     7.994
  65   8 O      0.856    -0.387    21.428     6.206
  66   6 C      3.807    -0.042    21.312     6.572
  67   6 C      3.798    -0.093    22.286     6.722
  68   6 C      2.684     0.366    20.790     7.462
  69   8 O      0.856    -0.659    27.604     7.044
  70   8 O      0.856    -0.629    26.852     6.948
  71   1 H      0.860     0.160     1.338     1.812
  72   1 H      0.923     0.069     2.100     2.266
  73   1 H      0.924     0.026     2.649     2.545
  74   1 H      0.924     0.026     2.640     2.541
  75   1 H      0.924     0.020     2.726     2.582
  76   1 H      0.924     0.027     2.625     2.534
  77   7 N      2.636    -0.393    30.190     8.160
  78   6 C      3.787     0.031    20.074     6.381
  79   6 C      2.754     0.278    22.301     7.733
  80   8 O      0.858    -0.482    23.387     6.484
  81   6 C      3.852    -0.017    20.843     6.493
  82   6 C      3.755    -0.110    22.663     6.788
  83   6 C      3.756    -0.114    22.738     6.799
  84   1 H      0.860     0.164     1.310     1.793
  85   1 H      0.924     0.032     2.557     2.501
  86   1 H      0.924     0.037     2.491     2.468
  87   1 H      0.925     0.053     2.282     2.363
  88   1 H      0.925     0.025     2.662     2.551
  89   1 H      0.925     0.038     2.469     2.457
  90   1 H      0.925     0.054     2.273     2.358
  91   1 H      0.925     0.040     2.449     2.447
  92   1 H      0.925     0.039     2.464     2.455
  93   7 N      2.688    -0.177    24.829     7.401
  94   6 C      3.795     0.026    20.151     6.392
  95   6 C      2.765     0.272    22.407     7.752
  96   8 O      0.859    -0.498    23.733     6.532
  97   6 C      3.812    -0.052    21.503     6.600
  98   6 C      3.797    -0.091    22.232     6.714
  99   6 C      2.687     0.363    20.844     7.472
 100   8 O      0.856    -0.601    26.156     6.857
 101   8 O      0.856    -0.592    25.926     6.827
 102   1 H      0.860     0.196     1.129     1.664
 103   1 H      0.924     0.069     2.095     2.263
 104   1 H      0.924     0.045     2.389     2.417
 105   1 H      0.924     0.056     2.252     2.347
 106   1 H      0.925     0.026     2.640     2.541
 107   1 H      0.924     0.015     2.811     2.622
 108   7 N      2.692    -0.196    25.266     7.465
 109   6 C      3.799     0.011    20.389     6.429
 110   6 C      2.754     0.270    22.434     7.756
 111   8 O      0.859    -0.466    23.048     6.437
 112   6 C      3.724     0.129    18.581     6.155
 113   8 O      1.654    -0.485    22.580     6.415
 114   6 C      3.753    -0.124    22.940     6.830
 115   1 H      0.860     0.234     0.947     1.525
 116   1 H      0.923     0.063     2.159     2.298
 117   1 H      0.923     0.018     2.772     2.603
 118   1 H      0.804     0.320     0.663     1.279
 119   1 H      0.925     0.071     2.070     2.250
 120   1 H      0.925     0.049     2.337     2.390
 121   1 H      0.925     0.052     2.290     2.366
 122   7 N      2.696    -0.162    24.503     7.352
 123   6 C      3.795     0.011    20.394     6.431
 124   6 C      2.761     0.271    22.429     7.756
 125   8 O      0.858    -0.477    23.292     6.471
 126   6 C      3.808    -0.078    21.990     6.675
 127   6 C      3.807    -0.072    21.874     6.658
 128   6 C      3.803    -0.093    22.266     6.718
 129   6 C      3.734    -0.040    21.375     6.598
 130   7 N      3.483    -0.142    24.062     7.285
 131   1 H      0.860     0.210     1.055     1.609
 132   1 H      0.924     0.075     2.027     2.226
 133   1 H      0.924     0.068     2.104     2.268
 134   1 H      0.925     0.075     2.037     2.232
 135   1 H      0.925     0.059     2.214     2.327
 136   1 H      0.924     0.041     2.438     2.442
 137   1 H      0.925     0.078     2.001     2.212
 138   1 H      0.925     0.087     1.905     2.159
 139   1 H      0.924     0.108     1.713     2.047
 140   1 H      0.924     0.102     1.767     2.079
 141   1 H      0.859     0.290     0.743     1.351
 142   1 H      0.859     0.296     0.725     1.334
 143   1 H      0.859     0.307     0.694     1.305
 144   7 N      2.691    -0.163    24.533     7.356
 145   6 C      3.795     0.016    20.306     6.417
 146   6 C      2.769     0.200    23.741     7.980
 147   8 O      0.856    -0.361    20.915     6.132
 148   6 C      3.849    -0.009    20.703     6.472
 149   6 C      3.757    -0.127    22.986     6.836
 150   6 C      3.756    -0.110    22.652     6.786
 151   1 H      0.860     0.215     1.032     1.591
 152   1 H      0.924     0.099     1.798     2.097
 153   1 H      0.924     0.045     2.385     2.415
 154   1 H      0.925     0.061     2.188     2.313
 155   1 H      0.925     0.050     2.318     2.381
 156   1 H      0.925     0.056     2.245     2.343
 157   1 H      0.924     0.053     2.278     2.360
 158   1 H      0.925     0.052     2.297     2.370
 159   1 H      0.925     0.031     2.572     2.508
 160   1 H      0.862     0.181     1.205     1.720
 161   1 H      0.930     0.085     1.923     2.169
 162   1 H      0.862     0.188     1.170     1.694
 163   1 H      0.930     0.082     1.961     2.190
 164   1 H      0.862     0.183     1.196     1.713
 165   1 H      0.930     0.085     1.930     2.172

 Mol. C6AA /au·bohr⁶  :     237080.995620
 Mol. C8AA /au·bohr⁸  :    5172436.055466
 Mol. α(0) /au        :        722.918957


Wiberg/Mayer (AO) data.
largest (>0.10) Wiberg bond orders for each atom
          total WBO             WBO to atom ...
     1  N   2.995        C    2 1.027    H  160 0.953    H   10 0.939
     2  C   3.989        N    1 1.027    C    5 0.957    H   11 0.956    C    3 0.953
     3  C   3.940        O    4 1.599    N   16 1.306    C    2 0.953
     4  O   1.970        C    3 1.599    N   16 0.188
     5  C   3.995        C    6 1.006    H   13 0.976    H   12 0.972    C    2 0.957
     6  C   3.993        C    5 1.006    H   14 0.980    H   15 0.953    C    7 0.938
     7  C   3.933        O    8 1.561    O    9 1.403    C    6 0.938
     8  O   1.846        C    7 1.561    O    9 0.206
     9  O   1.943        C    7 1.403    O    8 0.206    H   61 0.199
    10  H   0.972        N    1 0.939
    11  H   0.997        C    2 0.956
    12  H   0.998        C    5 0.972
    13  H   0.998        C    5 0.976
    14  H   0.999        C    6 0.980
    15  H   0.999        C    6 0.953
    16  N   3.477        C    3 1.306    C   17 0.985    H   27 0.921    O    4 0.188
    17  C   3.966        N   16 0.985    C   20 0.971    H   28 0.948    C   18 0.931
    18  C   3.953        O   19 1.636    N   40 1.309    C   17 0.931
    19  O   1.960        C   18 1.636    N   40 0.203
    20  C   3.989        C   21 1.005    H   29 0.972    H   30 0.972    C   17 0.971
    21  C   3.990        C   20 1.005    C   22 1.004    H   32 0.973    H   31 0.968
    22  C   3.963        C   21 1.004    N   23 0.988    H   34 0.963    H   33 0.963
    23  N   3.467        C   24 1.349    C   22 0.988    H   35 0.845
    24  C   3.974        N   23 1.349    N   26 1.296    N   25 1.292
    25  N   3.338        C   24 1.292    H   37 0.924    H   36 0.882
    26  N   3.370        C   24 1.296    H   39 0.924    H   38 0.923
    27  H   0.954        N   16 0.921
    28  H   0.995        C   17 0.948
    29  H   0.994        C   20 0.972
    30  H   0.997        C   20 0.972
    31  H   0.998        C   21 0.968
    32  H   0.994        C   21 0.973
    33  H   0.993        C   22 0.963
    34  H   0.997        C   22 0.963
    35  H   0.941        N   23 0.845
    36  H   0.938        N   25 0.882
    37  H   0.948        N   25 0.924
    38  H   0.947        N   26 0.923
    39  H   0.943        N   26 0.924
    40  N   3.485        C   18 1.309    C   41 0.984    H   49 0.904    O   19 0.203
    41  C   3.961        N   40 0.984    C   42 0.972    C   44 0.952    H   50 0.945
    42  C   3.897        O   43 1.903    C   41 0.972    H  161 0.952
    43  O   2.047        C   42 1.903
    44  C   3.984        C   45 1.000    H   51 0.975    H   52 0.969    C   41 0.952
    45  C   3.992        C   46 1.003    C   44 1.000    H   54 0.977    H   53 0.976
    46  C   3.987        C   47 1.012    C   45 1.003    H   56 0.971    H   55 0.967
    47  C   3.937        C   46 1.012    H   57 0.970    N   48 0.969    H   58 0.968
    48  N   3.604        C   47 0.969    H   59 0.920    H   60 0.914    H   61 0.690
    49  H   0.952        N   40 0.904
    50  H   0.990        C   41 0.945
    51  H   0.997        C   44 0.975
    52  H   0.994        C   44 0.969
    53  H   0.996        C   45 0.976
    54  H   0.998        C   45 0.977
    55  H   0.994        C   46 0.967
    56  H   0.994        C   46 0.971
    57  H   0.993        C   47 0.970
    58  H   0.990        C   47 0.968
    59  H   0.935        N   48 0.920
    60  H   0.929        N   48 0.914
    61  H   0.909        N   48 0.690    O    9 0.199
    62  N   3.003        C   63 1.028    H   71 0.954    H  162 0.953
    63  C   3.988        N   62 1.028    C   64 0.980    C   66 0.962    H   72 0.934
    64  C   3.889        O   65 1.884    C   63 0.980    H  163 0.952
    65  O   2.025        C   64 1.884
    66  C   3.994        C   67 1.005    H   74 0.977    H   73 0.973    C   63 0.962
    67  C   3.990        C   66 1.005    H   75 0.983    H   76 0.962    C   68 0.908
    68  C   3.934        O   70 1.506    O   69 1.496    C   67 0.908
    69  O   1.788        C   68 1.496    O   70 0.216
    70  O   1.800        C   68 1.506    O   69 0.216
    71  H   0.975        N   62 0.954
    72  H   0.995        C   63 0.934
    73  H   0.999        C   66 0.973
    74  H   0.999        C   66 0.977
    75  H   1.000        C   67 0.983
    76  H   0.999        C   67 0.962
    77  N   2.992        C   78 1.020    H   84 0.953    H  164 0.947
    78  C   3.985        N   77 1.020    H   85 0.960    C   79 0.952    C   81 0.947
    79  C   3.939        O   80 1.635    N   93 1.276    C   78 0.952
    80  O   1.963        C   79 1.635    N   93 0.186
    81  C   3.994        C   83 1.010    C   82 1.009    H   86 0.967    C   78 0.947
    82  C   3.995        C   81 1.009    H   89 0.985    H   87 0.984    H   88 0.983
    83  C   3.994        C   81 1.010    H   91 0.986    H   90 0.983    H   92 0.980
    84  H   0.973        N   77 0.953
    85  H   0.999        C   78 0.960
    86  H   0.999        C   81 0.967
    87  H   0.997        C   82 0.984
    88  H   0.999        C   82 0.983
    89  H   0.999        C   82 0.985
    90  H   0.997        C   83 0.983
    91  H   0.998        C   83 0.986
    92  H   0.998        C   83 0.980
    93  N   3.453        C   79 1.276    C   94 0.989    H  102 0.929    O   80 0.186
    94  C   3.966        N   93 0.989    C   97 0.961    H  103 0.947    C   95 0.936
    95  C   3.947        O   96 1.607    N  108 1.311    C   94 0.936
    96  O   1.946        C   95 1.607    N  108 0.194
    97  C   3.988        C   98 0.997    H  104 0.976    H  105 0.973    C   94 0.961
    98  C   3.985        C   97 0.997    H  107 0.976    H  106 0.974    C   99 0.916
    99  C   3.938        O  100 1.533    O  101 1.454    C   98 0.916
   100  O   1.834        C   99 1.533    O  101 0.209
   101  O   1.872        C   99 1.454    O  100 0.209
   102  H   0.961        N   93 0.929
   103  H   0.995        C   94 0.947
   104  H   0.998        C   97 0.976
   105  H   0.996        C   97 0.973
   106  H   0.999        C   98 0.974
   107  H   1.000        C   98 0.976
   108  N   3.462        C   95 1.311    C  109 0.974    H  115 0.875    O   96 0.194
   109  C   3.963        N  108 0.974    C  112 0.963    H  116 0.953    C  110 0.931
   110  C   3.956        O  111 1.640    N  122 1.307    C  109 0.931
   111  O   1.980        C  110 1.640    N  122 0.204
   112  C   3.956        C  114 1.000    O  113 0.987    C  109 0.963    H  117 0.956
   113  O   1.930        C  112 0.987    H  118 0.859
   114  C   3.991        C  112 1.000    H  121 0.986    H  120 0.983    H  119 0.981
   115  H   0.945        N  108 0.875
   116  H   0.996        C  109 0.953
   117  H   1.000        C  112 0.956
   118  H   0.897        O  113 0.859
   119  H   0.994        C  114 0.981
   120  H   0.998        C  114 0.983
   121  H   0.997        C  114 0.986
   122  N   3.483        C  110 1.307    C  123 0.970    H  131 0.921    O  111 0.204
   123  C   3.955        C  126 0.975    N  122 0.970    H  132 0.957    C  124 0.929
   124  C   3.951        O  125 1.643    N  144 1.302    C  123 0.929
   125  O   1.964        C  124 1.643    N  144 0.202
   126  C   3.984        C  127 1.005    C  123 0.975    H  133 0.972    H  134 0.970
   127  C   3.992        C  126 1.005    C  128 1.003    H  136 0.974    H  135 0.974
   128  C   3.984        C  129 1.010    C  127 1.003    H  137 0.971    H  138 0.970
   129  C   3.915        C  128 1.010    H  139 0.965    H  140 0.959    N  130 0.956
   130  N   3.667        C  129 0.956    H  141 0.901    H  142 0.897    H  143 0.893
   131  H   0.956        N  122 0.921
   132  H   0.994        C  123 0.957
   133  H   0.995        C  126 0.972
   134  H   0.994        C  126 0.970
   135  H   0.997        C  127 0.974
   136  H   0.998        C  127 0.974
   137  H   0.994        C  128 0.971
   138  H   0.992        C  128 0.970
   139  H   0.988        C  129 0.965
   140  H   0.990        C  129 0.959
   141  H   0.916        N  130 0.901
   142  H   0.912        N  130 0.897
   143  H   0.906        N  130 0.893
   144  N   3.480        C  124 1.302    C  145 0.988    H  151 0.915    O  125 0.202
   145  C   3.964        N  144 0.988    C  146 0.988    H  152 0.941    C  148 0.925
   146  C   3.901        O  147 1.897    C  145 0.988    H  165 0.952
   147  O   2.054        C  146 1.897
   148  C   3.986        C  149 1.009    C  150 1.006    H  153 0.969    C  145 0.925
   149  C   3.990        C  148 1.009    H  155 0.986    H  156 0.984    H  154 0.982
   150  C   3.993        C  148 1.006    H  158 0.985    H  159 0.984    H  157 0.981
   151  H   0.954        N  144 0.915
   152  H   0.990        C  145 0.941
   153  H   0.998        C  148 0.969
   154  H   0.996        C  149 0.982
   155  H   0.997        C  149 0.986
   156  H   0.997        C  149 0.984
   157  H   0.997        C  150 0.981
   158  H   0.997        C  150 0.985
   159  H   0.999        C  150 0.984
   160  H   0.967        N    1 0.953
   161  H   0.992        C   42 0.952
   162  H   0.965        N   62 0.953
   163  H   0.993        C   64 0.952
   164  H   0.966        N   77 0.947
   165  H   0.992        C  146 0.952
 
molecular dipole:
                 x           y           z       tot (Debye)
 q only:        5.239       7.070       5.692
   full:        4.845       6.794       5.292      25.116
molecular quadrupole (traceless):
                xx          xy          yy          xz          yz          zz
 q only:      -63.157    1496.598     150.260    1221.523    1378.777     -87.103
  q+dip:      -82.127    1415.795     172.063    1130.131    1299.360     -89.936
   full:      -80.989    1415.113     172.738    1126.236    1301.993     -91.749


           -------------------------------------------------
          | TOTAL ENERGY             -251.635490563378 Eh   |
          | GRADIENT NORM               0.386417994947 Eh/α |
          | HOMO-LUMO GAP               1.640515527215 eV   |
           -------------------------------------------------

------------------------------------------------------------------------
 * finished run on 2019/05/31 at 06:33:56.779     
------------------------------------------------------------------------
 total:
 * wall-time:     0 d,  0 h,  0 min,  1.566 sec
 *  cpu-time:     0 d,  0 h,  0 min,  3.037 sec
 * ratio c/w:     1.939 speedup
 SCF:
 * wall-time:     0 d,  0 h,  0 min,  1.288 sec
 *  cpu-time:     0 d,  0 h,  0 min,  2.574 sec
 * ratio c/w:     1.999 speedup

