      -----------------------------------------------------------      
     |                   =====================                   |     
     |                           x T B                           |     
     |                   =====================                   |     
     |                         S. Grimme                         |     
     |          Mulliken Center for Theoretical Chemistry        |     
     |                    University of Bonn                     |     
     |                 Version 6.0.1 (SAW181210)                 |     
      -----------------------------------------------------------      

   This program is distributed in the hope that it will be useful,
   but WITHOUT ANY WARRANTY; without even the implied warranty of
   MERCHANTABILITY or FITNESS FOR A PARTICULAR PURPOSE.
   
   FOR NON-COMMERCIAL, ACADEMIA USE ONLY.
   
   Cite this work as:
   S. Grimme, C. Bannwarth, P. Shushkov, J. Comput. Theory Chem., 2017,
   13, 1989-2009.
   C. Bannwarth, S. Ehlert and S. Grimme., ChemRxiv, 2018, preprint.
   http://doi.org/10.26434/chemrxiv.7246238.v1
   
   for sTDA-xTB:
   S. Grimme and C. Bannwarth, J. Chem. Phys., 2016, 145, 054103.
   
   in the mass-spec context:
   V. Asgeirsson, C. Bauer and S. Grimme, Chem. Sci., 2017, 8, 4879.
   
   if GBSA is used:
   P. Shushkov, F. März and S. Grimme, unpublished.
   
   for ANC optimizer:
   S. Grimme, unpublished.
   Rational Function algorithm used in ANCopt:
   F. Eckert, P. Pulay, H.-J. Werner, J. Comput. Chem., 1997, 18, 1473.
   
   with help from (in alphabetical order)
   C. Bannwarth, F. Bohle, G. Brandenburg, E. Caldeweyher, M. Checinski,
   S. Dohm, S. Ehlert, S. Ehrlich, F. März, H. Neugebauer, J. Pisarek,
   P. Pracht, P. Shushkov, and S. Spicher.
   
 * started run on 2019/03/14 at 15:08:17.975     
========================================================================
 # omp threads = 1
========================================================================
number of atoms            : 326
number of electrons        : 886
charge                     : 1
spin                       : .0
first test random number   : .3490
           ------------------------------------------------- 
          |                 G F N 2 - x T B                 |
          | Geometry, Frequencies, Noncovalent interactions |
          |            JCTC 2018 parametrisation            |
           ------------------------------------------------- 
 
      method parameters     
 k(s)        :  1.8500
 k(p)        :  2.2300
 k(d)        :  2.2300
 k(f)        :  2.0000
 kEN (H0ij)  : -2.0000
 D4 a1       :  0.5200
 D4 a2       :  5.0000
 D4 s6       :  1.0000
 D4 s8       :  2.7000
 D4 s9       :  5.0000
 alphaj      :  2.0000

 Solvent             : h2o
 Using internal parameter file: .param_gbsa2_h2o
 Gsolv ref. state (COSMO-RS): gsolv [1 M gas/solution]
 temperature (mdtemp)       :    298.150000000000     
 dielectric constant        :    80.2000000000000     
 rho                        :    1.00000000000000     
 mass                       :    18.0000000000000     
 surface tension            :    15.5689454083859     
 probe radius               :   0.975313790000000     
 vdW radii scaling          :    1.00000000000000     
 Gshift (Eh)                :   1.857443126794793E-003
 c1                         :    1.55243817000000     
 soset                      :   0.130326360000000     
 HB correction              :  T

            Z     q(EN)     CN     RAES       Cart. coordinates
     1  N   5.0   -0.20    3.22    1.96   135.60228    75.84749    91.19329
     2  C   4.0    0.03    4.31    4.21   137.11820    74.45927    89.36591
     3  C   4.0    0.15    3.40    3.08   135.46383    73.23909    87.32581
     4  O   6.0   -0.30    1.23    1.80   135.81369    73.60859    85.07565
     5  C   4.0   -0.05    4.26    4.11   138.76640    72.50378    90.71830
     6  C   4.0   -0.05    4.20    4.00   140.78370    73.79816    92.33852
     7  C   4.0   -0.05    4.16    3.92   142.76099    71.94490    93.34430
     8  C   4.0   -0.04    4.13    3.86   144.59898    73.35411    95.06588
     9  N   5.0   -0.12    4.01    2.89   146.53974    71.61505    96.12419
    10  H   1.0    0.08    1.03    1.43   136.09010    75.73388    93.03423
    11  H   1.0    0.05    1.05    1.44   138.31095    75.82209    88.34499
    12  H   1.0    0.04    1.02    1.43   137.57600    71.28390    91.87914
    13  H   1.0    0.04    1.03    1.43   139.66914    71.32916    89.28665
    14  H   1.0    0.04    1.03    1.43   141.72105    75.22736    91.18854
    15  H   1.0    0.04    1.03    1.43   139.89114    74.74539    93.93669
    16  H   1.0    0.04    1.02    1.43   141.81387    70.43759    94.38173
    17  H   1.0    0.04    1.03    1.43   143.76096    71.10744    91.75001
    18  H   1.0    0.04    1.02    1.43   145.55272    74.84302    94.00629
    19  H   1.0    0.04    1.02    1.43   143.56680    74.20758    96.63185
    20  H   1.0    0.06    1.02    1.43   147.73329    72.56500    97.33563
    21  H   1.0    0.06    1.02    1.43   145.67250    70.17371    97.10716
    22  H   1.0    0.05    1.02    1.43   147.60619    70.84288    94.68933
    23  N   5.0   -0.15    3.47    2.06   133.65353    71.66480    88.16925
    24  C   4.0    0.04    4.36    4.31   132.15688    70.23411    86.37948
    25  C   4.0    0.09    3.20    3.04   130.15604    71.85120    85.05703
    26  O   6.0   -0.29    1.12    1.80   129.16127    71.14752    83.08648
    27  C   4.0   -0.03    4.30    4.20   131.01388    67.88971    87.63040
    28  C   4.0   -0.02    3.54    3.13   132.96414    66.13369    88.76313
    29  C   4.0   -0.04    3.46    3.10   132.20517    64.38801    90.58298
    30  C   4.0   -0.04    3.49    3.11   135.48658    66.16815    88.04155
    31  C   4.0   -0.03    3.43    3.09   133.90303    62.70447    91.61989
    32  C   4.0   -0.05    3.42    3.09   137.21012    64.48648    89.06132
    33  C   4.0    0.07    3.45    3.09   136.42053    62.73232    90.84644
    34  O   6.0   -0.24    2.13    1.84   138.01482    61.03176    91.90981
    35  H   1.0    0.08    1.06    1.44   133.32493    71.40717    90.03081
    36  H   1.0    0.06    1.07    1.44   133.41193    69.64476    84.83490
    37  H   1.0    0.05    1.03    1.43   129.68121    68.46486    89.09883
    38  H   1.0    0.05    1.03    1.43   129.92858    66.87055    86.19506
    39  H   1.0    0.06    1.03    1.43   130.25824    64.34628    91.19745
    40  H   1.0    0.05    1.04    1.43   136.15609    67.51974    86.67543
    41  H   1.0    0.06    1.03    1.43   133.33153    61.34815    93.03369
    42  H   1.0    0.05    1.03    1.43   139.16710    64.52653    88.46661
    43  H   1.0    0.12    1.06    1.44   139.72582    61.25700    91.29324
    44  N   5.0   -0.19    3.24    1.97   132.69299    74.40811    78.77527
    45  C   4.0    0.04    4.26    4.12   132.63724    72.42816    76.88253
    46  C   4.0    0.09    3.19    3.03   130.03872    72.34669    75.61188
    47  O   6.0   -0.27    1.11    1.80   129.82626    72.54124    73.31058
    48  C   4.0   -0.03    4.33    4.25   133.41348    69.94976    78.12741
    49  C   4.0   -0.01    3.57    3.15   136.02575    70.09803    79.26162
    50  C   4.0   -0.04    3.47    3.10   136.62315    68.58025    81.32049
    51  C   4.0   -0.04    3.49    3.11   137.88802    71.66808    78.27520
    52  C   4.0   -0.04    3.38    3.07   138.98747    68.70542    82.42910
    53  C   4.0   -0.04    3.38    3.07   140.25177    71.79345    79.38263
    54  C   4.0   -0.04    3.38    3.07   140.79628    70.33866    81.48457
    55  H   1.0    0.11    1.03    1.43   133.27752    73.94773    80.53495
    56  H   1.0    0.05    1.06    1.44   133.95689    72.90683    75.35386
    57  H   1.0    0.06    1.03    1.43   132.03994    69.45525    79.59029
    58  H   1.0    0.04    1.06    1.44   133.38342    68.45663    76.70511
    59  H   1.0    0.05    1.03    1.43   135.23957    67.24358    82.00824
    60  H   1.0    0.05    1.03    1.43   137.53708    72.79046    76.60847
    61  H   1.0    0.05    1.03    1.43   139.43417    67.48839    84.00455
    62  H   1.0    0.05    1.03    1.43   141.66977    73.02200    78.57575
    63  H   1.0    0.05    1.03    1.43   142.64590    70.43185    82.33244
    64  N   5.0   -0.21    3.24    1.96   140.39614    57.53619    62.59803
    65  C   4.0    0.03    4.36    4.32   142.51987    56.10639    63.54766
    66  C   4.0    0.14    3.44    3.09   143.96975    57.63915    65.50689
    67  O   6.0   -0.33    1.32    1.80   144.78032    56.61236    67.42482
    68  C   4.0    0.05    4.24    4.07   144.28468    55.31408    61.34820
    69  O   6.0   -0.25    2.12    1.84   143.01214    53.69362    59.66570
    70  C   4.0   -0.06    4.09    3.79   146.61158    53.90607    62.29439
    71  H   1.0    0.08    1.03    1.43   140.44319    58.03663    60.74588
    72  H   1.0    0.05    1.05    1.44   141.84071    54.38454    64.48978
    73  H   1.0    0.04    1.04    1.43   144.86409    57.05609    60.37235
    74  H   1.0    0.12    1.02    1.43   141.84275    54.71634    58.68378
    75  H   1.0    0.05    1.00    1.43   147.79261    53.40611    60.69102
    76  H   1.0    0.05    1.00    1.43   147.69089    55.05525    63.60481
    77  H   1.0    0.05    1.00    1.43   146.02248    52.17716    63.23024
    78  N   5.0   -0.15    3.52    2.09   144.26349    60.08237    64.99287
    79  C   4.0    0.03    4.50    4.54   145.63904    61.77920    66.64093
    80  C   4.0    0.15    3.49    3.11   144.14717    62.13986    69.08141
    81  O   6.0   -0.33    1.33    1.80   145.26475    62.33004    71.10731
    82  C   4.0   -0.03    4.32    4.24   146.23708    64.29411    65.29182
    83  C   4.0   -0.05    4.18    3.96   148.45759    63.93343    63.46388
    84  C   4.0   -0.07    4.15    3.89   146.79245    66.37506    67.20666
    85  C   4.0   -0.07    4.01    3.64   148.91094    66.21903    61.76822
    86  H   1.0    0.07    1.07    1.44   143.90302    60.74082    63.21847
    87  H   1.0    0.05    1.06    1.44   147.41888    60.88708    67.23559
    88  H   1.0    0.04    1.06    1.44   144.55625    64.81604    64.20702
    89  H   1.0    0.04    1.03    1.43   150.16351    63.54009    64.55343
    90  H   1.0    0.04    1.03    1.43   148.05256    62.30175    62.27203
    91  H   1.0    0.04    1.00    1.43   147.24021    68.13580    66.25533
    92  H   1.0    0.05    1.01    1.43   145.16735    66.69022    68.42108
    93  H   1.0    0.05    1.00    1.43   148.38540    65.84019    68.38799
    94  H   1.0    0.05    1.00    1.43   150.33678    65.77506    60.35930
    95  H   1.0    0.05    1.00    1.43   147.17245    66.72492    60.79872
    96  H   1.0    0.04    1.00    1.43   149.55009    67.85014    62.83490
    97  N   5.0   -0.15    3.51    2.08   141.64425    62.18345    68.87366
    98  C   4.0    0.03    4.42    4.41   140.00383    62.26624    71.07115
    99  C   4.0    0.15    3.56    3.15   140.15421    59.71534    72.41576
   100  O   6.0   -0.32    1.42    1.80   140.62862    59.55722    74.68253
   101  C   4.0   -0.04    4.32    4.23   137.32157    62.94949    70.25269
   102  C   4.0   -0.02    3.52    3.13   135.45292    63.42462    72.35442
   103  C   4.0   -0.04    3.47    3.10   133.74410    65.40399    72.09674
   104  C   4.0   -0.04    3.49    3.11   135.26885    61.90439    74.49086
   105  C   4.0   -0.04    3.41    3.08   131.84116    65.77295    73.85028
   106  C   4.0   -0.04    3.37    3.07   133.41899    62.32232    76.29527
   107  C   4.0   -0.04    3.38    3.07   131.66572    64.22748    75.95446
   108  H   1.0    0.08    1.07    1.44   140.82737    62.14128    67.13350
   109  H   1.0    0.05    1.06    1.44   140.70928    63.69263    72.40086
   110  H   1.0    0.04    1.04    1.43   137.46625    64.64829    69.08831
   111  H   1.0    0.04    1.03    1.43   136.62786    61.41304    69.05589
   112  H   1.0    0.06    1.03    1.43   133.88700    66.68300    70.51442
   113  H   1.0    0.07    1.06    1.44   136.59558    60.39505    74.77464
   114  H   1.0    0.07    1.03    1.43   130.50998    67.29162    73.56764
   115  H   1.0    0.05    1.03    1.43   133.32514    61.15626    77.96877
   116  H   1.0    0.06    1.03    1.43   130.21393    64.55038    77.34778
   117  N   5.0   -0.14    3.53    2.10   139.73873    57.68038    71.00451
   118  C   4.0    0.03    4.55    4.61   140.02231    55.21329    72.15724
   119  C   4.0    0.17    3.62    3.18   142.44769    55.28272    73.70814
   120  O   6.0   -0.32    1.39    1.80   142.52125    54.45564    75.86730
   121  C   4.0   -0.03    4.34    4.27   140.07373    53.09298    70.18167
   122  C   4.0   -0.05    4.19    3.98   137.39025    52.60003    69.21252
   123  C   4.0   -0.07    4.15    3.90   141.21659    50.69962    71.31269
   124  C   4.0   -0.07    4.01    3.64   137.31850    50.96526    66.84335
   125  H   1.0    0.08    1.06    1.44   139.36851    57.78011    69.12359
   126  H   1.0    0.05    1.05    1.44   138.47843    54.87358    73.50751
   127  H   1.0    0.05    1.06    1.44   141.27306    53.73999    68.62695
   128  H   1.0    0.04    1.03    1.43   136.31318    51.68538    70.71339
   129  H   1.0    0.04    1.03    1.43   136.50827    54.41048    68.78524
   130  H   1.0    0.04    1.00    1.43   141.20201    49.18907    69.92586
   131  H   1.0    0.05    1.01    1.43   143.15710    51.02381    71.90268
   132  H   1.0    0.05    1.00    1.43   140.14276    50.10827    72.96149
   133  H   1.0    0.05    1.00    1.43   135.37801    50.73602    66.21267
   134  H   1.0    0.04    1.00    1.43   138.38778    51.86027    65.33337
   135  H   1.0    0.04    1.00    1.43   138.10825    49.10338    67.19076
   136  N   5.0   -0.14    3.57    2.13   144.44446    56.27337    72.52909
   137  C   4.0    0.04    4.44    4.45   146.85763    56.46983    73.78447
   138  C   4.0    0.16    3.52    3.12   146.66531    58.28601    76.00502
   139  O   6.0   -0.32    1.44    1.80   147.76511    57.81532    78.00338
   140  C   4.0   -0.03    4.33    4.26   148.89112    57.33825    71.90539
   141  C   4.0   -0.01    3.56    3.15   151.48299    57.13479    73.04788
   142  C   4.0   -0.04    3.46    3.10   152.86974    54.91209    72.83642
   143  C   4.0   -0.03    3.47    3.10   152.50671    59.14836    74.38631
   144  C   4.0   -0.03    3.37    3.07   155.21983    54.69985    73.96561
   145  C   4.0   -0.04    3.38    3.07   154.85251    58.93759    75.52776
   146  C   4.0   -0.04    3.37    3.07   156.20341    56.70460    75.33083
   147  H   1.0    0.12    1.14    1.45   144.43335    56.57971    70.63080
   148  H   1.0    0.06    1.05    1.44   147.37325    54.63527    74.61906
   149  H   1.0    0.05    1.03    1.43   148.75727    56.15031    70.22499
   150  H   1.0    0.06    1.04    1.43   148.46842    59.28948    71.38872
   151  H   1.0    0.05    1.03    1.43   152.12473    53.34119    71.76416
   152  H   1.0    0.05    1.03    1.43   151.46468    60.90270    74.50673
   153  H   1.0    0.06    1.03    1.43   156.28905    52.97168    73.76780
   154  H   1.0    0.05    1.03    1.43   155.62601    60.51388    76.56833
   155  H   1.0    0.05    1.03    1.43   158.02499    56.53101    76.22931
   156  N   5.0   -0.13    3.57    2.13   145.29349    60.35732    75.76386
   157  C   4.0    0.04    4.51    4.56   145.01679    62.04371    77.90061
   158  C   4.0    0.16    3.51    3.12   144.10398    60.58781    80.23367
   159  O   6.0   -0.30    1.23    1.80   145.06155    60.94096    82.31015
   160  C   4.0   -0.02    4.26    4.11   143.32298    64.31010    77.17655
   161  C   4.0   -0.07    4.15    3.91   140.75485    64.29260    78.47938
   162  C   4.0   -0.08    4.10    3.81   144.69311    66.79900    77.64605
   163  H   1.0    0.12    1.14    1.45   144.78348    61.05497    74.04311
   164  H   1.0    0.05    1.07    1.44   146.90590    62.70289    78.44145
   165  H   1.0    0.05    1.07    1.44   143.00274    64.18685    75.14321
   166  H   1.0    0.04    1.00    1.43   139.70317    65.97105    77.94114
   167  H   1.0    0.05    1.01    1.43   139.65299    62.65343    77.93344
   168  H   1.0    0.05    1.01    1.43   140.98400    64.29298    80.51886
   169  H   1.0    0.04    1.00    1.43   143.46852    68.36562    77.13276
   170  H   1.0    0.05    1.00    1.43   145.17678    66.97953    79.63071
   171  H   1.0    0.04    1.00    1.43   146.39352    66.88853    76.49803
   172  N   5.0   -0.14    3.53    2.10   142.18415    58.98441    79.85707
   173  C   4.0    0.04    4.41    4.39   141.09709    57.52873    81.89683
   174  C   4.0    0.15    3.50    3.11   142.78365    55.26492    82.56471
   175  O   6.0   -0.32    1.26    1.80   142.97662    54.53927    84.75918
   176  C   4.0   -0.04    4.29    4.19   138.33450    56.79530    81.29174
   177  C   4.0   -0.04    4.07    3.74   137.63545    54.06221    81.88110
   178  S   6.0   -0.02    2.63    3.10   138.81949    51.89804    79.44134
   179  C   4.0   -0.06    3.88    3.43   136.83319    49.17011    80.07129
   180  H   1.0    0.11    1.10    1.44   141.48558    58.73928    78.09379
   181  H   1.0    0.06    1.06    1.44   141.13210    58.71815    83.59885
   182  H   1.0    0.04    1.03    1.43   137.08337    58.01829    82.38345
   183  H   1.0    0.05    1.04    1.43   137.98190    57.15490    79.28938
   184  H   1.0    0.06    1.06    1.44   138.39097    53.48109    83.70890
   185  H   1.0    0.04    1.07    1.44   135.58922    53.82501    81.89841
   186  H   1.0    0.05    1.05    1.44   137.48655    47.69039    78.81028
   187  H   1.0    0.05    1.04    1.43   137.06575    48.58587    82.02478
   188  H   1.0    0.05    1.04    1.43   134.87394    49.63182    79.66903
   189  N   5.0   -0.13    3.51    2.09   144.09067    54.27767    80.65126
   190  C   4.0    0.02    4.27    4.15   145.58312    52.00807    80.94476
   191  C   4.0    0.15    3.34    3.06   148.06777    52.56921    82.32118
   192  O   6.0   -0.32    1.27    1.80   148.90078    51.15569    83.96771
   193  H   1.0    0.12    1.15    1.45   143.55740    54.72180    78.85507
   194  H   1.0    0.05    1.02    1.43   144.50818    50.59372    82.01007
   195  H   1.0    0.05    1.03    1.43   146.00119    51.25529    79.07217
   196  N   5.0   -0.14    3.54    2.10   149.16798    54.67667    81.52333
   197  C   4.0    0.04    4.39    4.37   151.28292    55.90658    82.73682
   198  C   4.0    0.18    3.56    3.15   150.60329    56.78855    85.41144
   199  O   6.0   -0.31    1.32    1.80   152.25932    57.00881    86.98189
   200  C   4.0   -0.03    4.31    4.21   152.29441    58.17582    81.23247
   201  C   4.0    0.17    3.27    3.05   151.29769    60.72445    82.14653
   202  O   6.0   -0.27    1.30    1.80   151.00188    61.28268    84.35808
   203  N   5.0   -0.18    3.20    1.96   150.95400    62.43076    80.29831
   204  H   1.0    0.12    1.18    1.46   148.26852    55.68649    80.14315
   205  H   1.0    0.05    1.05    1.44   152.81177    54.52400    82.97245
   206  H   1.0    0.05    1.03    1.43   154.34115    58.25262    81.48334
   207  H   1.0    0.06    1.04    1.44   151.88312    57.92708    79.23454
   208  H   1.0    0.10    1.03    1.43   150.16994    64.09729    80.79983
   209  H   1.0    0.09    1.04    1.43   150.85615    61.83167    78.49985
   210  N   5.0   -0.13    3.55    2.12   148.11635    57.05536    85.89996
   211  C   4.0    0.04    4.45    4.46   147.30617    57.73585    88.41645
   212  C   4.0    0.15    3.40    3.08   146.71838    55.36799    89.98860
   213  O   6.0   -0.32    1.27    1.80   146.57009    55.45803    92.28249
   214  C   4.0   -0.03    4.32    4.23   144.97161    59.46705    88.38151
   215  C   4.0   -0.01    3.57    3.15   144.69435    60.80841    90.86974
   216  C   4.0   -0.02    3.51    3.12   143.27927    59.77492    92.82847
   217  C   4.0   -0.04    3.46    3.10   145.93358    63.09410    91.25941
   218  C   4.0   -0.03    3.38    3.07   143.06892    61.02842    95.11875
   219  C   4.0   -0.04    3.37    3.07   145.71681    64.34609    93.54404
   220  C   4.0   -0.04    3.37    3.07   144.27087    63.32383    95.47302
   221  H   1.0    0.11    1.08    1.44   146.91097    57.44794    84.47468
   222  H   1.0    0.07    1.06    1.44   148.89535    58.72176    89.32097
   223  H   1.0    0.06    1.03    1.43   145.22600    60.84121    86.86180
   224  H   1.0    0.06    1.03    1.43   143.32028    58.30019    87.95635
   225  H   1.0    0.07    1.03    1.43   142.35367    57.97224    92.57597
   226  H   1.0    0.06    1.03    1.43   147.08212    63.86477    89.75703
   227  H   1.0    0.06    1.03    1.43   141.94929    60.19821    96.60931
   228  H   1.0    0.05    1.03    1.43   146.71246    66.10288    93.81120
   229  H   1.0    0.05    1.03    1.43   144.08397    64.27075    97.26703
   230  N   5.0   -0.13    3.52    2.09   146.43443    53.23726    88.62005
   231  C   4.0    0.04    4.38    4.35   145.82981    50.77701    89.66181
   232  C   4.0    0.15    3.49    3.11   148.22450    49.30041    90.38512
   233  O   6.0   -0.30    1.24    1.80   148.30700    47.97341    92.27959
   234  C   4.0   -0.02    4.32    4.23   144.31004    49.24530    87.71457
   235  C   4.0    0.16    3.27    3.05   144.59105    46.40811    88.11517
   236  O   6.0   -0.27    1.19    1.80   143.38342    45.22749    89.68085
   237  N   5.0   -0.18    3.19    1.95   146.23518    45.30515    86.52433
   238  H   1.0    0.11    1.12    1.45   146.01095    53.49024    86.76978
   239  H   1.0    0.06    1.05    1.44   144.77245    50.99198    91.43327
   240  H   1.0    0.06    1.02    1.43   142.31346    49.74294    87.82714
   241  H   1.0    0.06    1.04    1.43   145.02678    49.71354    85.84503
   242  H   1.0    0.10    1.03    1.43   146.53174    43.42536    86.65304
   243  H   1.0    0.09    1.03    1.43   147.29610    46.33198    85.32589
   244  N   5.0   -0.15    3.51    2.08   150.21102    49.62465    88.85194
   245  C   4.0    0.04    4.42    4.42   152.59663    48.38661    89.39552
   246  C   4.0    0.14    3.49    3.11   153.88945    49.38387    91.83252
   247  O   6.0   -0.32    1.31    1.80   154.71060    47.79655    93.33951
   248  C   4.0   -0.04    4.26    4.12   154.24287    48.45979    87.01268
   249  C   4.0    0.01    3.70    3.24   156.73619    47.15881    87.26390
   250  N   5.0   -0.11    3.55    2.12   157.42068    45.61774    89.22424
   251  C   4.0    0.04    3.65    3.20   158.75185    47.12322    85.63924
   252  C   4.0    0.07    3.64    3.19   159.77953    44.77086    88.71925
   253  N   5.0   -0.16    2.44    1.90   160.62782    45.63029    86.56795
   254  H   1.0    0.11    1.11    1.45   149.97642    50.45190    87.12859
   255  H   1.0    0.06    1.06    1.44   152.17247    46.40492    89.87594
   256  H   1.0    0.05    1.03    1.43   153.16600    47.55782    85.49125
   257  H   1.0    0.05    1.03    1.43   154.55487    50.41111    86.42018
   258  H   1.0    0.09    1.07    1.44   156.46751    45.42383    90.87042
   259  H   1.0    0.05    1.02    1.43   158.95923    48.07515    83.86578
   260  H   1.0    0.05    1.02    1.43   160.79297    43.52684    89.95444
   261  N   5.0   -0.11    3.63    2.19   154.09530    51.84579    92.28061
   262  C   4.0    0.03    4.55    4.61   155.31615    52.82020    94.54802
   263  C   4.0    0.15    3.48    3.11   154.08933    52.08122    97.07279
   264  O   6.0   -0.29    1.26    1.80   155.49608    51.67754    98.87193
   265  C   4.0   -0.05    4.28    4.17   155.51258    55.70060    94.20286
   266  C   4.0   -0.03    4.25    4.10   153.98045    56.33146    91.83627
   267  C   4.0    0.01    4.42    4.42   153.48104    53.82458    90.49693
   268  H   1.0    0.05    1.06    1.44   157.21633    52.00454    94.69347
   269  H   1.0    0.05    1.02    1.43   154.79920    56.69326    95.85771
   270  H   1.0    0.04    1.02    1.43   157.48162    56.23595    93.94393
   271  H   1.0    0.05    1.02    1.43   152.20101    57.24400    92.30848
   272  H   1.0    0.06    1.03    1.43   155.02059    57.57218    90.57725
   273  H   1.0    0.06    1.04    1.43   151.52395    53.66293    89.88692
   274  H   1.0    0.05    1.03    1.43   154.69342    53.62976    88.84227
   275  N   5.0   -0.10    3.65    2.21   151.56958    51.96992    97.30241
   276  C   4.0    0.04    4.56    4.62   150.46774    50.97115    99.61047
   277  C   4.0    0.16    3.43    3.09   151.01290    48.14809    99.94675
   278  O   6.0   -0.25    1.22    1.80   151.21203    47.20792   102.04790
   279  C   4.0   -0.04    4.29    4.18   147.60063    51.39331    99.41719
   280  C   4.0   -0.03    4.23    4.07   147.13652    52.64737    96.84876
   281  C   4.0    0.01    4.38    4.34   149.70369    52.93405    95.54978
   282  H   1.0    0.07    1.05    1.44   151.27515    51.90876   101.27120
   283  H   1.0    0.06    1.03    1.43   146.61825    49.58458    99.53835
   284  H   1.0    0.05    1.02    1.43   146.92787    52.56066   100.96994
   285  H   1.0    0.06    1.03    1.43   145.92692    51.45022    95.69938
   286  H   1.0    0.06    1.02    1.43   146.23686    54.48367    97.02801
   287  H   1.0    0.07    1.05    1.44   149.69777    51.88197    93.78526
   288  H   1.0    0.05    1.03    1.43   150.10563    54.90301    95.09521
   289  N   5.0   -0.13    3.50    2.08   151.06880    46.79221    97.80524
   290  C   4.0    0.05    4.34    4.28   151.46703    44.08849    97.84370
   291  C   4.0    0.17    3.43    3.09   154.13791    43.40817    98.76943
   292  O   6.0   -0.25    1.21    1.80   154.47382    41.55069   100.12714
   293  C   4.0   -0.06    4.12    3.83   151.06636    42.98406    95.21462
   294  H   1.0    0.10    1.08    1.44   150.76897    47.59883    96.10212
   295  H   1.0    0.07    1.05    1.44   150.15482    43.24138    99.21404
   296  H   1.0    0.06    1.00    1.43   151.32306    40.94865    95.28048
   297  H   1.0    0.07    1.00    1.43   149.17950    43.42742    94.53159
   298  H   1.0    0.06    1.00    1.43   152.44563    43.78922    93.92339
   299  N   5.0   -0.13    3.46    2.05   155.99148    44.81274    97.80921
   300  C   4.0    0.04    4.36    4.30   158.60010    44.45079    98.54443
   301  C   4.0    0.26    3.18    3.03   159.05684    45.04644   101.42785
   302  O   6.0   -0.26    1.17    1.80   160.85060    43.85525   102.38834
   303  C   4.0   -0.04    4.22    4.04   160.40129    45.95877    96.85590
   304  C   4.0   -0.04    4.18    3.96   160.35015    48.82233    97.33044
   305  C   4.0   -0.04    4.15    3.89   162.77893    49.93300    98.48311
   306  C   4.0   -0.02    4.13    3.86   162.25017    51.12985   101.05153
   307  N   5.0   -0.11    4.01    2.88   164.60647    52.23969   102.13534
   308  O   6.0   -0.25    1.17    1.80   157.70420    46.65313   102.47072
   309  H   1.0    0.11    1.09    1.44   155.54023    46.36218    96.78303
   310  H   1.0    0.07    1.05    1.44   159.02447    42.42426    98.37431
   311  H   1.0    0.05    1.03    1.43   162.29275    45.20783    97.18424
   312  H   1.0    0.05    1.03    1.43   159.89732    45.56122    94.89194
   313  H   1.0    0.05    1.03    1.43   159.96632    49.75738    95.53677
   314  H   1.0    0.08    1.06    1.44   158.76910    49.22067    98.58773
   315  H   1.0    0.05    1.03    1.43   164.15395    48.41702    98.71573
   316  H   1.0    0.04    1.02    1.43   163.55958    51.34254    97.19696
   317  H   1.0    0.06    1.02    1.43   160.82304    52.60332   100.87468
   318  H   1.0    0.07    1.02    1.43   161.51033    49.68132   102.31688
   319  H   1.0    0.07    1.02    1.43   164.25515    53.00805   103.88888
   320  H   1.0    0.07    1.02    1.43   165.94398    50.83667   102.31895
   321  H   1.0    0.06    1.02    1.43   165.29044    53.62527   100.94645
   322  H   1.0    0.10    1.07    1.44   135.65020    77.50751    90.82644
   323  H   1.0    0.07    1.05    1.44   129.64082    73.51091    85.79932
   324  H   1.0    0.10    1.07    1.44   133.74324    75.64686    78.27027
   325  H   1.0    0.07    1.04    1.44   128.48085    72.13214    76.65977
   326  H   1.0    0.09    1.07    1.44   138.96987    56.63002    62.79086

  Z AO/shell   Hii/eV     exponent
  1     Wed Apr 25 08:07:45 CEST 2018   EN: 2.200 GM2: 0.406  GM3: 0.0800  RAES: 1.40
     1s    -10.707211    1.230000
  6     Wed Apr 25 08:07:45 CEST 2018   EN: 2.550 GM2: 0.538  GM3: 0.1500  RAES: 3.00
     2s    -13.970922    2.096432
     2p    -10.063292    1.800000
  7     Wed Apr 25 08:07:45 CEST 2018   EN: 3.040 GM2: 0.461  GM3:-0.0640  RAES: 1.90
     2s    -16.686243    2.339881
     2p    -12.523956    2.014332
  8     Wed Apr 25 08:07:45 CEST 2018   EN: 3.440 GM2: 0.452  GM3:-0.0517  RAES: 1.80
     2s    -20.229985    2.439742
     2p    -15.503117    2.137023
 16     Tue Apr 24 11:44:34 CEST 2018   EN: 2.580 GM2: 0.340  GM3:-0.0502  RAES: 3.10
     3s    -20.029654    1.981333
     3p    -11.377694    2.025643
     3d     -0.420282    1.702555
 no old-style atom pair restraining (fixing) potential

molecular fragmentation (1/2 indicates fragments):
111111111111111111111111111111111111111111122222222222222222222222222222
222222222222222222222222222222222222222222222222222222222222222222222222
222222222222222222222222222222222222222222222222222222222222222222222222
222222222222222222222222222222222222222222222222222222222222222222222222
22222222222222222222222222222222211222
# atoms in fragment 1/2:    45   281
 fragment masses (1/2) :      294.37     1982.37
CMA distance (Bohr)    :  18.495
constraining FC (au)   :  0.0500
           ------------------------------------------------- 
          |        Self-Consistent Charge Iterations        |
           ------------------------------------------------- 

 Ncao       : 818
 Nao        : 817
 Nshell     : 489
 Nel        : 886
 T(el)      :   500.0
 intcut     :    35.0
 scfconv/Eh :  0.100E-06
   qconv/e  :  0.100E-04
 intneglect :  0.100E-08
 broydamp   :      0.400
 iter      E             dE          RMSdq      gap      omega  full diag
   1   -502.7910934 -0.502791E+03  0.444E+00    3.01       0.0  T
   2   -503.7747572 -0.983664E+00  0.217E+00    1.89       1.0  T
   3   -503.8226035 -0.478463E-01  0.117E+00    2.17       1.0  T
   4   -503.9026876 -0.800841E-01  0.254E-01    1.43       1.0  T
   5   -503.9083826 -0.569496E-02  0.125E-01    1.51       1.0  T
   6   -503.9096016 -0.121905E-02  0.570E-02    1.53       1.0  T
   7   -503.9099308 -0.329176E-03  0.220E-02    1.53       1.0  T
   8   -503.9099535 -0.226964E-04  0.111E-02    1.54       1.0  T
   9   -503.9099617 -0.826705E-05  0.502E-03    1.55       1.1  T
  10   -503.9099639 -0.212422E-05  0.249E-03    1.55       2.2  T
  11   -503.9099643 -0.430721E-06  0.119E-03    1.55       4.7  T
  12   -503.9099644 -0.108280E-06  0.588E-04    1.54       9.4  T
  13   -503.9099644 -0.290546E-07  0.290E-04    1.54      19.1  T
  14   -503.9099644 -0.447920E-08  0.141E-04    1.54      39.3  T
  15   -503.9099644 -0.143228E-08  0.601E-05    1.54      92.1  T
  16   -503.9099644 -0.263242E-09  0.280E-05    1.54     197.9  T
speedup  1.00
cpu  time for SCC    4.13 s
wall time for SCC    4.13 s

   *** convergence criteria satisfied after 16 iterations ***

          eigenvalues
 #    :         431        432        433        434        435        436        437        438
 occ. :        2.000      2.000      2.000      2.000      2.000      2.000      2.000      2.000
 eps  :       -10.631    -10.565    -10.509    -10.495    -10.436    -10.428    -10.368    -10.308
 #    :         439        440        441        442        443        444        445        446
 occ. :        2.000      2.000      2.000      2.000      2.000      0.000      0.000      0.000
 eps  :       -10.081     -9.923     -9.871     -9.767     -9.348     -7.804     -7.743     -6.995
 #    :         447        448        449        450        451        452        453        454
 occ. :        0.000      0.000      0.000      0.000      0.000      0.000      0.000      0.000
 eps  :        -6.858     -6.732     -6.607     -6.559     -6.533     -6.424     -6.393     -6.280


   #   Z            q   n(s)   n(p)   n(d)      C6AA      α(0)
   1   7 N     -0.402  1.316  4.086  0.000    30.421     8.191
   2   6 C      0.029  1.061  2.910  0.000    20.093     6.385
   3   6 C      0.269  1.050  2.681  0.000    22.464     7.761
   4   8 O     -0.500  1.755  4.745  0.000    23.775     6.537
   5   6 C     -0.076  1.056  3.020  0.000    21.940     6.668
   6   6 C     -0.070  1.051  3.019  0.000    21.842     6.653
   7   6 C     -0.093  1.055  3.039  0.000    22.282     6.721
   8   6 C     -0.051  1.060  2.991  0.000    21.579     6.630
   9   7 N     -0.138  1.226  3.912  0.000    23.989     7.274
  10   1 H      0.175  0.825  0.000  0.000     1.246     1.748
  11   1 H      0.031  0.969  0.000  0.000     2.567     2.506
  12   1 H      0.057  0.943  0.000  0.000     2.238     2.340
  13   1 H      0.048  0.952  0.000  0.000     2.343     2.394
  14   1 H      0.054  0.946  0.000  0.000     2.270     2.356
  15   1 H      0.054  0.946  0.000  0.000     2.273     2.358
  16   1 H      0.078  0.922  0.000  0.000     1.999     2.211
  17   1 H      0.077  0.923  0.000  0.000     2.012     2.218
  18   1 H      0.118  0.882  0.000  0.000     1.628     1.995
  19   1 H      0.117  0.883  0.000  0.000     1.634     1.999
  20   1 H      0.304  0.696  0.000  0.000     0.703     1.313
  21   1 H      0.290  0.710  0.000  0.000     0.742     1.350
  22   1 H      0.291  0.709  0.000  0.000     0.742     1.350
  23   7 N     -0.174  1.240  3.934  0.000    24.769     7.392
  24   6 C      0.027  1.056  2.917  0.000    20.126     6.388
  25   6 C      0.201  1.086  2.713  0.000    23.722     7.976
  26   8 O     -0.369  1.757  4.612  0.000    21.081     6.156
  27   6 C     -0.073  1.054  3.019  0.000    21.888     6.660
  28   6 C      0.000  1.076  2.924  0.000    28.016     8.682
  29   6 C     -0.042  1.082  2.959  0.000    29.035     8.837
  30   6 C     -0.044  1.079  2.966  0.000    29.100     8.846
  31   6 C     -0.058  1.075  2.984  0.000    29.451     8.899
  32   6 C     -0.074  1.076  2.998  0.000    29.847     8.959
  33   6 C      0.146  1.045  2.810  0.000    24.826     8.166
  34   8 O     -0.423  1.714  4.710  0.000    21.308     6.232
  35   1 H      0.219  0.781  0.000  0.000     1.014     1.577
  36   1 H      0.099  0.901  0.000  0.000     1.797     2.096
  37   1 H      0.067  0.933  0.000  0.000     2.123     2.279
  38   1 H      0.073  0.927  0.000  0.000     2.049     2.239
  39   1 H      0.043  0.957  0.000  0.000     2.404     2.424
  40   1 H      0.051  0.949  0.000  0.000     2.305     2.374
  41   1 H      0.045  0.955  0.000  0.000     2.382     2.413
  42   1 H      0.042  0.958  0.000  0.000     2.418     2.432
  43   1 H      0.317  0.683  0.000  0.000     0.673     1.289
  44   7 N     -0.383  1.305  4.077  0.000    29.897     8.121
  45   6 C      0.047  1.053  2.900  0.000    19.804     6.339
  46   6 C      0.203  1.092  2.705  0.000    23.687     7.970
  47   8 O     -0.382  1.759  4.624  0.000    21.327     6.192
  48   6 C     -0.075  1.053  3.022  0.000    21.923     6.664
  49   6 C      0.017  1.083  2.900  0.000    27.634     8.623
  50   6 C     -0.040  1.080  2.961  0.000    29.005     8.832
  51   6 C     -0.040  1.077  2.963  0.000    28.994     8.830
  52   6 C     -0.028  1.078  2.950  0.000    28.710     8.787
  53   6 C     -0.033  1.080  2.953  0.000    28.823     8.804
  54   6 C     -0.033  1.079  2.954  0.000    28.823     8.804
  55   1 H      0.161  0.839  0.000  0.000     1.330     1.807
  56   1 H      0.044  0.956  0.000  0.000     2.401     2.423
  57   1 H      0.058  0.942  0.000  0.000     2.224     2.332
  58   1 H      0.058  0.942  0.000  0.000     2.227     2.334
  59   1 H      0.033  0.967  0.000  0.000     2.551     2.498
  60   1 H      0.028  0.972  0.000  0.000     2.619     2.531
  61   1 H      0.038  0.962  0.000  0.000     2.479     2.462
  62   1 H      0.036  0.964  0.000  0.000     2.506     2.476
  63   1 H      0.043  0.957  0.000  0.000     2.403     2.424
  64   7 N     -0.390  1.310  4.080  0.000    30.087     8.146
  65   6 C      0.012  1.065  2.923  0.000    20.389     6.432
  66   6 C      0.260  1.049  2.691  0.000    22.620     7.788
  67   8 O     -0.485  1.738  4.747  0.000    23.454     6.493
  68   6 C      0.118  1.048  2.834  0.000    18.751     6.183
  69   8 O     -0.480  1.736  4.744  0.000    22.456     6.397
  70   6 C     -0.124  1.040  3.084  0.000    22.937     6.829
  71   1 H      0.163  0.837  0.000  0.000     1.313     1.795
  72   1 H      0.054  0.946  0.000  0.000     2.275     2.359
  73   1 H      0.018  0.982  0.000  0.000     2.766     2.601
  74   1 H      0.332  0.668  0.000  0.000     0.632     1.249
  75   1 H      0.060  0.940  0.000  0.000     2.197     2.318
  76   1 H      0.047  0.953  0.000  0.000     2.352     2.398
  77   1 H      0.060  0.940  0.000  0.000     2.194     2.316
  78   7 N     -0.171  1.247  3.924  0.000    24.705     7.382
  79   6 C      0.008  1.068  2.924  0.000    20.443     6.438
  80   6 C      0.273  1.041  2.686  0.000    22.388     7.748
  81   8 O     -0.471  1.737  4.734  0.000    23.153     6.451
  82   6 C     -0.028  1.070  2.958  0.000    21.037     6.524
  83   6 C     -0.065  1.052  3.014  0.000    21.748     6.639
  84   6 C     -0.119  1.037  3.081  0.000    22.832     6.813
  85   6 C     -0.114  1.037  3.077  0.000    22.745     6.801
  86   1 H      0.220  0.780  0.000  0.000     1.009     1.573
  87   1 H      0.083  0.917  0.000  0.000     1.947     2.182
  88   1 H      0.058  0.942  0.000  0.000     2.219     2.329
  89   1 H      0.047  0.953  0.000  0.000     2.356     2.401
  90   1 H      0.038  0.962  0.000  0.000     2.471     2.458
  91   1 H      0.062  0.938  0.000  0.000     2.170     2.304
  92   1 H      0.044  0.956  0.000  0.000     2.400     2.423
  93   1 H      0.053  0.947  0.000  0.000     2.288     2.365
  94   1 H      0.042  0.958  0.000  0.000     2.419     2.432
  95   1 H      0.044  0.956  0.000  0.000     2.398     2.422
  96   1 H      0.045  0.955  0.000  0.000     2.378     2.411
  97   7 N     -0.176  1.243  3.933  0.000    24.810     7.398
  98   6 C      0.014  1.063  2.923  0.000    20.337     6.421
  99   6 C      0.272  1.041  2.687  0.000    22.410     7.753
 100   8 O     -0.474  1.742  4.732  0.000    23.213     6.460
 101   6 C     -0.086  1.058  3.028  0.000    22.136     6.697
 102   6 C      0.011  1.077  2.912  0.000    27.766     8.643
 103   6 C     -0.041  1.082  2.959  0.000    29.021     8.835
 104   6 C     -0.043  1.079  2.965  0.000    29.079     8.843
 105   6 C     -0.030  1.079  2.951  0.000    28.743     8.792
 106   6 C     -0.031  1.080  2.951  0.000    28.785     8.798
 107   6 C     -0.033  1.080  2.953  0.000    28.831     8.805
 108   1 H      0.221  0.779  0.000  0.000     1.003     1.569
 109   1 H      0.091  0.909  0.000  0.000     1.865     2.136
 110   1 H      0.084  0.916  0.000  0.000     1.943     2.180
 111   1 H      0.071  0.929  0.000  0.000     2.072     2.251
 112   1 H      0.044  0.956  0.000  0.000     2.395     2.420
 113   1 H      0.041  0.959  0.000  0.000     2.430     2.438
 114   1 H      0.028  0.972  0.000  0.000     2.612     2.527
 115   1 H      0.041  0.959  0.000  0.000     2.436     2.441
 116   1 H      0.038  0.962  0.000  0.000     2.476     2.461
 117   7 N     -0.169  1.242  3.927  0.000    24.664     7.376
 118   6 C      0.015  1.067  2.918  0.000    20.315     6.415
 119   6 C      0.289  1.038  2.673  0.000    22.095     7.698
 120   8 O     -0.480  1.734  4.746  0.000    23.344     6.478
 121   6 C     -0.027  1.066  2.961  0.000    21.023     6.521
 122   6 C     -0.068  1.052  3.016  0.000    21.794     6.646
 123   6 C     -0.114  1.037  3.077  0.000    22.736     6.799
 124   6 C     -0.110  1.037  3.073  0.000    22.665     6.789
 125   1 H      0.207  0.793  0.000  0.000     1.073     1.623
 126   1 H      0.080  0.920  0.000  0.000     1.983     2.202
 127   1 H      0.054  0.946  0.000  0.000     2.271     2.357
 128   1 H      0.049  0.951  0.000  0.000     2.333     2.388
 129   1 H      0.044  0.956  0.000  0.000     2.391     2.418
 130   1 H      0.058  0.942  0.000  0.000     2.218     2.329
 131   1 H      0.034  0.966  0.000  0.000     2.537     2.491
 132   1 H      0.048  0.952  0.000  0.000     2.339     2.392
 133   1 H      0.047  0.953  0.000  0.000     2.363     2.404
 134   1 H      0.036  0.964  0.000  0.000     2.501     2.473
 135   1 H      0.042  0.958  0.000  0.000     2.422     2.434
 136   7 N     -0.205  1.256  3.949  0.000    25.457     7.494
 137   6 C      0.033  1.058  2.909  0.000    20.024     6.371
 138   6 C      0.271  1.042  2.687  0.000    22.421     7.755
 139   8 O     -0.513  1.737  4.776  0.000    24.082     6.580
 140   6 C     -0.081  1.056  3.024  0.000    22.029     6.681
 141   6 C      0.009  1.080  2.911  0.000    27.811     8.650
 142   6 C     -0.041  1.082  2.959  0.000    29.023     8.835
 143   6 C     -0.043  1.080  2.964  0.000    29.078     8.843
 144   6 C     -0.032  1.082  2.950  0.000    28.803     8.801
 145   6 C     -0.038  1.082  2.956  0.000    28.943     8.822
 146   6 C     -0.035  1.082  2.954  0.000    28.882     8.813
 147   1 H      0.238  0.762  0.000  0.000     0.930     1.511
 148   1 H      0.056  0.944  0.000  0.000     2.248     2.345
 149   1 H      0.071  0.929  0.000  0.000     2.070     2.250
 150   1 H      0.069  0.931  0.000  0.000     2.098     2.265
 151   1 H      0.039  0.961  0.000  0.000     2.461     2.453
 152   1 H      0.033  0.967  0.000  0.000     2.541     2.493
 153   1 H      0.040  0.960  0.000  0.000     2.450     2.447
 154   1 H      0.049  0.951  0.000  0.000     2.330     2.387
 155   1 H      0.043  0.957  0.000  0.000     2.407     2.426
 156   7 N     -0.178  1.263  3.915  0.000    24.849     7.404
 157   6 C      0.015  1.068  2.917  0.000    20.317     6.417
 158   6 C      0.286  1.041  2.673  0.000    22.159     7.708
 159   8 O     -0.497  1.744  4.753  0.000    23.712     6.529
 160   6 C     -0.020  1.064  2.956  0.000    20.891     6.501
 161   6 C     -0.121  1.039  3.082  0.000    22.883     6.821
 162   6 C     -0.125  1.044  3.081  0.000    22.953     6.831
 163   1 H      0.244  0.756  0.000  0.000     0.907     1.492
 164   1 H      0.071  0.929  0.000  0.000     2.075     2.253
 165   1 H      0.056  0.944  0.000  0.000     2.246     2.344
 166   1 H      0.052  0.948  0.000  0.000     2.299     2.371
 167   1 H      0.053  0.947  0.000  0.000     2.285     2.364
 168   1 H      0.039  0.961  0.000  0.000     2.467     2.456
 169   1 H      0.058  0.942  0.000  0.000     2.220     2.330
 170   1 H      0.048  0.952  0.000  0.000     2.341     2.393
 171   1 H      0.052  0.948  0.000  0.000     2.296     2.370
 172   7 N     -0.189  1.248  3.940  0.000    25.090     7.439
 173   6 C      0.022  1.062  2.916  0.000    20.211     6.402
 174   6 C      0.276  1.043  2.680  0.000    22.324     7.737
 175   8 O     -0.502  1.746  4.756  0.000    23.821     6.544
 176   6 C     -0.071  1.056  3.015  0.000    21.842     6.650
 177   6 C     -0.013  1.065  2.948  0.000    20.823     6.498
 178  16 S     -0.226  1.921  4.249  0.056   150.709    20.662
 179   6 C     -0.064  1.055  3.008  0.000    21.792     6.659
 180   1 H      0.228  0.772  0.000  0.000     0.974     1.546
 181   1 H      0.075  0.925  0.000  0.000     2.029     2.227
 182   1 H      0.074  0.926  0.000  0.000     2.044     2.236
 183   1 H      0.074  0.926  0.000  0.000     2.045     2.236
 184   1 H      0.039  0.961  0.000  0.000     2.460     2.453
 185   1 H      0.061  0.939  0.000  0.000     2.187     2.313
 186   1 H      0.069  0.931  0.000  0.000     2.095     2.263
 187   1 H      0.049  0.951  0.000  0.000     2.329     2.387
 188   1 H      0.062  0.938  0.000  0.000     2.174     2.306
 189   7 N     -0.192  1.260  3.932  0.000    25.167     7.451
 190   6 C     -0.027  1.051  2.976  0.000    21.121     6.554
 191   6 C      0.268  1.041  2.691  0.000    22.479     7.764
 192   8 O     -0.506  1.735  4.771  0.000    23.925     6.558
 193   1 H      0.248  0.752  0.000  0.000     0.889     1.477
 194   1 H      0.074  0.926  0.000  0.000     2.037     2.232
 195   1 H      0.090  0.910  0.000  0.000     1.875     2.141
 196   7 N     -0.199  1.260  3.938  0.000    25.314     7.472
 197   6 C      0.024  1.059  2.917  0.000    20.173     6.396
 198   6 C      0.289  1.039  2.673  0.000    22.109     7.700
 199   8 O     -0.459  1.734  4.725  0.000    22.897     6.416
 200   6 C     -0.112  1.064  3.048  0.000    22.637     6.773
 201   6 C      0.294  1.036  2.671  0.000    22.021     7.683
 202   8 O     -0.469  1.747  4.722  0.000    23.112     6.446
 203   7 N     -0.279  1.270  4.009  0.000    27.210     7.747
 204   1 H      0.251  0.749  0.000  0.000     0.880     1.469
 205   1 H      0.076  0.924  0.000  0.000     2.022     2.224
 206   1 H      0.095  0.905  0.000  0.000     1.832     2.117
 207   1 H      0.091  0.909  0.000  0.000     1.868     2.137
 208   1 H      0.231  0.769  0.000  0.000     0.960     1.535
 209   1 H      0.212  0.788  0.000  0.000     1.048     1.603
 210   7 N     -0.194  1.249  3.946  0.000    25.216     7.458
 211   6 C      0.029  1.061  2.910  0.000    20.080     6.380
 212   6 C      0.270  1.045  2.685  0.000    22.444     7.757
 213   8 O     -0.466  1.741  4.725  0.000    23.040     6.436
 214   6 C     -0.070  1.052  3.018  0.000    21.839     6.652
 215   6 C      0.006  1.081  2.912  0.000    27.873     8.660
 216   6 C     -0.035  1.081  2.954  0.000    28.875     8.812
 217   6 C     -0.044  1.083  2.962  0.000    29.105     8.847
 218   6 C     -0.030  1.081  2.949  0.000    28.752     8.793
 219   6 C     -0.041  1.080  2.961  0.000    29.007     8.832
 220   6 C     -0.041  1.081  2.960  0.000    29.007     8.832
 221   1 H      0.193  0.807  0.000  0.000     1.142     1.674
 222   1 H      0.084  0.916  0.000  0.000     1.939     2.177
 223   1 H      0.076  0.924  0.000  0.000     2.022     2.223
 224   1 H      0.038  0.962  0.000  0.000     2.473     2.459
 225   1 H      0.023  0.977  0.000  0.000     2.690     2.565
 226   1 H      0.049  0.951  0.000  0.000     2.328     2.386
 227   1 H      0.036  0.964  0.000  0.000     2.509     2.477
 228   1 H      0.069  0.931  0.000  0.000     2.098     2.265
 229   1 H      0.060  0.940  0.000  0.000     2.195     2.317
 230   7 N     -0.206  1.259  3.947  0.000    25.477     7.496
 231   6 C      0.035  1.057  2.908  0.000    19.999     6.369
 232   6 C      0.271  1.045  2.684  0.000    22.417     7.753
 233   8 O     -0.496  1.753  4.743  0.000    23.698     6.527
 234   6 C     -0.105  1.064  3.041  0.000    22.489     6.750
 235   6 C      0.292  1.035  2.673  0.000    22.054     7.689
 236   8 O     -0.490  1.753  4.737  0.000    23.575     6.510
 237   7 N     -0.291  1.267  4.024  0.000    27.510     7.790
 238   1 H      0.221  0.779  0.000  0.000     1.007     1.572
 239   1 H      0.071  0.929  0.000  0.000     2.077     2.254
 240   1 H      0.084  0.916  0.000  0.000     1.943     2.180
 241   1 H      0.080  0.920  0.000  0.000     1.978     2.199
 242   1 H      0.235  0.765  0.000  0.000     0.945     1.523
 243   1 H      0.225  0.775  0.000  0.000     0.987     1.556
 244   7 N     -0.201  1.259  3.942  0.000    25.365     7.480
 245   6 C      0.029  1.062  2.909  0.000    20.086     6.382
 246   6 C      0.256  1.049  2.695  0.000    22.685     7.799
 247   8 O     -0.523  1.754  4.769  0.000    24.307     6.610
 248   6 C     -0.081  1.052  3.029  0.000    22.040     6.683
 249   6 C      0.025  1.061  2.914  0.000    27.370     8.578
 250   7 N     -0.110  1.246  3.864  0.000    23.405     7.185
 251   6 C      0.001  1.063  2.935  0.000    27.630     8.588
 252   6 C      0.091  1.057  2.852  0.000    25.693     8.287
 253   7 N     -0.293  1.487  3.806  0.000    28.429     7.905
 254   1 H      0.240  0.760  0.000  0.000     0.922     1.504
 255   1 H      0.065  0.935  0.000  0.000     2.143     2.290
 256   1 H      0.083  0.917  0.000  0.000     1.947     2.182
 257   1 H      0.073  0.927  0.000  0.000     2.052     2.240
 258   1 H      0.186  0.814  0.000  0.000     1.180     1.702
 259   1 H      0.041  0.959  0.000  0.000     2.432     2.438
 260   1 H      0.033  0.967  0.000  0.000     2.539     2.492
 261   7 N     -0.080  1.238  3.842  0.000    22.798     7.092
 262   6 C      0.018  1.069  2.913  0.000    20.262     6.407
 263   6 C      0.260  1.044  2.695  0.000    22.613     7.787
 264   8 O     -0.499  1.757  4.742  0.000    23.753     6.534
 265   6 C     -0.077  1.057  3.020  0.000    21.958     6.669
 266   6 C     -0.071  1.052  3.020  0.000    21.849     6.653
 267   6 C     -0.006  1.053  2.953  0.000    20.732     6.491
 268   1 H      0.078  0.922  0.000  0.000     2.001     2.212
 269   1 H      0.069  0.931  0.000  0.000     2.100     2.266
 270   1 H      0.086  0.914  0.000  0.000     1.919     2.166
 271   1 H      0.061  0.939  0.000  0.000     2.192     2.316
 272   1 H      0.098  0.902  0.000  0.000     1.799     2.097
 273   1 H      0.053  0.947  0.000  0.000     2.279     2.361
 274   1 H      0.076  0.924  0.000  0.000     2.026     2.226
 275   7 N     -0.094  1.233  3.861  0.000    23.078     7.135
 276   6 C      0.023  1.065  2.911  0.000    20.169     6.391
 277   6 C      0.285  1.039  2.676  0.000    22.179     7.712
 278   8 O     -0.510  1.763  4.748  0.000    24.015     6.570
 279   6 C     -0.068  1.055  3.013  0.000    21.799     6.645
 280   6 C     -0.064  1.051  3.013  0.000    21.715     6.633
 281   6 C      0.001  1.048  2.951  0.000    20.615     6.474
 282   1 H      0.072  0.928  0.000  0.000     2.068     2.249
 283   1 H      0.042  0.958  0.000  0.000     2.416     2.431
 284   1 H      0.075  0.925  0.000  0.000     2.028     2.227
 285   1 H      0.052  0.948  0.000  0.000     2.294     2.369
 286   1 H      0.088  0.912  0.000  0.000     1.902     2.157
 287   1 H      0.042  0.958  0.000  0.000     2.425     2.435
 288   1 H      0.084  0.916  0.000  0.000     1.940     2.178
 289   7 N     -0.187  1.244  3.942  0.000    25.046     7.433
 290   6 C      0.036  1.057  2.907  0.000    19.972     6.364
 291   6 C      0.283  1.040  2.677  0.000    22.215     7.718
 292   8 O     -0.545  1.761  4.784  0.000    24.804     6.677
 293   6 C     -0.122  1.041  3.080  0.000    22.882     6.820
 294   1 H      0.212  0.788  0.000  0.000     1.045     1.602
 295   1 H      0.048  0.952  0.000  0.000     2.342     2.393
 296   1 H      0.059  0.941  0.000  0.000     2.214     2.327
 297   1 H      0.075  0.925  0.000  0.000     2.031     2.229
 298   1 H      0.061  0.939  0.000  0.000     2.192     2.315
 299   7 N     -0.183  1.255  3.929  0.000    24.974     7.422
 300   6 C      0.021  1.072  2.907  0.000    20.240     6.408
 301   6 C      0.377  1.022  2.601  0.000    20.615     7.430
 302   8 O     -0.643  1.768  4.875  0.000    27.188     6.991
 303   6 C     -0.063  1.058  3.006  0.000    21.717     6.635
 304   6 C     -0.070  1.049  3.021  0.000    21.838     6.653
 305   6 C     -0.087  1.058  3.029  0.000    22.163     6.703
 306   6 C     -0.038  1.058  2.980  0.000    21.340     6.594
 307   7 N     -0.150  1.234  3.916  0.000    24.245     7.313
 308   8 O     -0.622  1.772  4.850  0.000    26.675     6.925
 309   1 H      0.214  0.786  0.000  0.000     1.038     1.596
 310   1 H      0.013  0.987  0.000  0.000     2.848     2.639
 311   1 H      0.051  0.949  0.000  0.000     2.309     2.376
 312   1 H      0.036  0.964  0.000  0.000     2.499     2.472
 313   1 H      0.045  0.955  0.000  0.000     2.378     2.411
 314   1 H      0.063  0.937  0.000  0.000     2.165     2.301
 315   1 H      0.064  0.936  0.000  0.000     2.151     2.293
 316   1 H      0.088  0.912  0.000  0.000     1.897     2.154
 317   1 H      0.115  0.885  0.000  0.000     1.652     2.010
 318   1 H      0.091  0.909  0.000  0.000     1.870     2.139
 319   1 H      0.306  0.694  0.000  0.000     0.697     1.307
 320   1 H      0.296  0.704  0.000  0.000     0.726     1.335
 321   1 H      0.311  0.689  0.000  0.000     0.681     1.292
 322   1 H      0.172  0.828  0.000  0.000     1.260     1.759
 323   1 H      0.072  0.928  0.000  0.000     2.058     2.243
 324   1 H      0.180  0.820  0.000  0.000     1.216     1.727
 325   1 H      0.070  0.930  0.000  0.000     2.090     2.260
 326   1 H      0.188  0.812  0.000  0.000     1.167     1.692

 Mol. C6AA /au·bohr⁶  :    1047934.030785
 Mol. C8AA /au·bohr⁸  :   24060765.334348
 Mol. α(0) /au        :       1553.644461

 
molecular dipole:
                 x           y           z       tot (Debye)
 q only:      145.629      89.595      73.976
   full:      144.240      89.178      71.476     467.764
molecular quadrupole (traceless):
                xx          xy          yy          xz          yz          zz
 q only:    15080.508   19806.760   -6484.823   16204.935   11108.704   -8595.685
  q+dip:    14870.174   19618.820   -6119.186   15473.717   10842.174   -8750.987
   full:    14870.845   19619.062   -6116.063   15476.083   10847.029   -8754.782
speedup  1.00
cpu  time for grad    5.33 s
wall time for grad    5.33 s

SCC energy    :    -503.9307623
rep           :       6.4408116
ES            :       1.4012403
AES           :      -0.0445620
AXC           :       0.1892026
disp          :      -0.4595239
XB            :       0.0000000
fix           :       0.0000000
Gborn         :       0.0000000
Gsasa         :       0.0000000
Ghb           :       0.0000000
Gshift        :       0.0000000
Gsolv         :      -0.4120811     -258.58
Etot ala COSMO:    -503.9307623
grad norm     :       0.3649453
total E       :    -497.4508779
atomizationE  :      94.3666240    59215.95
(atE without considering molecular charge,
 total energy contains solvation terms)
H-L gap (eV)  :          1.5450

------------------------------------------------------------------------
 * finished run on 2019/03/14 at 15:08:23.850     
------------------------------------------------------------------------
 total:
 * wall-time:     0 d,  0 h,  0 min,  5.874 sec
 *  cpu-time:     0 d,  0 h,  0 min,  5.738 sec
 * ratio c/w:     0.977 speedup
 SCF:
 * wall-time:     0 d,  0 h,  0 min,  5.632 sec
 *  cpu-time:     0 d,  0 h,  0 min,  5.629 sec
 * ratio c/w:     1.000 speedup

