      -----------------------------------------------------------      
     |                   =====================                   |     
     |                           x T B                           |     
     |                   =====================                   |     
     |                         S. Grimme                         |     
     |          Mulliken Center for Theoretical Chemistry        |     
     |                    University of Bonn                     |     
     |                 Version 6.0.1 (SAW181210)                 |     
      -----------------------------------------------------------      

   This program is distributed in the hope that it will be useful,
   but WITHOUT ANY WARRANTY; without even the implied warranty of
   MERCHANTABILITY or FITNESS FOR A PARTICULAR PURPOSE.
   
   FOR NON-COMMERCIAL, ACADEMIA USE ONLY.
   
   Cite this work as:
   S. Grimme, C. Bannwarth, P. Shushkov, J. Comput. Theory Chem., 2017,
   13, 1989-2009.
   C. Bannwarth, S. Ehlert and S. Grimme., ChemRxiv, 2018, preprint.
   http://doi.org/10.26434/chemrxiv.7246238.v1
   
   for sTDA-xTB:
   S. Grimme and C. Bannwarth, J. Chem. Phys., 2016, 145, 054103.
   
   in the mass-spec context:
   V. Asgeirsson, C. Bauer and S. Grimme, Chem. Sci., 2017, 8, 4879.
   
   if GBSA is used:
   P. Shushkov, F. März and S. Grimme, unpublished.
   
   for ANC optimizer:
   S. Grimme, unpublished.
   Rational Function algorithm used in ANCopt:
   F. Eckert, P. Pulay, H.-J. Werner, J. Comput. Chem., 1997, 18, 1473.
   
   with help from (in alphabetical order)
   C. Bannwarth, F. Bohle, G. Brandenburg, E. Caldeweyher, M. Checinski,
   S. Dohm, S. Ehlert, S. Ehrlich, F. März, H. Neugebauer, J. Pisarek,
   P. Pracht, P. Shushkov, and S. Spicher.
   
 * started run on 2019/03/14 at 15:08:20.140     
========================================================================
 # omp threads = 1
========================================================================
number of atoms            : 516
number of electrons        : 1400
charge                     : -1
spin                       : .0
first test random number   : .4344
           ------------------------------------------------- 
          |                 G F N 2 - x T B                 |
          | Geometry, Frequencies, Noncovalent interactions |
          |            JCTC 2018 parametrisation            |
           ------------------------------------------------- 
 
      method parameters     
 k(s)        :  1.8500
 k(p)        :  2.2300
 k(d)        :  2.2300
 k(f)        :  2.0000
 kEN (H0ij)  : -2.0000
 D4 a1       :  0.5200
 D4 a2       :  5.0000
 D4 s6       :  1.0000
 D4 s8       :  2.7000
 D4 s9       :  5.0000
 alphaj      :  2.0000

 Solvent             : h2o
 Using internal parameter file: .param_gbsa2_h2o
 Gsolv ref. state (COSMO-RS): gsolv [1 M gas/solution]
 temperature (mdtemp)       :    298.150000000000     
 dielectric constant        :    80.2000000000000     
 rho                        :    1.00000000000000     
 mass                       :    18.0000000000000     
 surface tension            :    15.5689454083859     
 probe radius               :   0.975313790000000     
 vdW radii scaling          :    1.00000000000000     
 Gshift (Eh)                :   1.857443126794793E-003
 c1                         :    1.55243817000000     
 soset                      :   0.130326360000000     
 HB correction              :  T

            Z     q(EN)     CN     RAES       Cart. coordinates
     1  N   5.0   -0.22    3.21    1.96    71.51410   112.23791    49.33339
     2  C   4.0    0.02    4.38    4.34    69.09751   112.15321    48.06394
     3  C   4.0    0.16    3.53    3.13    68.87627   114.31923    46.18910
     4  O   6.0   -0.32    1.49    1.80    68.22516   113.91772    44.01547
     5  C   4.0    0.05    4.26    4.12    66.75038   112.27159    49.79609
     6  O   6.0   -0.26    2.13    1.84    66.73131   114.49705    51.25009
     7  C   4.0   -0.09    4.08    3.76    66.53182   109.95814    51.46945
     8  H   1.0    0.08    1.02    1.43    71.63930   113.19265    50.99027
     9  H   1.0    0.04    1.06    1.44    68.98280   110.42729    46.94111
    10  H   1.0    0.05    1.08    1.44    65.13799   112.37946    48.51171
    11  H   1.0    0.11    1.04    1.43    67.90186   114.21409    52.63027
    12  H   1.0    0.04    1.00    1.43    64.88020   110.12888    52.68239
    13  H   1.0    0.03    1.00    1.43    66.35839   108.26064    50.33537
    14  H   1.0    0.04    1.01    1.43    68.21141   109.87460    52.63820
    15  N   5.0   -0.14    3.45    2.05    69.46833   116.59664    47.04967
    16  C   4.0    0.01    4.27    4.13    69.72491   118.72583    45.36885
    17  C   4.0    0.16    3.44    3.09    71.15524   117.79775    43.04732
    18  O   6.0   -0.33    1.40    1.80    70.32050   118.10773    40.92119
    19  H   1.0    0.08    1.06    1.44    69.68635   116.96972    48.91620
    20  H   1.0    0.05    1.02    1.43    67.88845   119.47660    44.77023
    21  H   1.0    0.03    1.02    1.43    70.73175   120.20162    46.39005
    22  N   5.0   -0.14    3.49    2.07    73.29306   116.54336    43.49995
    23  C   4.0    0.03    4.44    4.44    74.64215   115.27061    41.50563
    24  C   4.0    0.15    3.57    3.15    73.30653   112.87977    40.65744
    25  O   6.0   -0.34    1.63    1.81    73.36674   112.34460    38.39942
    26  C   4.0   -0.06    4.34    4.28    77.35497   114.56487    42.17551
    27  C   4.0   -0.03    4.16    3.92    79.31453   116.72721    42.19871
    28  C   4.0   -0.08    4.12    3.85    81.40197   116.13015    40.30423
    29  C   4.0   -0.08    4.12    3.85    78.30186   119.36487    41.64637
    30  H   1.0    0.07    1.06    1.44    74.09392   116.42759    45.24130
    31  H   1.0    0.05    1.07    1.44    74.71415   116.46655    39.81086
    32  H   1.0    0.03    1.03    1.43    77.32642   113.63839    44.00607
    33  H   1.0    0.04    1.06    1.44    77.93589   113.18912    40.76098
    34  H   1.0    0.03    1.06    1.44    80.14296   116.80005    44.08498
    35  H   1.0    0.03    1.00    1.43    82.86336   117.56697    40.37918
    36  H   1.0    0.03    1.00    1.43    82.24118   114.30541    40.71996
    37  H   1.0    0.04    1.00    1.43    80.65074   116.08067    38.38936
    38  H   1.0    0.03    1.00    1.43    79.85934   120.69234    41.81697
    39  H   1.0    0.04    1.00    1.43    77.58194   119.49647    39.72794
    40  H   1.0    0.04    1.00    1.43    76.83552   119.90893    42.97440
    41  N   5.0   -0.14    3.54    2.11    72.06037   111.31501    42.21618
    42  C   4.0    0.04    4.60    4.66    71.03493   109.07993    40.97164
    43  C   4.0    0.16    3.50    3.12    69.27604   109.90471    38.81070
    44  O   6.0   -0.33    1.29    1.80    68.97396   108.58392    36.93389
    45  C   4.0   -0.03    4.26    4.11    69.79900   107.26681    42.87070
    46  C   4.0   -0.07    4.17    3.93    66.99498   107.81606    43.17545
    47  C   4.0   -0.08    4.11    3.83    70.25274   104.54272    42.06654
    48  H   1.0    0.08    1.06    1.44    72.42611   111.17802    44.07211
    49  H   1.0    0.05    1.07    1.44    72.59599   108.07284    40.04828
    50  H   1.0    0.03    1.06    1.44    70.76388   107.54211    44.66824
    51  H   1.0    0.03    1.00    1.43    66.16956   106.58897    44.59850
    52  H   1.0    0.06    1.01    1.43    66.69088   109.76880    43.70851
    53  H   1.0    0.05    1.01    1.43    66.02355   107.51387    41.39339
    54  H   1.0    0.04    1.00    1.43    69.30733   103.24140    43.33963
    55  H   1.0    0.05    1.00    1.43    69.55212   104.22278    40.17166
    56  H   1.0    0.04    1.00    1.43    72.26129   104.13402    42.08157
    57  N   5.0   -0.13    3.63    2.18    68.17368   112.13096    39.21387
    58  C   4.0    0.03    4.41    4.40    66.50664   113.63989    37.65331
    59  C   4.0    0.14    3.49    3.11    67.83844   115.18841    35.62267
    60  O   6.0   -0.34    1.34    1.80    66.88141   115.49997    33.53452
    61  C   4.0   -0.03    4.43    4.42    65.23786   115.55455    39.41961
    62  C   4.0   -0.00    3.64    3.19    63.78531   114.33332    41.50145
    63  C   4.0   -0.03    3.57    3.15    63.52315   115.65639    43.74647
    64  C   4.0   -0.04    3.52    3.12    62.89087   111.88986    41.33436
    65  C   4.0   -0.05    3.44    3.09    62.48869   114.52713    45.85771
    66  C   4.0   -0.05    3.44    3.09    61.91091   110.74099    43.46058
    67  C   4.0   -0.05    3.40    3.08    61.70526   112.03499    45.71733
    68  H   1.0    0.12    1.19    1.46    68.44742   112.86039    40.96706
    69  H   1.0    0.05    1.05    1.44    65.13441   112.43966    36.66925
    70  H   1.0    0.07    1.06    1.44    66.71502   116.69508    40.29441
    71  H   1.0    0.03    1.05    1.44    64.01650   116.83512    38.38768
    72  H   1.0    0.05    1.03    1.43    64.19028   117.58277    43.81311
    73  H   1.0    0.05    1.03    1.43    63.02453   110.85702    39.58343
    74  H   1.0    0.05    1.03    1.43    62.37175   115.57252    47.60605
    75  H   1.0    0.04    1.07    1.44    61.40128   108.79655    43.33275
    76  H   1.0    0.04    1.03    1.43    60.93274   111.12432    47.36551
    77  N   5.0   -0.14    3.58    2.14    70.07447   116.18101    36.24781
    78  C   4.0    0.03    4.40    4.39    71.42153   117.75112    34.45317
    79  C   4.0    0.14    3.39    3.08    73.02683   115.94346    32.74301
    80  O   6.0   -0.33    1.26    1.80    73.28687   116.36735    30.46235
    81  C   4.0   -0.04    4.26    4.13    72.86850   119.88226    35.79155
    82  C   4.0   -0.01    3.51    3.12    71.25432   121.98606    36.91339
    83  C   4.0   -0.05    3.47    3.10    72.34387   124.36875    37.21002
    84  C   4.0   -0.03    3.54    3.13    68.78252   121.68884    37.74684
    85  C   4.0   -0.04    3.44    3.09    70.97971   126.39076    38.13257
    86  C   4.0   -0.05    3.43    3.09    67.38849   123.70273    38.67896
    87  C   4.0    0.07    3.44    3.09    68.45619   126.09030    38.81201
    88  O   6.0   -0.25    2.11    1.84    67.15712   128.16434    39.60224
    89  H   1.0    0.12    1.13    1.45    70.46172   116.45856    38.11730
    90  H   1.0    0.05    1.06    1.44    70.04118   118.67847    33.20304
    91  H   1.0    0.04    1.03    1.43    74.00669   119.08480    37.31610
    92  H   1.0    0.04    1.03    1.43    74.16872   120.72948    34.42860
    93  H   1.0    0.05    1.03    1.43    74.30013   124.66763    36.70745
    94  H   1.0    0.06    1.05    1.44    67.86797   119.87647    37.71993
    95  H   1.0    0.06    1.03    1.43    71.81153   128.24336    38.30527
    96  H   1.0    0.05    1.02    1.43    65.44708   123.40267    39.26210
    97  H   1.0    0.12    1.04    1.43    65.38017   127.78017    39.74273
    98  N   5.0   -0.14    3.52    2.09    73.90528   113.91318    33.92824
    99  C   4.0    0.04    4.41    4.40    75.12639   111.68339    32.86383
   100  C   4.0    0.15    3.50    3.12    73.87838   110.76851    30.42201
   101  O   6.0   -0.30    1.31    1.80    75.18881   110.24122    28.56642
   102  C   4.0   -0.04    4.31    4.21    75.64084   109.51738    34.76894
   103  C   4.0   -0.02    4.19    3.98    77.94209   110.14988    36.46066
   104  C   4.0   -0.08    4.12    3.84    77.92641   108.70816    38.96282
   105  C   4.0   -0.08    4.13    3.87    80.45766   109.53029    35.19911
   106  H   1.0    0.12    1.22    1.47    73.42566   113.72849    35.80734
   107  H   1.0    0.06    1.16    1.46    77.02682   112.18876    32.26979
   108  H   1.0    0.07    1.04    1.43    74.00751   109.15726    35.95646
   109  H   1.0    0.05    1.03    1.43    76.03248   107.81514    33.66741
   110  H   1.0    0.05    1.06    1.44    77.88371   112.18339    36.82276
   111  H   1.0    0.03    1.00    1.43    79.59776   109.21006    40.05340
   112  H   1.0    0.05    1.01    1.43    76.28067   109.11931    40.10162
   113  H   1.0    0.04    1.00    1.43    77.96246   106.68832    38.60131
   114  H   1.0    0.03    1.00    1.43    81.98573   110.46544    36.19875
   115  H   1.0    0.04    1.01    1.43    80.79449   107.51000    35.29263
   116  H   1.0    0.06    1.03    1.43    80.46621   110.11875    33.24839
   117  N   5.0   -0.10    3.68    2.25    71.37588   110.48654    30.30496
   118  C   4.0    0.04    4.60    4.66    70.20551   109.45938    28.06013
   119  C   4.0    0.15    3.46    3.10    70.09932   111.34527    25.87983
   120  O   6.0   -0.29    1.27    1.80    70.61182   110.71819    23.72191
   121  C   4.0   -0.05    4.32    4.23    67.53375   108.69473    28.88184
   122  C   4.0   -0.04    4.24    4.08    66.99186   110.25932    31.25684
   123  C   4.0    0.01    4.49    4.53    69.52260   111.40367    32.05725
   124  H   1.0    0.07    1.06    1.44    71.34763   107.87175    27.39625
   125  H   1.0    0.04    1.03    1.43    66.20648   109.07706    27.36102
   126  H   1.0    0.04    1.02    1.43    67.46150   106.68310    29.29738
   127  H   1.0    0.04    1.03    1.43    65.67802   111.78793    30.86406
   128  H   1.0    0.05    1.03    1.43    66.21807   109.09672    32.76097
   129  H   1.0    0.07    1.09    1.44    69.43423   113.45307    31.89636
   130  H   1.0    0.07    1.05    1.44    70.05107   110.93270    33.98692
   131  N   5.0   -0.15    3.47    2.06    69.19135   113.66533    26.44006
   132  C   4.0    0.04    4.49    4.52    69.01686   115.50214    24.41608
   133  C   4.0    0.17    3.52    3.12    71.53635   115.77923    23.05301
   134  O   6.0   -0.27    1.23    1.80    71.64726   115.85676    20.75388
   135  C   4.0    0.05    4.22    4.05    68.01666   118.10979    25.27448
   136  O   6.0   -0.25    2.11    1.84    67.47296   119.53830    23.07896
   137  C   4.0   -0.07    4.09    3.78    69.71716   119.52755    27.10326
   138  H   1.0    0.08    1.07    1.44    69.07481   114.25573    28.24757
   139  H   1.0    0.06    1.06    1.44    67.71785   114.73516    22.99101
   140  H   1.0    0.04    1.08    1.44    66.24217   117.76743    26.26194
   141  H   1.0    0.12    1.03    1.43    67.74655   121.30284    23.44843
   142  H   1.0    0.04    1.00    1.43    68.71196   121.17111    27.82670
   143  H   1.0    0.06    1.02    1.43    70.19174   118.33029    28.69942
   144  H   1.0    0.05    1.00    1.43    71.45865   120.15569    26.20984
   145  N   5.0   -0.14    3.51    2.09    73.54776   116.02650    24.57947
   146  C   4.0    0.05    4.45    4.47    75.98723   116.42303    23.41871
   147  C   4.0    0.17    3.43    3.09    76.98636   114.00175    22.21985
   148  O   6.0   -0.27    1.23    1.80    78.08121   114.02113    20.19104
   149  C   4.0   -0.03    4.29    4.18    77.89299   117.59023    25.22179
   150  C   4.0    0.26    3.11    3.03    79.55500   119.62979    23.94343
   151  O   6.0   -0.28    1.17    1.80    80.50554   121.21547    25.43239
   152  O   6.0   -0.26    1.18    1.80    79.80649   119.59390    21.62222
   153  H   1.0    0.10    1.07    1.44    73.37052   115.94930    26.48572
   154  H   1.0    0.08    1.07    1.44    75.69915   117.71663    21.81492
   155  H   1.0    0.05    1.03    1.43    76.88300   118.48578    26.77713
   156  H   1.0    0.06    1.05    1.44    79.23390   116.21541    25.97448
   157  N   5.0   -0.13    3.48    2.07    76.51101   111.84325    23.48908
   158  C   4.0    0.05    4.40    4.38    77.62717   109.49843    22.62838
   159  C   4.0    0.17    3.42    3.09    76.08177   107.23500    23.54584
   160  O   6.0   -0.26    1.25    1.80    76.64502   105.90456    25.32859
   161  C   4.0    0.05    4.17    3.94    80.37364   109.38972    23.57877
   162  O   6.0   -0.23    2.05    1.83    81.43565   106.96633    23.25766
   163  H   1.0    0.11    1.09    1.44    75.79614   111.78957    25.26582
   164  H   1.0    0.06    1.06    1.44    77.59489   109.53758    20.55671
   165  H   1.0    0.06    1.01    1.43    81.47237   110.82813    22.58811
   166  H   1.0    0.07    1.02    1.43    80.34662   109.88800    25.58760
   167  H   1.0    0.12    1.03    1.43    83.12215   107.16782    22.61119
   168  N   5.0   -0.14    3.36    2.00    74.06014   106.72007    22.08668
   169  C   4.0    0.03    4.17    3.95    72.33450   104.72330    22.77628
   170  C   4.0    0.10    3.13    3.03    73.48079   102.08984    22.63037
   171  O   6.0   -0.27    1.12    1.80    72.61660   100.37989    23.92069
   172  H   1.0    0.10    1.06    1.44    73.47180   108.01750    20.82711
   173  H   1.0    0.07    1.03    1.43    71.68689   104.91830    24.73430
   174  H   1.0    0.05    1.03    1.43    70.69897   104.77342    21.52351
   175  N   5.0   -0.21    3.27    1.97    52.07698   106.18201    51.88933
   176  C   4.0    0.02    4.42    4.41    53.10869   107.48104    49.73151
   177  C   4.0    0.15    3.57    3.15    54.89906   105.55034    48.58853
   178  O   6.0   -0.33    1.50    1.80    54.56980   104.84892    46.41612
   179  C   4.0   -0.03    4.32    4.24    54.31628   110.04887    50.26330
   180  C   4.0   -0.05    4.19    3.98    52.30655   111.96688    51.08368
   181  C   4.0   -0.08    4.17    3.93    55.62491   110.95575    47.86340
   182  C   4.0   -0.08    4.02    3.65    53.46919   114.44028    51.99300
   183  H   1.0    0.07    1.02    1.43    52.76567   106.59561    53.62879
   184  H   1.0    0.04    1.06    1.44    51.58944   107.75397    48.33957
   185  H   1.0    0.03    1.05    1.44    55.71340   109.82040    51.76214
   186  H   1.0    0.04    1.03    1.43    51.03716   112.32644    49.49615
   187  H   1.0    0.04    1.03    1.43    51.19675   111.14925    52.60798
   188  H   1.0    0.03    1.00    1.43    56.64415   112.69348    48.23216
   189  H   1.0    0.04    1.01    1.43    56.94543   109.56356    47.14021
   190  H   1.0    0.04    1.00    1.43    54.22686   111.30162    46.39881
   191  H   1.0    0.04    1.00    1.43    52.03303   115.68178    52.77688
   192  H   1.0    0.04    1.00    1.43    54.84801   114.06713    53.46871
   193  H   1.0    0.04    1.00    1.43    54.39173   115.43066    50.45032
   194  N   5.0   -0.15    3.44    2.04    56.64185   104.41836    50.03138
   195  C   4.0    0.03    4.42    4.42    58.18318   102.55828    48.70542
   196  C   4.0    0.10    3.33    3.06    56.38319   100.71505    47.38502
   197  O   6.0   -0.29    1.14    1.80    56.64338   100.25257    45.12513
   198  C   4.0    0.05    4.17    3.94    60.31872   101.27180    50.22098
   199  O   6.0   -0.26    2.08    1.84    59.50777    99.62687    52.13806
   200  C   4.0   -0.08    4.06    3.72    62.20374   103.23789    51.23289
   201  H   1.0    0.07    1.04    1.44    57.19971   105.11120    51.74414
   202  H   1.0    0.04    1.09    1.44    59.12934   103.50590    47.12966
   203  H   1.0    0.05    1.04    1.43    61.33340   100.05988    48.86352
   204  H   1.0    0.11    1.02    1.43    57.84535   100.11846    52.77429
   205  H   1.0    0.04    1.00    1.43    63.58557   102.33216    52.45661
   206  H   1.0    0.03    1.00    1.43    63.18509   104.12751    49.66684
   207  H   1.0    0.04    1.00    1.43    61.22554   104.66498    52.32609
   208  N   5.0   -0.21    3.23    1.96    53.59785   104.11033    41.57112
   209  C   4.0    0.03    4.38    4.34    55.60401   104.99368    39.94699
   210  C   4.0    0.08    3.30    3.05    57.20219   102.85491    38.88457
   211  O   6.0   -0.32    1.32    1.80    58.47105   103.30548    36.98674
   212  C   4.0   -0.02    4.31    4.21    57.51255   106.82398    41.15288
   213  C   4.0   -0.08    4.12    3.84    56.10338   109.16819    42.01976
   214  C   4.0   -0.07    4.21    4.02    58.97984   105.37493    43.16918
   215  H   1.0    0.13    1.12    1.45    53.86120   104.22561    43.46861
   216  H   1.0    0.04    1.07    1.44    54.77264   106.02568    38.36302
   217  H   1.0    0.05    1.06    1.44    58.80152   107.34638    39.61930
   218  H   1.0    0.04    1.01    1.43    57.32781   110.53523    42.92932
   219  H   1.0    0.04    1.00    1.43    55.29948   110.08080    40.36611
   220  H   1.0    0.05    1.01    1.43    54.61209   108.61333    43.30947
   221  H   1.0    0.04    1.01    1.43    59.43505   106.53043    44.80086
   222  H   1.0    0.08    1.05    1.44    57.80441   103.83364    43.80030
   223  H   1.0    0.05    1.00    1.43    60.69450   104.57254    42.36426
   224  N   5.0   -0.21    3.21    1.96    52.52871   100.18730    34.53732
   225  C   4.0    0.03    4.35    4.29    53.19856   102.04856    32.65017
   226  C   4.0    0.14    3.48    3.11    55.68987   101.37996    31.36181
   227  O   6.0   -0.33    1.42    1.80    55.63213   101.09453    29.05769
   228  C   4.0    0.05    4.28    4.15    53.31703   104.67698    33.87174
   229  O   6.0   -0.27    2.11    1.84    50.89547   105.70235    34.22002
   230  C   4.0   -0.07    4.12    3.85    54.94302   106.57486    32.46583
   231  H   1.0    0.08    1.02    1.43    52.02012   100.85203    36.27611
   232  H   1.0    0.05    1.06    1.44    51.77783   102.07653    31.13726
   233  H   1.0    0.05    1.09    1.44    54.24476   104.37057    35.67584
   234  H   1.0    0.11    1.02    1.43    50.12664   104.86318    35.65673
   235  H   1.0    0.04    1.02    1.43    54.79130   108.33644    33.50018
   236  H   1.0    0.05    1.01    1.43    56.89964   105.95743    32.49699
   237  H   1.0    0.05    1.00    1.43    54.31210   106.87466    30.53851
   238  N   5.0   -0.15    3.45    2.05    57.82660   101.09773    32.66951
   239  C   4.0    0.04    4.35    4.29    60.14457   100.47378    31.34582
   240  C   4.0    0.09    3.33    3.06    59.73705    98.26339    29.54631
   241  O   6.0   -0.26    1.12    1.80    61.07188    97.89005    27.70788
   242  C   4.0   -0.03    4.33    4.25    62.19515    99.49342    33.16166
   243  C   4.0    0.06    3.77    3.31    63.61825   101.53581    34.45950
   244  N   5.0   -0.16    2.52    1.90    63.71820   101.83594    37.01351
   245  C   4.0   -0.01    3.62    3.18    65.08211   103.33855    33.31296
   246  C   4.0    0.07    3.66    3.21    65.18252   103.79313    37.38519
   247  N   5.0   -0.12    3.48    2.06    66.06768   104.76705    35.20655
   248  H   1.0    0.12    1.18    1.46    58.09468   101.78079    34.47161
   249  H   1.0    0.05    1.04    1.44    60.85380   102.09689    30.26336
   250  H   1.0    0.05    1.03    1.43    61.31308    98.23728    34.52737
   251  H   1.0    0.05    1.04    1.43    63.52394    98.38278    32.03177
   252  H   1.0    0.05    1.02    1.43    65.47463   103.63827    31.35335
   253  H   1.0    0.04    1.02    1.43    65.63947   104.56915    39.19213
   254  H   1.0    0.10    1.09    1.44    67.28983   106.23488    35.07770
   255  N   5.0   -0.19    3.28    1.98    54.39757    96.31324    26.89770
   256  C   4.0    0.03    4.28    4.17    52.69553    96.97741    24.86080
   257  C   4.0    0.16    3.38    3.07    53.99792    98.78484    22.94788
   258  O   6.0   -0.29    1.19    1.80    53.44032    98.74692    20.69969
   259  C   4.0   -0.05    4.22    4.04    50.20357    98.00916    26.00944
   260  C   4.0   -0.05    4.17    3.93    49.79310   100.87627    26.02853
   261  C   4.0   -0.01    4.20    3.99    49.17814   102.01361    23.42292
   262  N   5.0   -0.14    3.41    2.03    51.03056   103.94783    22.77591
   263  C   4.0    0.09    3.34    3.06    50.94239   105.45357    20.76575
   264  N   5.0   -0.19    3.26    1.97    48.80694   105.78319    19.48855
   265  N   5.0   -0.19    3.24    1.97    52.96637   106.83286    20.15053
   266  H   1.0    0.09    1.04    1.43    54.09138    97.14425    28.59764
   267  H   1.0    0.05    1.05    1.44    52.26624    95.23296    23.82452
   268  H   1.0    0.04    1.03    1.43    48.61313    97.12505    25.04863
   269  H   1.0    0.04    1.04    1.43    50.18003    97.34468    27.96516
   270  H   1.0    0.03    1.03    1.43    48.22804   101.25140    27.31856
   271  H   1.0    0.06    1.03    1.43    51.47307   101.77911    26.80442
   272  H   1.0    0.05    1.03    1.43    49.22195   100.51905    21.99178
   273  H   1.0    0.03    1.02    1.43    47.29706   102.86374    23.45187
   274  H   1.0    0.09    1.10    1.44    52.76787   103.59420    23.49341
   275  H   1.0    0.08    1.04    1.43    47.23336   104.84884    20.00747
   276  H   1.0    0.08    1.03    1.43    48.71067   107.00338    18.02857
   277  H   1.0    0.09    1.03    1.43    54.62950   106.61410    21.06086
   278  H   1.0    0.08    1.03    1.43    53.00414   107.80244    18.51114
   279  N   5.0   -0.13    3.51    2.08    55.52562   100.45477    24.08454
   280  C   4.0    0.05    4.29    4.17    57.37588   102.16568    23.01098
   281  C   4.0    0.26    3.15    3.03    59.60997   100.72336    21.63241
   282  O   6.0   -0.28    1.17    1.80    60.68477   102.00819    19.97454
   283  C   4.0    0.04    4.13    3.86    58.44945   103.95227    25.04201
   284  O   6.0   -0.26    2.03    1.83    57.59070   106.44995    24.62836
   285  O   6.0   -0.25    1.17    1.80    60.05058    98.52997    22.29111
   286  H   1.0    0.12    1.17    1.46    55.94883    99.95143    25.87846
   287  H   1.0    0.06    1.06    1.44    56.54006   103.29729    21.49678
   288  H   1.0    0.07    1.04    1.43    57.82562   103.32685    26.91005
   289  H   1.0    0.05    1.01    1.43    60.53080   103.87856    25.02513
   290  H   1.0    0.11    1.03    1.43    58.31939   107.52773    25.91782
   291  N   5.0   -0.12    4.08    3.07    61.49117   116.64704    16.36539
   292  C   4.0   -0.00    4.22    4.04    61.75682   119.48475    16.42742
   293  C   4.0    0.14    3.37    3.07    59.54328   120.82103    17.76252
   294  O   6.0   -0.30    1.23    1.80    59.93682   122.44038    19.34050
   295  C   4.0   -0.08    4.09    3.78    62.13732   120.45927    13.74161
   296  H   1.0    0.05    1.02    1.43    61.25301   116.02640    14.52362
   297  H   1.0    0.06    1.02    1.43    63.14885   115.85903    17.02632
   298  H   1.0    0.05    1.02    1.43    60.03013   115.97406    17.46772
   299  H   1.0    0.06    1.05    1.44    63.42362   119.96906    17.54958
   300  H   1.0    0.05    1.00    1.43    62.37182   122.49823    13.79051
   301  H   1.0    0.04    1.00    1.43    63.86166   119.65869    12.96238
   302  H   1.0    0.04    1.00    1.43    60.55852   120.02665    12.50006
   303  N   5.0   -0.15    3.45    2.05    57.21041   120.00358    17.13828
   304  C   4.0    0.03    4.42    4.42    55.01457   121.20867    18.27746
   305  C   4.0    0.15    3.45    3.09    54.28090   119.83979    20.72244
   306  O   6.0   -0.31    1.34    1.80    54.14411   120.95706    22.73595
   307  C   4.0   -0.05    4.34    4.27    52.73206   121.29137    16.51669
   308  C   4.0   -0.04    4.06    3.72    53.20700   122.91248    14.18912
   309  S   6.0   -0.06    2.46    3.10    50.34355   123.27328    12.28974
   310  C   4.0   -0.07    3.88    3.44    50.02934   120.02559    11.16887
   311  H   1.0    0.07    1.06    1.44    56.93842   118.87473    15.61652
   312  H   1.0    0.06    1.06    1.44    55.56017   123.13153    18.82556
   313  H   1.0    0.04    1.03    1.43    52.21942   119.37760    15.95464
   314  H   1.0    0.04    1.04    1.43    51.15639   122.09751    17.57848
   315  H   1.0    0.04    1.07    1.44    53.74860   124.82296    14.73328
   316  H   1.0    0.04    1.06    1.44    54.66215   122.12396    12.96691
   317  H   1.0    0.04    1.05    1.44    48.56428   120.06376     9.73743
   318  H   1.0    0.04    1.04    1.43    51.80328   119.42515    10.33510
   319  H   1.0    0.04    1.03    1.43    49.45138   118.80564    12.71119
   320  N   5.0   -0.15    3.50    2.08    53.91339   117.33652    20.51940
   321  C   4.0    0.03    4.52    4.57    52.95918   115.93709    22.68739
   322  C   4.0    0.16    3.59    3.16    54.74588   116.27268    24.89015
   323  O   6.0   -0.33    1.38    1.80    53.96498   116.41694    27.05560
   324  C   4.0   -0.03    4.27    4.13    52.65637   113.09798    22.10047
   325  C   4.0   -0.07    4.15    3.89    51.99779   111.64864    24.50937
   326  C   4.0   -0.08    4.12    3.84    50.56027   112.73577    20.15399
   327  H   1.0    0.07    1.07    1.44    53.64621   116.53839    18.80412
   328  H   1.0    0.05    1.05    1.44    51.13120   116.72065    23.28730
   329  H   1.0    0.04    1.05    1.44    54.45914   112.37539    21.39477
   330  H   1.0    0.05    1.00    1.43    51.78215   109.65408    24.09403
   331  H   1.0    0.05    1.01    1.43    53.47360   111.84853    25.91886
   332  H   1.0    0.04    1.00    1.43    50.24269   112.34274    25.31786
   333  H   1.0    0.04    1.01    1.43    50.17645   110.73823    19.94334
   334  H   1.0    0.04    1.00    1.43    48.84057   113.63431    20.82358
   335  H   1.0    0.04    1.00    1.43    51.05322   113.51797    18.32317
   336  N   5.0   -0.15    3.50    2.08    57.23672   116.15588    24.38396
   337  C   4.0    0.03    4.58    4.64    58.90810   116.44517    26.52531
   338  C   4.0    0.16    3.58    3.16    58.51143   119.08138    27.61931
   339  O   6.0   -0.33    1.46    1.80    57.81564   119.32413    29.81338
   340  C   4.0   -0.03    4.31    4.22    61.69590   115.85404    26.04374
   341  C   4.0   -0.05    4.18    3.97    62.09770   113.16082    25.04634
   342  C   4.0   -0.07    4.21    4.02    63.05743   116.22558    28.56399
   343  C   4.0   -0.08    4.04    3.70    61.28550   111.10700    26.88833
   344  H   1.0    0.08    1.06    1.44    57.92633   116.33476    22.62055
   345  H   1.0    0.05    1.08    1.44    58.18432   115.16079    27.98634
   346  H   1.0    0.04    1.05    1.44    62.46254   117.18284    24.65767
   347  H   1.0    0.04    1.03    1.43    61.04595   112.89818    23.29992
   348  H   1.0    0.04    1.03    1.43    64.10303   112.91564    24.63032
   349  H   1.0    0.04    1.00    1.43    64.82093   115.18474    28.61646
   350  H   1.0    0.04    1.00    1.43    63.45955   118.20735    28.91933
   351  H   1.0    0.04    1.01    1.43    61.89508   115.55985    30.10953
   352  H   1.0    0.04    1.00    1.43    61.77933   109.28583    26.07952
   353  H   1.0    0.03    1.00    1.43    62.23820   111.27948    28.69357
   354  H   1.0    0.04    1.00    1.43    59.26311   111.20732    27.20950
   355  N   5.0   -0.14    3.47    2.06    58.80004   121.08422    26.11607
   356  C   4.0    0.04    4.45    4.47    58.19231   123.55831    27.13713
   357  C   4.0    0.18    3.55    3.14    55.76830   123.43338    28.72249
   358  O   6.0   -0.32    1.33    1.80    55.69838   124.51673    30.77168
   359  C   4.0   -0.02    4.26    4.13    57.87929   125.50811    25.06075
   360  C   4.0    0.25    3.13    3.03    57.41120   128.15804    26.31094
   361  O   6.0   -0.30    1.17    1.80    59.26297   129.13649    27.37612
   362  O   6.0   -0.30    1.16    1.80    55.23201   129.02845    26.11789
   363  H   1.0    0.09    1.06    1.44    59.38753   121.00672    24.30362
   364  H   1.0    0.06    1.05    1.44    59.68574   124.17931    28.45696
   365  H   1.0    0.06    1.02    1.43    59.58801   125.63607    23.91113
   366  H   1.0    0.07    1.03    1.43    56.25070   125.01960    23.90240
   367  N   5.0   -0.12    3.52    2.09    53.80764   122.11512    27.82092
   368  C   4.0    0.04    4.45    4.47    51.39834   121.95860    29.11927
   369  C   4.0    0.16    3.51    3.12    51.62968   120.62970    31.65197
   370  O   6.0   -0.33    1.38    1.80    50.73590   121.60363    33.57845
   371  C   4.0   -0.04    4.33    4.25    49.48227   120.47515    27.53403
   372  C   4.0    0.06    3.78    3.32    48.84400   121.83838    25.15340
   373  N   5.0   -0.18    2.52    1.90    47.73472   120.64708    23.14947
   374  C   4.0   -0.01    3.62    3.18    49.12965   124.35378    24.61398
   375  C   4.0    0.06    3.64    3.19    47.35426   122.40032    21.45132
   376  N   5.0   -0.12    3.45    2.05    48.16542   124.68238    22.24644
   377  H   1.0    0.12    1.13    1.45    53.76248   121.51175    26.00398
   378  H   1.0    0.05    1.05    1.44    50.68691   123.87436    29.51458
   379  H   1.0    0.06    1.04    1.43    50.22201   118.59594    27.10977
   380  H   1.0    0.04    1.03    1.43    47.75586   120.19053    28.63794
   381  H   1.0    0.05    1.02    1.43    49.94457   125.89091    25.64693
   382  H   1.0    0.04    1.02    1.43    46.51791   122.09889    19.63376
   383  H   1.0    0.07    1.05    1.44    48.10910   126.33651    21.30915
   384  N   5.0   -0.14    3.57    2.13    52.63786   118.33815    31.64666
   385  C   4.0    0.04    4.55    4.61    52.84674   117.01413    34.02580
   386  C   4.0    0.15    3.53    3.13    54.57324   118.51965    35.77309
   387  O   6.0   -0.34    1.37    1.80    54.27084   118.38109    38.06877
   388  C   4.0   -0.02    4.29    4.17    53.70415   114.22356    33.78437
   389  C   4.0   -0.05    4.25    4.09    56.56055   114.25885    33.29282
   390  C   4.0   -0.07    4.10    3.80    52.04724   112.87767    31.84645
   391  C   4.0   -0.08    4.00    3.62    57.99105   111.78395    32.99341
   392  H   1.0    0.12    1.12    1.45    53.50391   117.67243    30.06518
   393  H   1.0    0.05    1.06    1.44    50.97682   117.05770    34.93061
   394  H   1.0    0.04    1.05    1.44    53.39003   113.32879    35.62604
   395  H   1.0    0.06    1.04    1.43    56.93081   115.47267    31.67240
   396  H   1.0    0.04    1.06    1.44    57.37537   115.14831    34.96305
   397  H   1.0    0.04    1.00    1.43    52.59478   110.91694    31.63868
   398  H   1.0    0.04    1.00    1.43    50.09317   112.90041    32.48403
   399  H   1.0    0.06    1.01    1.43    52.16102   113.81428    30.03095
   400  H   1.0    0.04    1.00    1.43    59.98526   112.21509    32.73374
   401  H   1.0    0.04    1.00    1.43    57.82849   110.68514    34.71822
   402  H   1.0    0.04    1.00    1.43    57.35319   110.68909    31.38762
   403  N   5.0   -0.14    3.56    2.12    56.37586   119.92663    34.71640
   404  C   4.0    0.04    4.49    4.52    58.17382   121.29918    36.23484
   405  C   4.0    0.16    3.51    3.12    57.04845   123.68852    37.32956
   406  O   6.0   -0.33    1.36    1.80    57.76316   124.51592    39.37705
   407  C   4.0   -0.04    4.42    4.41    60.48007   122.32480    34.81702
   408  C   4.0   -0.02    4.20    4.00    62.02785   120.40815    33.30572
   409  C   4.0   -0.07    4.12    3.85    64.76260   121.28053    33.17003
   410  C   4.0   -0.07    4.19    3.98    61.80192   117.78222    34.43478
   411  H   1.0    0.12    1.13    1.45    56.62249   119.96309    32.82074
   412  H   1.0    0.05    1.06    1.44    58.77101   120.08381    37.80378
   413  H   1.0    0.05    1.03    1.43    59.83850   123.85466    33.58654
   414  H   1.0    0.04    1.04    1.43    61.69465   123.15272    36.26616
   415  H   1.0    0.06    1.09    1.44    61.27502   120.34439    31.39955
   416  H   1.0    0.05    1.00    1.43    65.85794   120.05938    31.93780
   417  H   1.0    0.04    1.00    1.43    64.84931   123.21930    32.49397
   418  H   1.0    0.04    1.04    1.43    65.61646   121.19341    35.02118
   419  H   1.0    0.06    1.04    1.43    63.41733   116.64439    33.91014
   420  H   1.0    0.04    1.02    1.43    61.62625   117.88710    36.47089
   421  H   1.0    0.04    1.03    1.43    60.11197   116.90164    33.73442
   422  N   5.0   -0.14    3.61    2.17    55.42129   124.84508    35.82609
   423  C   4.0    0.03    4.45    4.46    54.08650   127.12089    36.51612
   424  C   4.0    0.16    3.53    3.13    52.22222   126.30912    38.54065
   425  O   6.0   -0.28    1.27    1.80    52.12394   127.34175    40.61096
   426  C   4.0   -0.04    4.34    4.27    52.76704   128.25770    34.21886
   427  C   4.0   -0.01    4.16    3.92    54.34085   130.12809    32.61632
   428  C   4.0   -0.08    4.11    3.82    53.09421   132.73059    32.67650
   429  C   4.0   -0.06    4.12    3.85    57.11274   130.36097    33.37562
   430  H   1.0    0.12    1.14    1.45    55.25283   124.25273    34.01033
   431  H   1.0    0.05    1.06    1.44    55.36772   128.49780    37.38192
   432  H   1.0    0.06    1.03    1.43    52.16460   126.68898    33.02797
   433  H   1.0    0.04    1.04    1.43    51.07403   129.25212    34.84175
   434  H   1.0    0.07    1.06    1.44    54.33123   129.43924    30.66659
   435  H   1.0    0.05    1.00    1.43    54.12502   134.02934    31.46660
   436  H   1.0    0.04    1.00    1.43    51.15885   132.61040    31.99634
   437  H   1.0    0.04    1.00    1.43    53.08164   133.48320    34.59088
   438  H   1.0    0.06    1.00    1.43    58.09799   131.40915    31.90862
   439  H   1.0    0.04    1.00    1.43    57.34458   131.36272    35.15615
   440  H   1.0    0.06    1.00    1.43    57.99413   128.51022    33.49123
   441  N   5.0   -0.14    3.59    2.15    50.75922   124.35652    37.95319
   442  C   4.0    0.04    4.51    4.56    49.10071   123.35445    39.87668
   443  C   4.0    0.16    3.50    3.11    50.70555   122.70435    42.20645
   444  O   6.0   -0.27    1.26    1.80    50.09181   123.56439    44.26635
   445  C   4.0   -0.04    4.09    3.77    47.51671   121.18002    38.87591
   446  S   6.0   -0.06    2.32    3.10    45.32440   122.24808    36.41897
   447  H   1.0    0.12    1.13    1.45    50.98909   123.41917    36.29559
   448  H   1.0    0.06    1.07    1.44    47.84392   124.87902    40.53022
   449  H   1.0    0.05    1.07    1.44    48.69025   119.72179    38.02968
   450  H   1.0    0.04    1.07    1.44    46.35857   120.37457    40.37471
   451  H   1.0    0.07    1.00    1.43    47.07822   122.51792    34.64114
   452  N   5.0   -0.14    3.49    2.07    52.76129   121.30073    41.89576
   453  C   4.0    0.04    4.53    4.58    54.22529   120.53789    44.08333
   454  C   4.0    0.16    3.55    3.14    55.21069   122.83918    45.51009
   455  O   6.0   -0.28    1.24    1.80    54.81400   123.07419    47.77755
   456  C   4.0   -0.02    4.30    4.19    56.45540   118.83200    43.35020
   457  C   4.0   -0.07    4.21    4.02    58.43246   118.88186    45.43305
   458  C   4.0   -0.07    4.13    3.85    55.61376   116.10631    42.95742
   459  H   1.0    0.12    1.14    1.45    53.23975   120.43033    40.24628
   460  H   1.0    0.05    1.05    1.44    52.97030   119.53804    45.40718
   461  H   1.0    0.05    1.06    1.44    57.28318   119.55916    41.60393
   462  H   1.0    0.04    1.06    1.44    59.94152   117.60464    44.93257
   463  H   1.0    0.05    1.01    1.43    59.22573   120.75312    45.70678
   464  H   1.0    0.04    1.01    1.43    57.58067   118.24554    47.18481
   465  H   1.0    0.04    1.00    1.43    57.23577   114.94829    42.46150
   466  H   1.0    0.03    1.00    1.43    54.80294   115.39169    44.69886
   467  H   1.0    0.06    1.01    1.43    54.23025   115.95984    41.45580
   468  N   5.0   -0.14    3.51    2.09    56.62893   124.44481    44.20043
   469  C   4.0    0.04    4.33    4.26    57.84522   126.60664    45.35448
   470  C   4.0    0.11    3.27    3.05    55.86620   128.29021    46.55444
   471  O   6.0   -0.28    1.12    1.80    56.20118   129.17392    48.68177
   472  C   4.0   -0.03    4.32    4.24    59.36735   128.08630    43.38079
   473  C   4.0   -0.01    3.52    3.12    60.90415   130.27829    44.37804
   474  C   4.0   -0.04    3.47    3.10    61.06955   132.48763    42.95615
   475  C   4.0   -0.03    3.47    3.10    62.25519   130.15326    46.62826
   476  C   4.0   -0.04    3.37    3.07    62.54455   134.49611    43.74842
   477  C   4.0   -0.04    3.38    3.07    63.69674   132.17980    47.44783
   478  C   4.0   -0.04    3.37    3.07    63.85277   134.35567    46.00829
   479  H   1.0    0.12    1.17    1.46    56.98294   124.16632    42.33656
   480  H   1.0    0.05    1.05    1.44    59.07564   125.94575    46.89414
   481  H   1.0    0.05    1.03    1.43    60.61571   126.74006    42.43330
   482  H   1.0    0.06    1.03    1.43    58.05088   128.77579    41.94880
   483  H   1.0    0.05    1.03    1.43    60.03826   132.65655    41.19969
   484  H   1.0    0.05    1.03    1.43    62.16286   128.48980    47.80458
   485  H   1.0    0.05    1.03    1.43    62.66806   136.17371    42.59151
   486  H   1.0    0.05    1.03    1.43    64.67833   132.06088    49.23185
   487  H   1.0    0.05    1.03    1.43    64.96443   135.94113    46.64666
   488  N   5.0   -0.21    3.19    1.95    88.77003   113.71701    30.53749
   489  C   4.0    0.03    4.28    4.17    86.04994   113.49237    30.51950
   490  C   4.0    0.09    3.35    3.06    84.99820   115.04549    28.29957
   491  O   6.0   -0.28    1.14    1.80    83.76762   114.18574    26.53980
   492  C   4.0   -0.05    4.29    4.17    84.64219   114.24092    32.94067
   493  C   4.0    0.05    3.91    3.47    81.99903   114.75887    32.18813
   494  N   5.0   -0.17    2.71    1.91    80.82009   113.18426    30.51050
   495  C   4.0   -0.02    3.60    3.17    80.57297   116.87198    32.54143
   496  C   4.0    0.07    3.80    3.33    78.76752   114.37167    29.80579
   497  N   5.0   -0.11    3.51    2.08    78.51445   116.58717    31.02216
   498  H   1.0    0.08    1.01    1.43    89.76915   115.09490    31.42366
   499  H   1.0    0.05    1.07    1.44    85.74314   111.50364    30.13913
   500  H   1.0    0.03    1.03    1.43    84.79588   112.73045    34.32275
   501  H   1.0    0.04    1.04    1.43    85.39173   115.98060    33.69754
   502  H   1.0    0.04    1.02    1.43    80.89477   118.49610    33.69925
   503  H   1.0    0.06    1.04    1.43    77.46042   113.65279    28.44405
   504  H   1.0    0.09    1.06    1.44    77.12514   117.85350    30.71236
   505  H   1.0    0.08    1.07    1.44    72.01686   110.65582    49.70324
   506  H   1.0    0.06    1.05    1.44    74.94163   101.75771    21.47854
   507  H   1.0    0.09    1.07    1.44    50.40989   106.50007    51.99983
   508  H   1.0    0.06    1.04    1.43    54.99440    99.88676    48.36290
   509  H   1.0    0.09    1.07    1.44    52.18427   105.00527    41.26544
   510  H   1.0    0.06    1.04    1.43    57.19470   101.16237    39.72499
   511  H   1.0    0.09    1.07    1.44    51.20200    99.27516    33.98922
   512  H   1.0    0.06    1.05    1.44    58.32556    97.04449    29.85136
   513  H   1.0    0.09    1.07    1.44    54.31064    94.63957    27.18726
   514  H   1.0    0.07    1.05    1.44    54.27400   128.69148    45.61906
   515  H   1.0    0.09    1.08    1.44    89.45009   112.32432    31.23783
   516  H   1.0    0.06    1.05    1.44    85.30422   116.90862    28.22109

  Z AO/shell   Hii/eV     exponent
  1     Wed Apr 25 08:07:45 CEST 2018   EN: 2.200 GM2: 0.406  GM3: 0.0800  RAES: 1.40
     1s    -10.707211    1.230000
  6     Wed Apr 25 08:07:45 CEST 2018   EN: 2.550 GM2: 0.538  GM3: 0.1500  RAES: 3.00
     2s    -13.970922    2.096432
     2p    -10.063292    1.800000
  7     Wed Apr 25 08:07:45 CEST 2018   EN: 3.040 GM2: 0.461  GM3:-0.0640  RAES: 1.90
     2s    -16.686243    2.339881
     2p    -12.523956    2.014332
  8     Wed Apr 25 08:07:45 CEST 2018   EN: 3.440 GM2: 0.452  GM3:-0.0517  RAES: 1.80
     2s    -20.229985    2.439742
     2p    -15.503117    2.137023
 16     Tue Apr 24 11:44:34 CEST 2018   EN: 2.580 GM2: 0.340  GM3:-0.0502  RAES: 3.10
     3s    -20.029654    1.981333
     3p    -11.377694    2.025643
     3d     -0.420282    1.702555
 no old-style atom pair restraining (fixing) potential

molecular fragmentation (1/2 indicates fragments):
111111111111111111111111111111111111111111111111111111111111111111111111
111111111111111111111111111111111111111111111111111111111111111111111111
111111111111111111111111111111222222222222222222222222222222222222222222
222222222222222222222222222222222222222222222222222222222222222222222222
222222222222222222222222222222222222222222222222222222222222222222222222
222222222222222222222222222222222222222222222222222222222222222222222222
222222222222222222222222222222222222222222222222222222222222222222222222
112222222222
# atoms in fragment 1/2:   176   340
 fragment masses (1/2) :     1252.41     2315.86
CMA distance (Bohr)    :  14.576
constraining FC (au)   :  0.0500
           ------------------------------------------------- 
          |        Self-Consistent Charge Iterations        |
           ------------------------------------------------- 

 Ncao       : 1278
 Nao        : 1276
 Nshell     : 768
 Nel        : 1400
 T(el)      :   500.0
 intcut     :    35.0
 scfconv/Eh :  0.100E-06
   qconv/e  :  0.100E-04
 intneglect :  0.100E-08
 broydamp   :      0.400
 iter      E             dE          RMSdq      gap      omega  full diag
   1   -798.4870981 -0.798487E+03  0.449E+00    2.89       0.0  T
   2   -800.2446913 -0.175759E+01  0.215E+00    1.84       1.0  T
   3   -800.3460199 -0.101329E+00  0.119E+00    2.02       1.0  T
   4   -800.4707655 -0.124746E+00  0.242E-01    1.43       1.0  T
   5   -800.4778307 -0.706526E-02  0.118E-01    1.52       1.0  T
   6   -800.4789426 -0.111191E-02  0.513E-02    1.48       1.0  T
   7   -800.4793563 -0.413633E-03  0.238E-02    1.48       1.0  T
   8   -800.4794059 -0.496039E-04  0.120E-02    1.48       1.0  T
   9   -800.4794244 -0.185318E-04  0.577E-03    1.47       1.0  T
  10   -800.4794281 -0.369927E-05  0.290E-03    1.47       1.5  T
  11   -800.4794291 -0.975499E-06  0.133E-03    1.47       3.3  T
  12   -800.4794293 -0.189057E-06  0.672E-04    1.46       6.5  T
  13   -800.4794293 -0.547033E-07  0.324E-04    1.46      13.6  T
  14   -800.4794293 -0.105470E-07  0.140E-04    1.46      31.4  T
  15   -800.4794293 -0.234434E-08  0.585E-05    1.46      75.3  T
  16   -800.4794293 -0.366867E-09  0.260E-05    1.46     169.2  T
speedup  1.00
cpu  time for SCC   12.22 s
wall time for SCC   12.22 s

   *** convergence criteria satisfied after 16 iterations ***

          eigenvalues
 #    :         688        689        690        691        692        693        694        695
 occ. :        2.000      2.000      2.000      2.000      2.000      2.000      2.000      2.000
 eps  :       -10.262    -10.184    -10.138    -10.123    -10.053    -10.044     -9.957     -9.949
 #    :         696        697        698        699        700        701        702        703
 occ. :        2.000      2.000      2.000      2.000      2.000      0.000      0.000      0.000
 eps  :        -9.920     -9.804     -9.629     -9.453     -9.257     -7.793     -7.701     -7.614
 #    :         704        705        706        707        708        709        710        711
 occ. :        0.000      0.000      0.000      0.000      0.000      0.000      0.000      0.000
 eps  :        -7.569     -7.549     -7.258     -7.133     -7.048     -6.939     -6.811     -6.695


   #   Z            q   n(s)   n(p)   n(d)      C6AA      α(0)
   1   7 N     -0.390  1.313  4.077  0.000    30.085     8.146
   2   6 C     -0.003  1.065  2.937  0.000    20.640     6.471
   3   6 C      0.264  1.043  2.693  0.000    22.547     7.776
   4   8 O     -0.481  1.737  4.744  0.000    23.367     6.481
   5   6 C      0.096  1.045  2.859  0.000    19.077     6.235
   6   8 O     -0.485  1.736  4.749  0.000    22.563     6.412
   7   6 C     -0.137  1.044  3.093  0.000    23.194     6.867
   8   1 H      0.166  0.834  0.000  0.000     1.298     1.785
   9   1 H      0.065  0.935  0.000  0.000     2.141     2.288
  10   1 H      0.049  0.951  0.000  0.000     2.337     2.391
  11   1 H      0.330  0.670  0.000  0.000     0.637     1.254
  12   1 H      0.063  0.937  0.000  0.000     2.167     2.302
  13   1 H      0.058  0.942  0.000  0.000     2.219     2.330
  14   1 H      0.056  0.944  0.000  0.000     2.252     2.347
  15   7 N     -0.159  1.232  3.927  0.000    24.433     7.341
  16   6 C     -0.035  1.052  2.983  0.000    21.267     6.577
  17   6 C      0.282  1.037  2.681  0.000    22.220     7.720
  18   8 O     -0.464  1.736  4.727  0.000    22.994     6.429
  19   1 H      0.232  0.768  0.000  0.000     0.957     1.533
  20   1 H      0.084  0.916  0.000  0.000     1.940     2.178
  21   1 H      0.098  0.902  0.000  0.000     1.807     2.102
  22   7 N     -0.173  1.237  3.936  0.000    24.748     7.388
  23   6 C      0.018  1.055  2.927  0.000    20.274     6.411
  24   6 C      0.263  1.048  2.689  0.000    22.568     7.781
  25   8 O     -0.472  1.743  4.729  0.000    23.159     6.452
  26   6 C     -0.093  1.061  3.032  0.000    22.262     6.716
  27   6 C     -0.019  1.058  2.961  0.000    20.876     6.499
  28   6 C     -0.119  1.043  3.076  0.000    22.827     6.811
  29   6 C     -0.118  1.039  3.078  0.000    22.805     6.809
  30   1 H      0.228  0.772  0.000  0.000     0.973     1.545
  31   1 H      0.078  0.922  0.000  0.000     2.004     2.214
  32   1 H      0.072  0.928  0.000  0.000     2.066     2.248
  33   1 H      0.080  0.920  0.000  0.000     1.982     2.202
  34   1 H      0.059  0.941  0.000  0.000     2.215     2.328
  35   1 H      0.046  0.954  0.000  0.000     2.374     2.409
  36   1 H      0.046  0.954  0.000  0.000     2.365     2.405
  37   1 H      0.030  0.970  0.000  0.000     2.583     2.513
  38   1 H      0.050  0.950  0.000  0.000     2.319     2.382
  39   1 H      0.027  0.973  0.000  0.000     2.633     2.537
  40   1 H      0.046  0.954  0.000  0.000     2.377     2.411
  41   7 N     -0.175  1.262  3.913  0.000    24.778     7.393
  42   6 C      0.011  1.071  2.917  0.000    20.372     6.423
  43   6 C      0.286  1.038  2.676  0.000    22.158     7.708
  44   8 O     -0.497  1.736  4.761  0.000    23.714     6.529
  45   6 C     -0.021  1.061  2.960  0.000    20.907     6.503
  46   6 C     -0.128  1.040  3.088  0.000    23.008     6.839
  47   6 C     -0.126  1.040  3.087  0.000    22.972     6.833
  48   1 H      0.222  0.778  0.000  0.000     0.999     1.566
  49   1 H      0.077  0.923  0.000  0.000     2.009     2.217
  50   1 H      0.056  0.944  0.000  0.000     2.249     2.345
  51   1 H      0.058  0.942  0.000  0.000     2.226     2.333
  52   1 H      0.061  0.939  0.000  0.000     2.189     2.313
  53   1 H      0.040  0.960  0.000  0.000     2.453     2.449
  54   1 H      0.065  0.935  0.000  0.000     2.147     2.291
  55   1 H      0.047  0.953  0.000  0.000     2.363     2.404
  56   1 H      0.049  0.951  0.000  0.000     2.337     2.391
  57   7 N     -0.196  1.246  3.950  0.000    25.253     7.463
  58   6 C      0.022  1.059  2.918  0.000    20.207     6.402
  59   6 C      0.266  1.046  2.688  0.000    22.506     7.769
  60   8 O     -0.486  1.744  4.742  0.000    23.467     6.495
  61   6 C     -0.089  1.053  3.036  0.000    22.183     6.702
  62   6 C      0.017  1.077  2.905  0.000    27.619     8.621
  63   6 C     -0.036  1.079  2.957  0.000    28.894     8.815
  64   6 C     -0.042  1.076  2.966  0.000    29.049     8.839
  65   6 C     -0.036  1.080  2.956  0.000    28.904     8.816
  66   6 C     -0.049  1.083  2.966  0.000    29.213     8.864
  67   6 C     -0.044  1.076  2.968  0.000    29.094     8.845
  68   1 H      0.248  0.752  0.000  0.000     0.892     1.479
  69   1 H      0.074  0.926  0.000  0.000     2.037     2.232
  70   1 H      0.082  0.918  0.000  0.000     1.955     2.186
  71   1 H      0.065  0.935  0.000  0.000     2.146     2.291
  72   1 H      0.024  0.976  0.000  0.000     2.667     2.554
  73   1 H      0.035  0.965  0.000  0.000     2.518     2.481
  74   1 H      0.043  0.957  0.000  0.000     2.406     2.426
  75   1 H      0.074  0.926  0.000  0.000     2.046     2.237
  76   1 H      0.049  0.951  0.000  0.000     2.336     2.390
  77   7 N     -0.209  1.269  3.940  0.000    25.559     7.508
  78   6 C      0.023  1.066  2.912  0.000    20.198     6.400
  79   6 C      0.263  1.051  2.686  0.000    22.557     7.776
  80   8 O     -0.549  1.757  4.792  0.000    24.908     6.691
  81   6 C     -0.067  1.054  3.013  0.000    21.778     6.644
  82   6 C      0.002  1.078  2.920  0.000    27.987     8.677
  83   6 C     -0.043  1.084  2.959  0.000    29.062     8.841
  84   6 C     -0.036  1.080  2.956  0.000    28.890     8.815
  85   6 C     -0.060  1.075  2.985  0.000    29.490     8.905
  86   6 C     -0.074  1.076  2.999  0.000    29.851     8.959
  87   6 C      0.144  1.044  2.811  0.000    24.855     8.171
  88   8 O     -0.422  1.714  4.708  0.000    21.283     6.228
  89   1 H      0.245  0.755  0.000  0.000     0.904     1.489
  90   1 H      0.068  0.932  0.000  0.000     2.109     2.271
  91   1 H      0.060  0.940  0.000  0.000     2.200     2.320
  92   1 H      0.045  0.955  0.000  0.000     2.380     2.412
  93   1 H      0.042  0.958  0.000  0.000     2.418     2.432
  94   1 H      0.062  0.938  0.000  0.000     2.176     2.307
  95   1 H      0.053  0.947  0.000  0.000     2.280     2.361
  96   1 H      0.034  0.966  0.000  0.000     2.533     2.489
  97   1 H      0.324  0.676  0.000  0.000     0.654     1.270
  98   7 N     -0.214  1.273  3.942  0.000    25.670     7.525
  99   6 C      0.018  1.061  2.921  0.000    20.284     6.415
 100   6 C      0.262  1.048  2.690  0.000    22.580     7.782
 101   8 O     -0.530  1.764  4.766  0.000    24.465     6.632
 102   6 C     -0.072  1.060  3.012  0.000    21.884     6.661
 103   6 C     -0.010  1.059  2.950  0.000    20.716     6.474
 104   6 C     -0.118  1.042  3.076  0.000    22.803     6.807
 105   6 C     -0.125  1.042  3.084  0.000    22.950     6.829
 106   1 H      0.266  0.734  0.000  0.000     0.823     1.421
 107   1 H      0.083  0.917  0.000  0.000     1.946     2.181
 108   1 H      0.076  0.924  0.000  0.000     2.026     2.226
 109   1 H      0.043  0.957  0.000  0.000     2.414     2.430
 110   1 H      0.032  0.968  0.000  0.000     2.555     2.500
 111   1 H      0.056  0.944  0.000  0.000     2.247     2.344
 112   1 H      0.040  0.960  0.000  0.000     2.445     2.445
 113   1 H      0.047  0.953  0.000  0.000     2.362     2.403
 114   1 H      0.044  0.956  0.000  0.000     2.398     2.422
 115   1 H      0.044  0.956  0.000  0.000     2.398     2.421
 116   1 H      0.042  0.958  0.000  0.000     2.422     2.434
 117   7 N     -0.093  1.233  3.860  0.000    23.052     7.131
 118   6 C      0.026  1.061  2.914  0.000    20.123     6.383
 119   6 C      0.273  1.045  2.682  0.000    22.392     7.749
 120   8 O     -0.475  1.750  4.725  0.000    23.248     6.465
 121   6 C     -0.079  1.057  3.022  0.000    21.983     6.672
 122   6 C     -0.079  1.052  3.027  0.000    21.990     6.674
 123   6 C     -0.008  1.050  2.958  0.000    20.765     6.494
 124   1 H      0.059  0.941  0.000  0.000     2.207     2.323
 125   1 H      0.077  0.923  0.000  0.000     2.006     2.215
 126   1 H      0.070  0.930  0.000  0.000     2.087     2.259
 127   1 H      0.078  0.922  0.000  0.000     2.002     2.213
 128   1 H      0.080  0.920  0.000  0.000     1.978     2.200
 129   1 H      0.052  0.948  0.000  0.000     2.294     2.368
 130   1 H      0.080  0.920  0.000  0.000     1.983     2.202
 131   7 N     -0.190  1.245  3.945  0.000    25.120     7.444
 132   6 C      0.013  1.066  2.920  0.000    20.351     6.423
 133   6 C      0.289  1.035  2.676  0.000    22.103     7.700
 134   8 O     -0.480  1.744  4.736  0.000    23.347     6.478
 135   6 C      0.095  1.049  2.856  0.000    19.103     6.240
 136   8 O     -0.476  1.713  4.763  0.000    22.381     6.386
 137   6 C     -0.135  1.041  3.094  0.000    23.164     6.864
 138   1 H      0.201  0.799  0.000  0.000     1.099     1.642
 139   1 H      0.102  0.898  0.000  0.000     1.771     2.081
 140   1 H      0.074  0.926  0.000  0.000     2.046     2.237
 141   1 H      0.339  0.661  0.000  0.000     0.615     1.232
 142   1 H      0.058  0.942  0.000  0.000     2.221     2.331
 143   1 H      0.060  0.940  0.000  0.000     2.200     2.319
 144   1 H      0.033  0.967  0.000  0.000     2.544     2.494
 145   7 N     -0.205  1.254  3.951  0.000    25.460     7.494
 146   6 C      0.047  1.051  2.902  0.000    19.790     6.333
 147   6 C      0.285  1.044  2.671  0.000    22.170     7.711
 148   8 O     -0.486  1.746  4.740  0.000    23.476     6.496
 149   6 C     -0.089  1.065  3.023  0.000    22.189     6.706
 150   6 C      0.373  1.020  2.607  0.000    20.685     7.443
 151   8 O     -0.653  1.768  4.885  0.000    27.462     7.026
 152   8 O     -0.625  1.770  4.855  0.000    26.746     6.934
 153   1 H      0.205  0.795  0.000  0.000     1.080     1.628
 154   1 H      0.062  0.938  0.000  0.000     2.172     2.305
 155   1 H      0.033  0.967  0.000  0.000     2.543     2.494
 156   1 H      0.025  0.975  0.000  0.000     2.652     2.547
 157   7 N     -0.195  1.255  3.941  0.000    25.242     7.462
 158   6 C      0.023  1.063  2.914  0.000    20.185     6.397
 159   6 C      0.285  1.037  2.678  0.000    22.169     7.710
 160   8 O     -0.445  1.739  4.705  0.000    22.597     6.373
 161   6 C      0.089  1.031  2.879  0.000    19.307     6.294
 162   8 O     -0.477  1.721  4.756  0.000    22.404     6.390
 163   1 H      0.203  0.797  0.000  0.000     1.092     1.637
 164   1 H      0.069  0.931  0.000  0.000     2.096     2.264
 165   1 H      0.024  0.976  0.000  0.000     2.673     2.557
 166   1 H      0.041  0.959  0.000  0.000     2.435     2.441
 167   1 H      0.356  0.644  0.000  0.000     0.574     1.190
 168   7 N     -0.173  1.242  3.931  0.000    24.744     7.388
 169   6 C     -0.021  1.047  2.974  0.000    21.027     6.541
 170   6 C      0.211  1.080  2.709  0.000    23.539     7.945
 171   8 O     -0.364  1.751  4.613  0.000    20.978     6.141
 172   1 H      0.216  0.784  0.000  0.000     1.028     1.588
 173   1 H      0.091  0.909  0.000  0.000     1.865     2.136
 174   1 H      0.129  0.871  0.000  0.000     1.544     1.943
 175   7 N     -0.390  1.315  4.075  0.000    30.097     8.148
 176   6 C      0.029  1.059  2.912  0.000    20.086     6.382
 177   6 C      0.274  1.051  2.675  0.000    22.373     7.748
 178   8 O     -0.460  1.736  4.724  0.000    22.914     6.418
 179   6 C     -0.030  1.066  2.964  0.000    21.067     6.528
 180   6 C     -0.057  1.049  3.009  0.000    21.602     6.617
 181   6 C     -0.120  1.042  3.078  0.000    22.842     6.813
 182   6 C     -0.106  1.035  3.071  0.000    22.588     6.778
 183   1 H      0.168  0.832  0.000  0.000     1.288     1.778
 184   1 H      0.050  0.950  0.000  0.000     2.315     2.380
 185   1 H      0.041  0.959  0.000  0.000     2.436     2.441
 186   1 H      0.031  0.969  0.000  0.000     2.566     2.505
 187   1 H      0.036  0.964  0.000  0.000     2.497     2.471
 188   1 H      0.049  0.951  0.000  0.000     2.332     2.388
 189   1 H      0.047  0.953  0.000  0.000     2.363     2.404
 190   1 H      0.043  0.957  0.000  0.000     2.414     2.430
 191   1 H      0.030  0.970  0.000  0.000     2.589     2.516
 192   1 H      0.043  0.957  0.000  0.000     2.407     2.426
 193   1 H      0.032  0.968  0.000  0.000     2.561     2.503
 194   7 N     -0.167  1.246  3.921  0.000    24.615     7.369
 195   6 C     -0.000  1.066  2.934  0.000    20.576     6.457
 196   6 C      0.210  1.079  2.712  0.000    23.553     7.948
 197   8 O     -0.365  1.756  4.609  0.000    20.990     6.143
 198   6 C      0.114  1.046  2.840  0.000    18.819     6.195
 199   8 O     -0.480  1.726  4.754  0.000    22.460     6.398
 200   6 C     -0.139  1.046  3.093  0.000    23.242     6.875
 201   1 H      0.212  0.788  0.000  0.000     1.045     1.601
 202   1 H      0.095  0.905  0.000  0.000     1.827     2.114
 203   1 H      0.053  0.947  0.000  0.000     2.288     2.365
 204   1 H      0.338  0.662  0.000  0.000     0.616     1.233
 205   1 H      0.075  0.925  0.000  0.000     2.030     2.228
 206   1 H      0.057  0.943  0.000  0.000     2.229     2.335
 207   1 H      0.060  0.940  0.000  0.000     2.199     2.319
 208   7 N     -0.421  1.321  4.100  0.000    30.956     8.263
 209   6 C      0.036  1.057  2.907  0.000    19.977     6.365
 210   6 C      0.194  1.098  2.708  0.000    23.865     8.001
 211   8 O     -0.371  1.744  4.627  0.000    21.112     6.161
 212   6 C     -0.011  1.062  2.949  0.000    20.738     6.476
 213   6 C     -0.121  1.040  3.081  0.000    22.874     6.819
 214   6 C     -0.131  1.040  3.091  0.000    23.069     6.848
 215   1 H      0.208  0.792  0.000  0.000     1.065     1.616
 216   1 H      0.058  0.942  0.000  0.000     2.219     2.330
 217   1 H      0.033  0.967  0.000  0.000     2.546     2.495
 218   1 H      0.051  0.949  0.000  0.000     2.305     2.374
 219   1 H      0.035  0.965  0.000  0.000     2.522     2.483
 220   1 H      0.057  0.943  0.000  0.000     2.236     2.339
 221   1 H      0.045  0.955  0.000  0.000     2.382     2.414
 222   1 H      0.086  0.914  0.000  0.000     1.914     2.163
 223   1 H      0.035  0.965  0.000  0.000     2.523     2.484
 224   7 N     -0.398  1.323  4.075  0.000    30.310     8.177
 225   6 C      0.016  1.063  2.921  0.000    20.325     6.422
 226   6 C      0.263  1.052  2.685  0.000    22.557     7.778
 227   8 O     -0.494  1.742  4.752  0.000    23.652     6.521
 228   6 C      0.102  1.043  2.855  0.000    18.984     6.219
 229   8 O     -0.466  1.718  4.748  0.000    22.174     6.357
 230   6 C     -0.139  1.044  3.095  0.000    23.229     6.873
 231   1 H      0.161  0.839  0.000  0.000     1.330     1.807
 232   1 H      0.056  0.944  0.000  0.000     2.250     2.346
 233   1 H      0.031  0.969  0.000  0.000     2.565     2.505
 234   1 H      0.324  0.676  0.000  0.000     0.654     1.270
 235   1 H      0.079  0.921  0.000  0.000     1.989     2.206
 236   1 H      0.044  0.956  0.000  0.000     2.395     2.420
 237   1 H      0.061  0.939  0.000  0.000     2.181     2.310
 238   7 N     -0.195  1.266  3.929  0.000    25.231     7.460
 239   6 C      0.036  1.057  2.907  0.000    19.974     6.364
 240   6 C      0.211  1.076  2.713  0.000    23.540     7.947
 241   8 O     -0.387  1.770  4.617  0.000    21.420     6.205
 242   6 C     -0.075  1.052  3.024  0.000    21.920     6.663
 243   6 C      0.058  1.058  2.884  0.000    26.061     8.307
 244   7 N     -0.288  1.483  3.805  0.000    28.324     7.891
 245   6 C     -0.032  1.061  2.972  0.000    28.753     8.794
 246   6 C      0.082  1.059  2.859  0.000    25.771     8.287
 247   7 N     -0.104  1.248  3.856  0.000    23.279     7.166
 248   1 H      0.256  0.744  0.000  0.000     0.860     1.453
 249   1 H      0.066  0.934  0.000  0.000     2.131     2.283
 250   1 H      0.083  0.917  0.000  0.000     1.944     2.180
 251   1 H      0.053  0.947  0.000  0.000     2.281     2.362
 252   1 H      0.027  0.973  0.000  0.000     2.628     2.535
 253   1 H      0.048  0.952  0.000  0.000     2.343     2.393
 254   1 H      0.218  0.782  0.000  0.000     1.021     1.583
 255   7 N     -0.403  1.324  4.079  0.000    30.454     8.196
 256   6 C      0.030  1.065  2.905  0.000    20.095     6.386
 257   6 C      0.275  1.048  2.677  0.000    22.347     7.740
 258   8 O     -0.525  1.749  4.776  0.000    24.347     6.616
 259   6 C     -0.077  1.064  3.012  0.000    21.963     6.672
 260   6 C     -0.086  1.056  3.031  0.000    22.150     6.701
 261   6 C     -0.024  1.056  2.968  0.000    21.092     6.554
 262   7 N     -0.147  1.225  3.922  0.000    24.185     7.304
 263   6 C      0.230  1.021  2.749  0.000    23.172     7.881
 264   7 N     -0.244  1.225  4.019  0.000    26.375     7.627
 265   7 N     -0.252  1.231  4.021  0.000    26.555     7.653
 266   1 H      0.160  0.840  0.000  0.000     1.333     1.808
 267   1 H      0.030  0.970  0.000  0.000     2.591     2.517
 268   1 H      0.053  0.947  0.000  0.000     2.277     2.360
 269   1 H      0.052  0.948  0.000  0.000     2.291     2.367
 270   1 H      0.076  0.924  0.000  0.000     2.022     2.224
 271   1 H      0.070  0.930  0.000  0.000     2.081     2.256
 272   1 H      0.071  0.929  0.000  0.000     2.070     2.250
 273   1 H      0.095  0.905  0.000  0.000     1.832     2.117
 274   1 H      0.208  0.792  0.000  0.000     1.068     1.619
 275   1 H      0.249  0.751  0.000  0.000     0.889     1.477
 276   1 H      0.263  0.737  0.000  0.000     0.836     1.432
 277   1 H      0.227  0.773  0.000  0.000     0.977     1.548
 278   1 H      0.262  0.738  0.000  0.000     0.840     1.435
 279   7 N     -0.198  1.261  3.938  0.000    25.311     7.472
 280   6 C      0.002  1.080  2.918  0.000    20.564     6.461
 281   6 C      0.368  1.023  2.608  0.000    20.754     7.455
 282   8 O     -0.638  1.766  4.873  0.000    27.083     6.977
 283   6 C      0.073  1.040  2.887  0.000    19.590     6.343
 284   8 O     -0.455  1.697  4.758  0.000    21.941     6.323
 285   8 O     -0.624  1.779  4.845  0.000    26.728     6.931
 286   1 H      0.239  0.761  0.000  0.000     0.927     1.508
 287   1 H      0.054  0.946  0.000  0.000     2.272     2.357
 288   1 H      0.051  0.949  0.000  0.000     2.313     2.378
 289   1 H     -0.004  1.004  0.000  0.000     3.135     2.769
 290   1 H      0.325  0.675  0.000  0.000     0.651     1.267
 291   7 N     -0.157  1.236  3.921  0.000    24.378     7.333
 292   6 C     -0.025  1.078  2.948  0.000    21.051     6.537
 293   6 C      0.273  1.032  2.695  0.000    22.386     7.748
 294   8 O     -0.466  1.767  4.698  0.000    23.036     6.435
 295   6 C     -0.156  1.044  3.112  0.000    23.588     6.926
 296   1 H      0.322  0.678  0.000  0.000     0.651     1.264
 297   1 H      0.308  0.692  0.000  0.000     0.690     1.302
 298   1 H      0.289  0.711  0.000  0.000     0.748     1.355
 299   1 H      0.129  0.871  0.000  0.000     1.540     1.941
 300   1 H      0.086  0.914  0.000  0.000     1.918     2.166
 301   1 H      0.101  0.899  0.000  0.000     1.772     2.081
 302   1 H      0.100  0.900  0.000  0.000     1.783     2.088
 303   7 N     -0.185  1.248  3.937  0.000    25.010     7.427
 304   6 C      0.006  1.064  2.930  0.000    20.475     6.443
 305   6 C      0.268  1.043  2.688  0.000    22.467     7.762
 306   8 O     -0.483  1.756  4.728  0.000    23.418     6.488
 307   6 C     -0.079  1.055  3.024  0.000    21.983     6.670
 308   6 C     -0.015  1.064  2.952  0.000    20.854     6.503
 309  16 S     -0.245  1.935  4.254  0.057   151.578    20.722
 310   6 C     -0.073  1.059  3.014  0.000    21.966     6.686
 311   1 H      0.248  0.752  0.000  0.000     0.892     1.479
 312   1 H      0.078  0.922  0.000  0.000     1.999     2.211
 313   1 H      0.087  0.913  0.000  0.000     1.910     2.161
 314   1 H      0.064  0.936  0.000  0.000     2.148     2.292
 315   1 H      0.048  0.952  0.000  0.000     2.346     2.395
 316   1 H      0.072  0.928  0.000  0.000     2.067     2.248
 317   1 H      0.068  0.932  0.000  0.000     2.109     2.271
 318   1 H      0.077  0.923  0.000  0.000     2.007     2.215
 319   1 H      0.076  0.924  0.000  0.000     2.017     2.221
 320   7 N     -0.183  1.256  3.927  0.000    24.956     7.419
 321   6 C      0.001  1.068  2.930  0.000    20.556     6.455
 322   6 C      0.277  1.043  2.680  0.000    22.320     7.738
 323   8 O     -0.469  1.734  4.735  0.000    23.114     6.446
 324   6 C     -0.040  1.070  2.970  0.000    21.251     6.557
 325   6 C     -0.135  1.041  3.094  0.000    23.143     6.859
 326   6 C     -0.148  1.045  3.103  0.000    23.406     6.897
 327   1 H      0.241  0.759  0.000  0.000     0.920     1.503
 328   1 H      0.095  0.905  0.000  0.000     1.828     2.114
 329   1 H      0.077  0.923  0.000  0.000     2.008     2.216
 330   1 H      0.072  0.928  0.000  0.000     2.069     2.249
 331   1 H      0.043  0.957  0.000  0.000     2.412     2.428
 332   1 H      0.059  0.941  0.000  0.000     2.207     2.323
 333   1 H      0.077  0.923  0.000  0.000     2.007     2.215
 334   1 H      0.068  0.932  0.000  0.000     2.113     2.273
 335   1 H      0.062  0.938  0.000  0.000     2.179     2.308
 336   7 N     -0.175  1.240  3.936  0.000    24.794     7.395
 337   6 C      0.004  1.066  2.929  0.000    20.490     6.442
 338   6 C      0.279  1.042  2.679  0.000    22.280     7.730
 339   8 O     -0.479  1.736  4.743  0.000    23.326     6.475
 340   6 C     -0.040  1.067  2.973  0.000    21.248     6.556
 341   6 C     -0.078  1.053  3.025  0.000    21.996     6.677
 342   6 C     -0.129  1.041  3.088  0.000    23.031     6.841
 343   6 C     -0.134  1.040  3.094  0.000    23.128     6.858
 344   1 H      0.207  0.793  0.000  0.000     1.072     1.622
 345   1 H      0.110  0.890  0.000  0.000     1.697     2.037
 346   1 H      0.051  0.949  0.000  0.000     2.306     2.375
 347   1 H      0.074  0.926  0.000  0.000     2.045     2.237
 348   1 H      0.043  0.957  0.000  0.000     2.404     2.425
 349   1 H      0.055  0.945  0.000  0.000     2.261     2.351
 350   1 H      0.034  0.966  0.000  0.000     2.524     2.484
 351   1 H      0.072  0.928  0.000  0.000     2.067     2.248
 352   1 H      0.048  0.952  0.000  0.000     2.349     2.397
 353   1 H      0.052  0.948  0.000  0.000     2.289     2.366
 354   1 H      0.061  0.939  0.000  0.000     2.187     2.313
 355   7 N     -0.182  1.251  3.931  0.000    24.936     7.417
 356   6 C      0.056  1.053  2.891  0.000    19.642     6.309
 357   6 C      0.298  1.041  2.661  0.000    21.942     7.671
 358   8 O     -0.518  1.744  4.774  0.000    24.182     6.593
 359   6 C     -0.102  1.069  3.033  0.000    22.443     6.745
 360   6 C      0.375  1.021  2.604  0.000    20.649     7.436
 361   8 O     -0.639  1.774  4.864  0.000    27.096     6.979
 362   8 O     -0.640  1.770  4.870  0.000    27.123     6.983
 363   1 H      0.215  0.785  0.000  0.000     1.033     1.592
 364   1 H      0.036  0.964  0.000  0.000     2.498     2.472
 365   1 H      0.041  0.959  0.000  0.000     2.439     2.443
 366   1 H      0.042  0.958  0.000  0.000     2.420     2.433
 367   7 N     -0.200  1.253  3.946  0.000    25.339     7.476
 368   6 C      0.040  1.053  2.907  0.000    19.903     6.352
 369   6 C      0.271  1.045  2.684  0.000    22.425     7.756
 370   8 O     -0.528  1.740  4.788  0.000    24.422     6.626
 371   6 C     -0.085  1.054  3.031  0.000    22.104     6.692
 372   6 C      0.057  1.060  2.883  0.000    26.190     8.340
 373   7 N     -0.281  1.470  3.811  0.000    28.142     7.865
 374   6 C     -0.020  1.060  2.960  0.000    28.481     8.753
 375   6 C      0.082  1.061  2.857  0.000    25.917     8.327
 376   7 N     -0.101  1.243  3.858  0.000    23.214     7.156
 377   1 H      0.243  0.757  0.000  0.000     0.909     1.494
 378   1 H      0.036  0.964  0.000  0.000     2.506     2.475
 379   1 H      0.097  0.903  0.000  0.000     1.813     2.106
 380   1 H      0.070  0.930  0.000  0.000     2.083     2.257
 381   1 H      0.009  0.991  0.000  0.000     2.911     2.668
 382   1 H      0.067  0.933  0.000  0.000     2.115     2.274
 383   1 H      0.200  0.800  0.000  0.000     1.105     1.647
 384   7 N     -0.175  1.253  3.922  0.000    24.780     7.393
 385   6 C      0.022  1.065  2.913  0.000    20.190     6.396
 386   6 C      0.274  1.045  2.681  0.000    22.360     7.744
 387   8 O     -0.497  1.734  4.763  0.000    23.718     6.530
 388   6 C     -0.021  1.067  2.955  0.000    20.922     6.506
 389   6 C     -0.074  1.051  3.024  0.000    21.915     6.664
 390   6 C     -0.140  1.040  3.100  0.000    23.258     6.877
 391   6 C     -0.122  1.039  3.083  0.000    22.905     6.825
 392   1 H      0.259  0.741  0.000  0.000     0.850     1.444
 393   1 H      0.070  0.930  0.000  0.000     2.084     2.257
 394   1 H      0.051  0.949  0.000  0.000     2.302     2.373
 395   1 H      0.048  0.952  0.000  0.000     2.341     2.393
 396   1 H      0.030  0.970  0.000  0.000     2.584     2.514
 397   1 H      0.081  0.919  0.000  0.000     1.969     2.194
 398   1 H      0.052  0.948  0.000  0.000     2.299     2.371
 399   1 H      0.071  0.929  0.000  0.000     2.070     2.250
 400   1 H      0.045  0.955  0.000  0.000     2.384     2.414
 401   1 H      0.047  0.953  0.000  0.000     2.357     2.401
 402   1 H      0.063  0.937  0.000  0.000     2.165     2.301
 403   7 N     -0.196  1.250  3.946  0.000    25.254     7.464
 404   6 C      0.037  1.052  2.912  0.000    19.958     6.360
 405   6 C      0.270  1.041  2.689  0.000    22.439     7.759
 406   8 O     -0.507  1.733  4.774  0.000    23.935     6.559
 407   6 C     -0.058  1.056  3.002  0.000    21.588     6.611
 408   6 C     -0.012  1.052  2.960  0.000    20.747     6.479
 409   6 C     -0.119  1.040  3.079  0.000    22.828     6.812
 410   6 C     -0.145  1.043  3.102  0.000    23.340     6.888
 411   1 H      0.240  0.760  0.000  0.000     0.925     1.506
 412   1 H      0.068  0.932  0.000  0.000     2.110     2.272
 413   1 H      0.020  0.980  0.000  0.000     2.734     2.586
 414   1 H      0.044  0.956  0.000  0.000     2.398     2.422
 415   1 H      0.040  0.960  0.000  0.000     2.445     2.445
 416   1 H      0.044  0.956  0.000  0.000     2.396     2.421
 417   1 H      0.015  0.985  0.000  0.000     2.812     2.622
 418   1 H      0.051  0.949  0.000  0.000     2.309     2.376
 419   1 H      0.085  0.915  0.000  0.000     1.933     2.174
 420   1 H      0.031  0.969  0.000  0.000     2.576     2.510
 421   1 H      0.060  0.940  0.000  0.000     2.203     2.321
 422   7 N     -0.196  1.257  3.939  0.000    25.258     7.464
 423   6 C      0.036  1.055  2.910  0.000    19.978     6.364
 424   6 C      0.278  1.039  2.683  0.000    22.290     7.733
 425   8 O     -0.510  1.755  4.755  0.000    24.005     6.569
 426   6 C     -0.070  1.059  3.011  0.000    21.829     6.651
 427   6 C      0.001  1.053  2.946  0.000    20.530     6.445
 428   6 C     -0.113  1.045  3.068  0.000    22.712     6.795
 429   6 C     -0.095  1.036  3.059  0.000    22.369     6.744
 430   1 H      0.239  0.761  0.000  0.000     0.925     1.507
 431   1 H      0.062  0.938  0.000  0.000     2.172     2.305
 432   1 H      0.046  0.954  0.000  0.000     2.365     2.405
 433   1 H      0.050  0.950  0.000  0.000     2.325     2.384
 434   1 H      0.031  0.969  0.000  0.000     2.567     2.505
 435   1 H      0.041  0.959  0.000  0.000     2.442     2.444
 436   1 H      0.040  0.960  0.000  0.000     2.455     2.450
 437   1 H      0.043  0.957  0.000  0.000     2.411     2.428
 438   1 H      0.037  0.963  0.000  0.000     2.483     2.464
 439   1 H      0.032  0.968  0.000  0.000     2.561     2.502
 440   1 H      0.025  0.975  0.000  0.000     2.664     2.552
 441   7 N     -0.203  1.255  3.948  0.000    25.416     7.487
 442   6 C      0.038  1.058  2.904  0.000    19.915     6.349
 443   6 C      0.282  1.039  2.679  0.000    22.227     7.721
 444   8 O     -0.511  1.755  4.756  0.000    24.034     6.573
 445   6 C     -0.015  1.066  2.949  0.000    20.849     6.502
 446  16 S     -0.288  1.925  4.336  0.027   153.528    20.855
 447   1 H      0.233  0.767  0.000  0.000     0.950     1.527
 448   1 H      0.065  0.935  0.000  0.000     2.147     2.291
 449   1 H      0.067  0.933  0.000  0.000     2.121     2.278
 450   1 H      0.073  0.927  0.000  0.000     2.056     2.243
 451   1 H      0.193  0.807  0.000  0.000     1.133     1.665
 452   7 N     -0.209  1.264  3.946  0.000    25.557     7.508
 453   6 C      0.031  1.064  2.905  0.000    20.046     6.374
 454   6 C      0.293  1.038  2.669  0.000    22.036     7.687
 455   8 O     -0.512  1.749  4.763  0.000    24.048     6.575
 456   6 C     -0.015  1.060  2.956  0.000    20.810     6.488
 457   6 C     -0.127  1.038  3.088  0.000    22.977     6.833
 458   6 C     -0.126  1.043  3.083  0.000    22.962     6.831
 459   1 H      0.234  0.766  0.000  0.000     0.949     1.526
 460   1 H      0.059  0.941  0.000  0.000     2.216     2.328
 461   1 H      0.034  0.966  0.000  0.000     2.529     2.487
 462   1 H      0.078  0.922  0.000  0.000     2.004     2.214
 463   1 H      0.024  0.976  0.000  0.000     2.674     2.557
 464   1 H      0.043  0.957  0.000  0.000     2.413     2.429
 465   1 H      0.059  0.941  0.000  0.000     2.205     2.322
 466   1 H      0.052  0.948  0.000  0.000     2.300     2.372
 467   1 H      0.062  0.938  0.000  0.000     2.176     2.307
 468   7 N     -0.206  1.256  3.950  0.000    25.482     7.497
 469   6 C      0.045  1.054  2.901  0.000    19.821     6.340
 470   6 C      0.216  1.082  2.702  0.000    23.432     7.928
 471   8 O     -0.372  1.751  4.621  0.000    21.123     6.162
 472   6 C     -0.068  1.054  3.014  0.000    21.787     6.644
 473   6 C      0.009  1.082  2.909  0.000    27.826     8.652
 474   6 C     -0.040  1.080  2.959  0.000    28.990     8.830
 475   6 C     -0.038  1.079  2.959  0.000    28.941     8.822
 476   6 C     -0.032  1.081  2.952  0.000    28.805     8.801
 477   6 C     -0.032  1.081  2.951  0.000    28.806     8.801
 478   6 C     -0.035  1.080  2.955  0.000    28.874     8.812
 479   1 H      0.236  0.764  0.000  0.000     0.939     1.518
 480   1 H      0.077  0.923  0.000  0.000     2.015     2.220
 481   1 H      0.076  0.924  0.000  0.000     2.020     2.223
 482   1 H      0.050  0.950  0.000  0.000     2.316     2.380
 483   1 H      0.021  0.979  0.000  0.000     2.711     2.575
 484   1 H      0.041  0.959  0.000  0.000     2.440     2.443
 485   1 H      0.039  0.961  0.000  0.000     2.456     2.451
 486   1 H      0.051  0.949  0.000  0.000     2.312     2.378
 487   1 H      0.047  0.953  0.000  0.000     2.356     2.400
 488   7 N     -0.395  1.310  4.086  0.000    30.245     8.168
 489   6 C      0.043  1.056  2.901  0.000    19.858     6.346
 490   6 C      0.219  1.085  2.696  0.000    23.386     7.920
 491   8 O     -0.402  1.770  4.631  0.000    21.715     6.248
 492   6 C     -0.083  1.052  3.031  0.000    22.067     6.687
 493   6 C      0.059  1.064  2.877  0.000    26.011     8.296
 494   7 N     -0.313  1.491  3.822  0.000    28.964     7.980
 495   6 C     -0.033  1.061  2.972  0.000    28.787     8.800
 496   6 C      0.114  1.054  2.831  0.000    25.248     8.221
 497   7 N     -0.104  1.239  3.865  0.000    23.284     7.167
 498   1 H      0.173  0.827  0.000  0.000     1.258     1.757
 499   1 H      0.079  0.921  0.000  0.000     1.993     2.208
 500   1 H      0.084  0.916  0.000  0.000     1.942     2.179
 501   1 H      0.064  0.936  0.000  0.000     2.156     2.296
 502   1 H      0.053  0.947  0.000  0.000     2.288     2.365
 503   1 H      0.026  0.974  0.000  0.000     2.637     2.539
 504   1 H      0.172  0.828  0.000  0.000     1.260     1.759
 505   1 H      0.191  0.809  0.000  0.000     1.154     1.683
 506   1 H      0.083  0.917  0.000  0.000     1.946     2.181
 507   1 H      0.182  0.818  0.000  0.000     1.202     1.718
 508   1 H      0.072  0.928  0.000  0.000     2.068     2.249
 509   1 H      0.169  0.831  0.000  0.000     1.281     1.773
 510   1 H      0.086  0.914  0.000  0.000     1.921     2.167
 511   1 H      0.188  0.812  0.000  0.000     1.168     1.693
 512   1 H      0.074  0.926  0.000  0.000     2.038     2.232
 513   1 H      0.175  0.825  0.000  0.000     1.243     1.747
 514   1 H      0.056  0.944  0.000  0.000     2.244     2.342
 515   1 H      0.199  0.801  0.000  0.000     1.108     1.649
 516   1 H      0.050  0.950  0.000  0.000     2.320     2.382

 Mol. C6AA /au·bohr⁶  :    2522695.111111
 Mol. C8AA /au·bohr⁸  :   57010559.494193
 Mol. α(0) /au        :       2387.107558

 
molecular dipole:
                 x           y           z       tot (Debye)
 q only:      -80.563    -130.393     -26.208
   full:      -79.720    -127.184     -25.084     386.825
molecular quadrupole (traceless):
                xx          xy          yy          xz          yz          zz
 q only:     2435.838  -15071.537  -13941.910   -2453.409   -5613.944   11506.072
  q+dip:     2116.462  -14608.687  -13296.878   -2301.042   -5304.126   11180.415
   full:     2123.422  -14612.534  -13298.087   -2299.890   -5306.373   11174.665
speedup  1.00
cpu  time for grad   15.55 s
wall time for grad   15.56 s

SCC energy    :    -800.4985608
rep           :       9.7393507
ES            :       2.4917104
AES           :      -0.0871131
AXC           :       0.2695499
disp          :      -0.7696380
XB            :       0.0000000
fix           :       0.0000000
Gborn         :       0.0000000
Gsasa         :       0.0000000
Ghb           :       0.0000000
Gshift        :       0.0000000
Gsolv         :      -0.6969320     -437.33
Etot ala COSMO:    -800.4985608
grad norm     :       0.5446972
total E       :    -790.6722532
atomizationE  :     145.7345833    91449.83
(atE without considering molecular charge,
 total energy contains solvation terms)
H-L gap (eV)  :          1.4635

------------------------------------------------------------------------
 * finished run on 2019/03/14 at 15:08:36.736     
------------------------------------------------------------------------
 total:
 * wall-time:     0 d,  0 h,  0 min, 16.596 sec
 *  cpu-time:     0 d,  0 h,  0 min, 16.421 sec
 * ratio c/w:     0.989 speedup
 SCF:
 * wall-time:     0 d,  0 h,  0 min, 16.202 sec
 *  cpu-time:     0 d,  0 h,  0 min, 16.199 sec
 * ratio c/w:     1.000 speedup

