      -----------------------------------------------------------      
     |                   =====================                   |     
     |                           x T B                           |     
     |                   =====================                   |     
     |                         S. Grimme                         |     
     |          Mulliken Center for Theoretical Chemistry        |     
     |                    University of Bonn                     |     
     |                 Version 6.0.1 (SAW181210)                 |     
      -----------------------------------------------------------      

   This program is distributed in the hope that it will be useful,
   but WITHOUT ANY WARRANTY; without even the implied warranty of
   MERCHANTABILITY or FITNESS FOR A PARTICULAR PURPOSE.
   
   FOR NON-COMMERCIAL, ACADEMIA USE ONLY.
   
   Cite this work as:
   S. Grimme, C. Bannwarth, P. Shushkov, J. Comput. Theory Chem., 2017,
   13, 1989-2009.
   C. Bannwarth, S. Ehlert and S. Grimme., ChemRxiv, 2018, preprint.
   http://doi.org/10.26434/chemrxiv.7246238.v1
   
   for sTDA-xTB:
   S. Grimme and C. Bannwarth, J. Chem. Phys., 2016, 145, 054103.
   
   in the mass-spec context:
   V. Asgeirsson, C. Bauer and S. Grimme, Chem. Sci., 2017, 8, 4879.
   
   if GBSA is used:
   P. Shushkov, F. März and S. Grimme, unpublished.
   
   for ANC optimizer:
   S. Grimme, unpublished.
   Rational Function algorithm used in ANCopt:
   F. Eckert, P. Pulay, H.-J. Werner, J. Comput. Chem., 1997, 18, 1473.
   
   with help from (in alphabetical order)
   C. Bannwarth, F. Bohle, G. Brandenburg, E. Caldeweyher, M. Checinski,
   S. Dohm, S. Ehlert, S. Ehrlich, F. März, H. Neugebauer, J. Pisarek,
   P. Pracht, P. Shushkov, and S. Spicher.
   
 * started run on 2019/03/14 at 15:08:18.369     
========================================================================
 # omp threads = 1
========================================================================
number of atoms            : 309
number of electrons        : 848
charge                     : -1
spin                       : .0
first test random number   : .2710
           ------------------------------------------------- 
          |                 G F N 2 - x T B                 |
          | Geometry, Frequencies, Noncovalent interactions |
          |            JCTC 2018 parametrisation            |
           ------------------------------------------------- 
 
      method parameters     
 k(s)        :  1.8500
 k(p)        :  2.2300
 k(d)        :  2.2300
 k(f)        :  2.0000
 kEN (H0ij)  : -2.0000
 D4 a1       :  0.5200
 D4 a2       :  5.0000
 D4 s6       :  1.0000
 D4 s8       :  2.7000
 D4 s9       :  5.0000
 alphaj      :  2.0000

 Solvent             : h2o
 Using internal parameter file: .param_gbsa2_h2o
 Gsolv ref. state (COSMO-RS): gsolv [1 M gas/solution]
 temperature (mdtemp)       :    298.150000000000     
 dielectric constant        :    80.2000000000000     
 rho                        :    1.00000000000000     
 mass                       :    18.0000000000000     
 surface tension            :    15.5689454083859     
 probe radius               :   0.975313790000000     
 vdW radii scaling          :    1.00000000000000     
 Gshift (Eh)                :   1.857443126794793E-003
 c1                         :    1.55243817000000     
 soset                      :   0.130326360000000     
 HB correction              :  T

            Z     q(EN)     CN     RAES       Cart. coordinates
     1  N   5.0   -0.22    3.20    1.96    94.59697    31.53401    91.90273
     2  C   4.0    0.02    4.27    4.15    94.22266    29.90298    89.70731
     3  C   4.0    0.14    3.39    3.07    92.12063    30.93692    87.98730
     4  O   6.0   -0.31    1.24    1.80    92.36988    30.92827    85.69302
     5  C   4.0   -0.05    4.23    4.07    93.89147    27.12931    90.49817
     6  C   4.0   -0.05    4.17    3.94    91.39131    26.48432    91.79775
     7  C   4.0   -0.06    4.16    3.91    91.28885    23.70391    92.61588
     8  C   4.0   -0.05    4.10    3.80    92.59134    23.17379    95.14356
     9  N   5.0   -0.13    4.00    2.87    90.71707    23.03482    97.26199
    10  H   1.0    0.07    1.02    1.43    95.24166    30.71340    93.50629
    11  H   1.0    0.04    1.06    1.44    95.91915    30.00084    88.50922
    12  H   1.0    0.04    1.03    1.43    94.00661    25.99901    88.77718
    13  H   1.0    0.03    1.03    1.43    95.51441    26.63366    91.67196
    14  H   1.0    0.04    1.02    1.43    91.01360    27.73218    93.38707
    15  H   1.0    0.04    1.05    1.44    89.90992    26.78796    90.41598
    16  H   1.0    0.03    1.03    1.43    89.31888    23.11487    92.71416
    17  H   1.0    0.03    1.03    1.43    92.15451    22.57593    91.13043
    18  H   1.0    0.03    1.02    1.43    93.61717    21.39235    95.06991
    19  H   1.0    0.03    1.02    1.43    93.92236    24.68135    95.57978
    20  H   1.0    0.05    1.02    1.43    91.61058    23.28800    98.97678
    21  H   1.0    0.05    1.02    1.43    89.34870    24.40868    97.03845
    22  H   1.0    0.05    1.02    1.43    89.83064    21.29994    97.30895
    23  N   5.0   -0.15    3.47    2.06    90.01103    31.82489    89.09333
    24  C   4.0    0.04    4.35    4.29    87.92621    32.74875    87.55948
    25  C   4.0    0.08    3.21    3.04    88.62230    35.11032    86.03348
    26  O   6.0   -0.30    1.11    1.80    87.59741    35.62004    84.02117
    27  C   4.0   -0.04    4.31    4.22    85.63582    33.30632    89.24158
    28  C   4.0   -0.02    3.54    3.13    84.73674    31.06415    90.76785
    29  C   4.0   -0.05    3.46    3.10    82.97435    31.44004    92.69135
    30  C   4.0   -0.05    3.51    3.12    85.60480    28.62592    90.35495
    31  C   4.0   -0.04    3.43    3.09    82.21489    29.47977    94.23471
    32  C   4.0   -0.06    3.45    3.10    84.91180    26.65841    91.93618
    33  C   4.0    0.06    3.45    3.10    83.23520    27.07636    93.90764
    34  O   6.0   -0.25    2.11    1.84    82.57688    25.21136    95.54176
    35  H   1.0    0.08    1.06    1.44    89.86011    32.02523    90.98641
    36  H   1.0    0.06    1.05    1.44    87.44994    31.31853    86.13057
    37  H   1.0    0.04    1.03    1.43    86.12930    34.84459    90.53579
    38  H   1.0    0.05    1.03    1.43    84.10149    33.99923    88.04459
    39  H   1.0    0.05    1.03    1.43    82.15318    33.28863    92.96814
    40  H   1.0    0.05    1.04    1.43    86.81355    28.21548    88.76792
    41  H   1.0    0.05    1.03    1.43    80.82206    29.76578    95.69558
    42  H   1.0    0.04    1.03    1.43    85.62733    24.77942    91.58943
    43  H   1.0    0.11    1.04    1.43    83.16363    23.60114    94.90321
    44  N   5.0   -0.20    3.25    1.97    91.64923    34.20739    79.57048
    45  C   4.0    0.03    4.26    4.12    89.95147    33.66199    77.48362
    46  C   4.0    0.08    3.21    3.04    89.23618    36.11673    76.16149
    47  O   6.0   -0.29    1.11    1.80    89.20970    36.33951    73.85983
    48  C   4.0   -0.03    4.31    4.22    87.61264    32.21218    78.35128
    49  C   4.0   -0.01    3.56    3.14    88.26373    29.92086    79.92254
    50  C   4.0   -0.04    3.47    3.10    86.38596    28.88047    81.43876
    51  C   4.0   -0.03    3.51    3.12    90.65913    28.83922    79.96750
    52  C   4.0   -0.05    3.37    3.07    86.91471    26.89083    83.04760
    53  C   4.0   -0.03    3.38    3.07    91.19400    26.85879    81.59083
    54  C   4.0   -0.04    3.37    3.07    89.33678    25.90442    83.16030
    55  H   1.0    0.11    1.03    1.43    91.06376    33.72748    81.32174
    56  H   1.0    0.05    1.06    1.44    90.95943    32.52363    76.08162
    57  H   1.0    0.06    1.03    1.43    86.37847    33.44648    79.45866
    58  H   1.0    0.05    1.03    1.43    86.56187    31.65744    76.65850
    59  H   1.0    0.05    1.03    1.43    84.48926    29.63042    81.34070
    60  H   1.0    0.05    1.04    1.43    92.14404    29.51126    78.74110
    61  H   1.0    0.04    1.03    1.43    85.42126    26.12923    84.20861
    62  H   1.0    0.05    1.03    1.43    93.07789    26.07404    81.61860
    63  H   1.0    0.04    1.03    1.43    89.76543    24.37425    84.43543
    64  N   5.0   -0.23    3.23    1.96    77.31559    24.00523    63.40093
    65  C   4.0    0.03    4.36    4.31    76.23447    21.72940    64.47422
    66  C   4.0    0.14    3.46    3.10    77.88919    20.73923    66.61903
    67  O   6.0   -0.33    1.35    1.80    76.91476    19.66148    68.42454
    68  C   4.0    0.05    4.21    4.03    75.73549    19.65085    62.46783
    69  O   6.0   -0.26    2.10    1.84    73.26233    18.72154    62.89285
    70  C   4.0   -0.08    4.11    3.81    77.69673    17.53442    62.52122
    71  H   1.0    0.07    1.02    1.43    77.66016    23.99031    61.51439
    72  H   1.0    0.05    1.06    1.44    74.38815    22.16097    65.32296
    73  H   1.0    0.03    1.04    1.44    75.79052    20.57327    60.61848
    74  H   1.0    0.11    1.03    1.43    72.94119    17.37121    61.70631
    75  H   1.0    0.03    1.00    1.43    77.36109    16.20241    60.99126
    76  H   1.0    0.03    1.01    1.43    79.55779    18.35895    62.29157
    77  H   1.0    0.05    1.00    1.43    77.61418    16.52581    64.30969
    78  N   5.0   -0.15    3.53    2.10    80.36618    21.08503    66.37439
    79  C   4.0    0.03    4.50    4.54    82.22205    20.21836    68.18041
    80  C   4.0    0.15    3.47    3.10    82.21904    21.91437    70.50470
    81  O   6.0   -0.33    1.34    1.80    82.60781    21.02862    72.61005
    82  C   4.0   -0.03    4.27    4.14    84.89633    20.16656    67.02714
    83  C   4.0   -0.07    4.14    3.88    86.85273    19.50421    69.04158
    84  C   4.0   -0.09    4.12    3.84    85.04133    18.25061    64.88177
    85  H   1.0    0.07    1.08    1.44    81.04135    21.95881    64.80716
    86  H   1.0    0.05    1.05    1.44    81.72125    18.31450    68.83882
    87  H   1.0    0.04    1.05    1.44    85.28592    22.05824    66.28344
    88  H   1.0    0.03    1.00    1.43    88.72575    19.40656    68.20632
    89  H   1.0    0.05    1.00    1.43    86.88534    20.89263    70.55227
    90  H   1.0    0.04    1.00    1.43    86.41134    17.67549    69.86766
    91  H   1.0    0.03    1.00    1.43    86.95481    18.19887    64.13925
    92  H   1.0    0.03    1.00    1.43    84.54826    16.37666    65.55754
    93  H   1.0    0.03    1.00    1.43    83.76129    18.76885    63.37124
    94  N   5.0   -0.15    3.52    2.09    81.79924    24.35719    70.07121
    95  C   4.0    0.03    4.39    4.36    81.73371    26.22406    72.07036
    96  C   4.0    0.15    3.43    3.09    79.21991    26.05646    73.48586
    97  O   6.0   -0.32    1.27    1.80    79.10999    26.28185    75.79218
    98  C   4.0    0.03    4.16    3.91    82.06315    28.89442    70.96880
    99  O   6.0   -0.25    2.04    1.83    84.44562    29.28048    69.89731
   100  H   1.0    0.07    1.07    1.44    81.72536    24.98703    68.25772
   101  H   1.0    0.06    1.05    1.44    83.24633    25.83516    73.43396
   102  H   1.0    0.04    1.01    1.43    80.54624    29.21188    69.58738
   103  H   1.0    0.05    1.02    1.43    81.87388    30.27577    72.49241
   104  H   1.0    0.11    1.02    1.43    84.58201    28.23067    68.39654
   105  N   5.0   -0.15    3.53    2.10    77.23488    25.66988    71.99992
   106  C   4.0    0.03    4.51    4.55    74.73755    25.17171    72.97180
   107  C   4.0    0.16    3.51    3.12    74.75264    22.61382    74.29773
   108  O   6.0   -0.33    1.38    1.80    73.63384    22.42590    76.31626
   109  C   4.0   -0.03    4.26    4.12    72.68992    25.30075    70.91724
   110  C   4.0   -0.07    4.15    3.89    70.22854    24.16142    71.89722
   111  C   4.0   -0.08    4.11    3.82    72.25225    28.03025    70.10509
   112  H   1.0    0.07    1.07    1.44    77.43163    25.61766    70.09248
   113  H   1.0    0.06    1.06    1.44    74.31697    26.54981    74.46948
   114  H   1.0    0.04    1.05    1.44    73.35549    24.20554    69.29582
   115  H   1.0    0.03    1.00    1.43    68.73992    24.41935    70.50870
   116  H   1.0    0.05    1.00    1.43    70.44798    22.15489    72.26596
   117  H   1.0    0.04    1.00    1.43    69.67690    25.09732    73.64010
   118  H   1.0    0.03    1.00    1.43    70.79411    28.10247    68.66094
   119  H   1.0    0.04    1.00    1.43    71.63927    29.15282    71.71197
   120  H   1.0    0.04    1.00    1.43    73.97479    28.83397    69.33750
   121  N   5.0   -0.14    3.52    2.09    76.04549    20.72826    73.24064
   122  C   4.0    0.03    4.42    4.41    76.47665    18.36414    74.58924
   123  C   4.0    0.16    3.59    3.16    77.83808    19.04104    77.02476
   124  O   6.0   -0.32    1.49    1.80    76.82768    18.57852    79.06582
   125  C   4.0   -0.03    4.32    4.24    77.89613    16.49672    72.89795
   126  C   4.0   -0.02    3.53    3.13    79.26813    14.29426    74.09068
   127  C   4.0   -0.05    3.49    3.11    80.90296    12.93573    72.53380
   128  C   4.0   -0.04    3.48    3.11    79.11807    13.59607    76.60878
   129  C   4.0   -0.05    3.38    3.07    82.46151    11.07976    73.49685
   130  C   4.0   -0.05    3.39    3.07    80.72338    11.76403    77.58822
   131  C   4.0   -0.05    3.36    3.07    82.43337    10.52545    76.05247
   132  H   1.0    0.12    1.15    1.45    76.49165    20.69095    71.36228
   133  H   1.0    0.05    1.06    1.44    74.67275    17.55216    75.20712
   134  H   1.0    0.05    1.03    1.43    76.54339    15.79500    71.50508
   135  H   1.0    0.06    1.05    1.44    79.35207    17.55384    71.89580
   136  H   1.0    0.04    1.03    1.43    80.94742    13.31578    70.52962
   137  H   1.0    0.06    1.05    1.44    77.72984    14.46662    77.81566
   138  H   1.0    0.04    1.03    1.43    83.74110    10.10208    72.25025
   139  H   1.0    0.04    1.04    1.43    80.66543    11.33684    79.57527
   140  H   1.0    0.04    1.03    1.43    83.71575     9.12528    76.80616
   141  N   5.0   -0.14    3.54    2.11    80.04911    20.18932    76.88360
   142  C   4.0    0.03    4.37    4.33    81.41044    20.75451    79.19155
   143  C   4.0    0.17    3.56    3.14    79.47532    21.70425    81.13059
   144  O   6.0   -0.32    1.30    1.80    79.27863    20.74257    83.22582
   145  C   4.0   -0.07    4.11    3.82    83.47133    22.67145    78.60463
   146  H   1.0    0.12    1.15    1.45    80.96118    20.58654    75.23530
   147  H   1.0    0.05    1.05    1.44    82.20098    18.98473    79.94818
   148  H   1.0    0.04    1.00    1.43    84.62236    23.03738    80.25977
   149  H   1.0    0.05    1.00    1.43    84.67685    21.96776    77.09489
   150  H   1.0    0.06    1.01    1.43    82.60495    24.42924    77.99429
   151  N   5.0   -0.13    3.42    2.03    78.06802    23.66085    80.36145
   152  C   4.0    0.03    4.25    4.10    76.04827    24.64950    81.90861
   153  C   4.0    0.17    3.33    3.06    74.25052    22.58762    82.88215
   154  O   6.0   -0.31    1.34    1.80    73.86787    22.40493    85.16822
   155  H   1.0    0.12    1.10    1.44    78.32410    24.45229    78.63163
   156  H   1.0    0.06    1.02    1.43    76.80415    25.62339    83.57962
   157  H   1.0    0.05    1.03    1.43    74.94733    25.98843    80.80045
   158  N   5.0   -0.13    3.50    2.08    73.18881    21.12807    81.13371
   159  C   4.0    0.04    4.39    4.36    71.34727    19.12978    81.50349
   160  C   4.0    0.15    3.46    3.10    72.20695    16.99358    83.24525
   161  O   6.0   -0.32    1.32    1.80    70.63056    15.81900    84.49608
   162  C   4.0   -0.04    4.32    4.23    70.72639    17.79817    78.99387
   163  C   4.0   -0.05    4.16    3.92    68.88898    19.18674    77.25167
   164  C   4.0   -0.01    4.18    3.97    66.20796    19.39585    78.31590
   165  N   5.0   -0.14    3.41    2.03    65.24134    16.92060    79.01637
   166  C   4.0    0.10    3.33    3.06    63.96750    16.27849    81.08112
   167  N   5.0   -0.18    3.25    1.97    63.06096    17.98841    82.69137
   168  N   5.0   -0.18    3.25    1.97    63.34659    13.85917    81.42971
   169  H   1.0    0.13    1.17    1.46    73.61712    21.46909    79.28152
   170  H   1.0    0.05    1.05    1.44    69.62446    19.90034    82.35317
   171  H   1.0    0.06    1.04    1.43    72.52177    17.54025    78.02806
   172  H   1.0    0.05    1.04    1.43    69.98771    15.93094    79.45924
   173  H   1.0    0.06    1.04    1.43    69.61310    21.08191    76.90813
   174  H   1.0    0.04    1.03    1.43    68.83366    18.18071    75.45276
   175  H   1.0    0.04    1.03    1.43    66.23533    20.63633    79.95916
   176  H   1.0    0.04    1.02    1.43    64.96212    20.22573    76.88997
   177  H   1.0    0.07    1.07    1.44    65.65299    15.52659    77.77041
   178  H   1.0    0.08    1.03    1.43    63.56358    19.81423    82.52540
   179  H   1.0    0.11    1.03    1.43    62.53991    17.44015    84.45114
   180  H   1.0    0.08    1.03    1.43    64.14805    12.48583    80.38801
   181  H   1.0    0.09    1.03    1.43    62.52248    13.36049    83.07608
   182  N   5.0   -0.14    3.55    2.12    74.61609    16.32703    83.05965
   183  C   4.0    0.03    4.41    4.40    75.74209    14.33180    84.55929
   184  C   4.0    0.15    3.56    3.14    76.21676    15.37093    87.19935
   185  O   6.0   -0.33    1.32    1.80    75.61097    14.22414    89.12272
   186  C   4.0   -0.05    4.34    4.28    78.21241    13.47438    83.30472
   187  C   4.0   -0.02    4.20    3.99    80.15139    12.28549    85.11809
   188  C   4.0   -0.08    4.10    3.81    79.53966     9.50958    85.58886
   189  C   4.0   -0.08    4.09    3.78    82.86507    12.55903    84.15397
   190  H   1.0    0.12    1.14    1.45    75.76807    17.32899    81.89143
   191  H   1.0    0.05    1.05    1.44    74.33213    12.82580    84.77234
   192  H   1.0    0.04    1.03    1.43    77.73364    12.14590    81.80839
   193  H   1.0    0.05    1.04    1.43    79.05770    15.15411    82.45540
   194  H   1.0    0.05    1.08    1.44    80.03446    13.29359    86.91868
   195  H   1.0    0.03    1.00    1.43    80.81181     8.70946    86.98838
   196  H   1.0    0.04    1.00    1.43    77.61964     9.33484    86.29058
   197  H   1.0    0.03    1.00    1.43    79.70456     8.41822    83.85561
   198  H   1.0    0.03    1.00    1.43    84.15730    12.28207    85.72410
   199  H   1.0    0.03    1.00    1.43    83.30095    11.14905    82.72697
   200  H   1.0    0.04    1.00    1.43    83.18172    14.42652    83.36085
   201  N   5.0   -0.15    3.59    2.15    77.38061    17.60151    87.23613
   202  C   4.0    0.04    4.55    4.61    77.50718    19.00683    89.56509
   203  C   4.0    0.16    3.48    3.11    74.84001    19.23056    90.67995
   204  O   6.0   -0.32    1.31    1.80    74.55648    19.02139    92.97914
   205  C   4.0   -0.02    4.33    4.26    78.94246    21.47631    89.07553
   206  C   4.0   -0.05    4.21    4.01    81.74816    20.78121    88.79286
   207  C   4.0   -0.06    4.12    3.83    78.44505    23.38960    91.16582
   208  C   4.0   -0.08    4.01    3.64    83.29799    22.77163    87.41148
   209  H   1.0    0.11    1.11    1.44    77.78944    18.55706    85.62167
   210  H   1.0    0.05    1.06    1.44    78.56239    17.89072    90.96951
   211  H   1.0    0.07    1.06    1.44    78.23853    22.25784    87.29905
   212  H   1.0    0.03    1.03    1.43    82.51069    20.41616    90.67239
   213  H   1.0    0.04    1.04    1.43    81.85242    19.03610    87.70221
   214  H   1.0    0.05    1.00    1.43    79.59697    25.06878    90.90617
   215  H   1.0    0.06    1.00    1.43    76.46635    23.96394    91.13144
   216  H   1.0    0.05    1.00    1.43    78.80715    22.57269    93.01564
   217  H   1.0    0.03    1.00    1.43    85.29443    22.29269    87.49805
   218  H   1.0    0.05    1.01    1.43    82.71587    22.80917    85.44578
   219  H   1.0    0.04    1.01    1.43    82.98726    24.63304    88.21213
   220  N   5.0   -0.13    3.56    2.12    72.95965    19.40050    89.00703
   221  C   4.0    0.04    4.42    4.42    70.32646    19.61858    89.74130
   222  C   4.0    0.16    3.50    3.11    69.52254    17.08985    90.86472
   223  O   6.0   -0.31    1.39    1.80    68.59137    16.99027    92.98842
   224  C   4.0   -0.03    4.25    4.11    68.62931    20.43414    87.54145
   225  C   4.0   -0.03    4.16    3.93    67.08348    22.78217    88.19743
   226  C   4.0    0.26    3.10    3.02    68.81885    25.17708    88.22164
   227  O   6.0   -0.28    1.16    1.80    70.10735    25.59370    90.14540
   228  O   6.0   -0.28    1.16    1.80    68.77934    26.48652    86.25778
   229  H   1.0    0.12    1.17    1.46    73.37579    20.22088    87.30804
   230  H   1.0    0.07    1.06    1.44    70.12864    21.02778    91.25269
   231  H   1.0    0.07    1.05    1.44    69.84618    20.91759    85.95590
   232  H   1.0    0.06    1.02    1.43    67.37307    18.88527    86.99224
   233  H   1.0    0.05    1.02    1.43    65.62142    23.09367    86.77360
   234  H   1.0    0.06    1.02    1.43    66.17602    22.55631    90.03837
   235  N   5.0   -0.13    3.55    2.11    70.06011    15.03331    89.52350
   236  C   4.0    0.04    4.41    4.40    69.56268    12.52348    90.53119
   237  C   4.0    0.16    3.56    3.14    70.43028    12.49588    93.28297
   238  O   6.0   -0.30    1.23    1.80    69.13817    11.66531    95.02074
   239  C   4.0   -0.04    4.34    4.27    70.96831    10.58275    88.88497
   240  C   4.0   -0.02    4.19    3.97    71.84462     8.15064    90.22444
   241  C   4.0   -0.08    4.11    3.82    71.55067     5.88104    88.46116
   242  C   4.0   -0.07    4.12    3.84    74.61371     8.31597    91.02208
   243  H   1.0    0.12    1.13    1.45    70.48643    15.19857    87.64643
   244  H   1.0    0.07    1.05    1.44    67.51597    12.15201    90.57122
   245  H   1.0    0.04    1.03    1.43    69.70041    10.10033    87.33544
   246  H   1.0    0.06    1.05    1.44    72.62980    11.53417    88.13254
   247  H   1.0    0.05    1.06    1.44    70.66254     7.88792    91.90273
   248  H   1.0    0.03    1.00    1.43    72.28234     4.19013    89.36717
   249  H   1.0    0.04    1.00    1.43    69.57357     5.58524    88.00236
   250  H   1.0    0.03    1.00    1.43    72.61395     6.20116    86.73214
   251  H   1.0    0.04    1.00    1.43    75.16064     6.62736    92.05333
   252  H   1.0    0.04    1.01    1.43    75.79992     8.49833    89.35954
   253  H   1.0    0.05    1.02    1.43    74.93786     9.94578    92.21057
   254  N   5.0   -0.14    3.58    2.14    72.80028    13.31682    93.60993
   255  C   4.0    0.05    4.41    4.40    73.99278    13.23956    96.05826
   256  C   4.0    0.17    3.41    3.08    72.56987    14.91914    97.96017
   257  O   6.0   -0.27    1.20    1.80    72.05395    14.17114   100.08775
   258  C   4.0    0.03    4.15    3.90    76.77418    13.98953    95.77762
   259  O   6.0   -0.25    2.05    1.83    78.06192    13.46963    98.03661
   260  H   1.0    0.11    1.11    1.45    73.77065    14.00923    92.10591
   261  H   1.0    0.06    1.05    1.44    73.85524    11.31066    96.82593
   262  H   1.0    0.04    1.01    1.43    77.56740    12.87407    94.21172
   263  H   1.0    0.06    1.01    1.43    76.86936    16.00887    95.30737
   264  H   1.0    0.11    1.02    1.43    79.84974    13.75431    97.76066
   265  N   5.0   -0.13    3.54    2.11    72.03096    17.21060    97.05939
   266  C   4.0    0.04    4.40    4.38    70.73748    19.20625    98.39089
   267  C   4.0    0.17    3.42    3.08    68.05027    18.53874    99.25041
   268  O   6.0   -0.27    1.21    1.80    67.10127    19.59587   101.08335
   269  C   4.0   -0.03    4.31    4.22    70.49856    21.49991    96.62431
   270  C   4.0   -0.03    4.22    4.04    70.00605    23.97329    98.01923
   271  C   4.0    0.16    3.21    3.04    67.90430    25.52837    96.81517
   272  O   6.0   -0.28    1.21    1.80    66.26080    24.63740    95.46011
   273  N   5.0   -0.18    3.18    1.95    67.92368    27.97674    97.49273
   274  H   1.0    0.12    1.14    1.45    72.56169    17.64043    95.26247
   275  H   1.0    0.06    1.05    1.44    71.80545    19.68777   100.10661
   276  H   1.0    0.06    1.03    1.43    72.20370    21.63318    95.47565
   277  H   1.0    0.07    1.04    1.43    68.92040    21.14068    95.33712
   278  H   1.0    0.06    1.04    1.43    69.33587    23.52354    99.92039
   279  H   1.0    0.04    1.03    1.43    71.72775    25.09222    98.14336
   280  H   1.0    0.08    1.03    1.43    69.30873    28.67954    98.58330
   281  H   1.0    0.10    1.03    1.43    66.57904    29.13992    96.80867
   282  N   5.0   -0.13    3.56    2.13    66.85842    16.91812    97.74180
   283  C   4.0    0.04    4.39    4.37    64.28600    16.07943    98.02995
   284  C   4.0    0.17    3.44    3.09    64.10794    14.08036   100.12219
   285  O   6.0   -0.28    1.21    1.80    62.20793    13.86747   101.44109
   286  C   4.0   -0.03    4.28    4.17    63.34066    14.84947    95.57498
   287  C   4.0   -0.02    4.14    3.88    62.74460    16.68570    93.43429
   288  C   4.0    0.25    3.08    3.02    62.89126    15.44325    90.75159
   289  O   6.0   -0.30    1.19    1.80    63.17666    13.11404    90.60268
   290  O   6.0   -0.30    1.16    1.80    62.69607    16.89153    88.89278
   291  H   1.0    0.12    1.15    1.45    67.74337    16.36585    96.14270
   292  H   1.0    0.06    1.05    1.44    63.09078    17.68841    98.58043
   293  H   1.0    0.08    1.04    1.43    64.80068    13.54035    94.92543
   294  H   1.0    0.05    1.03    1.43    61.66482    13.72825    96.01815
   295  H   1.0    0.05    1.02    1.43    60.85925    17.49662    93.66747
   296  H   1.0    0.07    1.03    1.43    64.09831    18.24449    93.43507
   297  N   5.0   -0.12    3.40    2.02    66.05043    12.47408   100.15978
   298  C   4.0    0.03    4.20    4.00    66.38608    10.65509   102.14446
   299  C   4.0    0.27    3.07    3.02    67.45208    11.80685   104.67925
   300  O   6.0   -0.28    1.16    1.80    67.64148    10.24511   106.43141
   301  O   6.0   -0.25    1.17    1.80    67.96649    14.08821   104.73062
   302  H   1.0    0.11    1.09    1.44    67.62286    12.99087    99.20846
   303  H   1.0    0.06    1.03    1.43    64.55240     9.82881   102.60800
   304  H   1.0    0.05    1.02    1.43    67.68155     9.18861   101.50081
   305  H   1.0    0.09    1.07    1.44    95.73296    32.74217    91.52531
   306  H   1.0    0.05    1.05    1.44    89.95087    36.29163    86.67416
   307  H   1.0    0.09    1.07    1.44    93.11612    33.37796    79.34061
   308  H   1.0    0.06    1.05    1.44    88.76129    37.63537    77.18093
   309  H   1.0    0.09    1.07    1.44    76.26224    25.31390    63.66621

  Z AO/shell   Hii/eV     exponent
  1     Wed Apr 25 08:07:45 CEST 2018   EN: 2.200 GM2: 0.406  GM3: 0.0800  RAES: 1.40
     1s    -10.707211    1.230000
  6     Wed Apr 25 08:07:45 CEST 2018   EN: 2.550 GM2: 0.538  GM3: 0.1500  RAES: 3.00
     2s    -13.970922    2.096432
     2p    -10.063292    1.800000
  7     Wed Apr 25 08:07:45 CEST 2018   EN: 3.040 GM2: 0.461  GM3:-0.0640  RAES: 1.90
     2s    -16.686243    2.339881
     2p    -12.523956    2.014332
  8     Wed Apr 25 08:07:45 CEST 2018   EN: 3.440 GM2: 0.452  GM3:-0.0517  RAES: 1.80
     2s    -20.229985    2.439742
     2p    -15.503117    2.137023
 no old-style atom pair restraining (fixing) potential

molecular fragmentation (1/2 indicates fragments):
111111111111111111111111111111111111111111122222222222222222222222222222
222222222222222222222222222222222222222222222222222222222222222222222222
222222222222222222222222222222222222222222222222222222222222222222222222
222222222222222222222222222222222222222222222222222222222222222222222222
222222222222222211222
# atoms in fragment 1/2:    45   264
 fragment masses (1/2) :      294.37     1853.10
CMA distance (Bohr)    :  18.222
constraining FC (au)   :  0.0500
           ------------------------------------------------- 
          |        Self-Consistent Charge Iterations        |
           ------------------------------------------------- 

 Ncao       : 765
 Nao        : 765
 Nshell     : 461
 Nel        : 848
 T(el)      :   500.0
 intcut     :    35.0
 scfconv/Eh :  0.100E-06
   qconv/e  :  0.100E-04
 intneglect :  0.100E-08
 broydamp   :      0.400
 iter      E             dE          RMSdq      gap      omega  full diag
   1   -485.5593411 -0.485559E+03  0.460E+00    3.24       0.0  T
   2   -486.6481467 -0.108881E+01  0.219E+00    2.28       1.0  T
   3   -486.7086953 -0.605487E-01  0.119E+00    2.44       1.0  T
   4   -486.7825460 -0.738507E-01  0.251E-01    1.53       1.0  T
   5   -486.7868655 -0.431943E-02  0.124E-01    1.68       1.0  T
   6   -486.7874415 -0.575995E-03  0.566E-02    1.69       1.0  T
   7   -486.7877537 -0.312257E-03  0.241E-02    1.71       1.0  T
   8   -486.7877852 -0.314688E-04  0.117E-02    1.73       1.0  T
   9   -486.7877938 -0.856266E-05  0.511E-03    1.74       1.1  T
  10   -486.7877953 -0.153423E-05  0.246E-03    1.74       2.3  T
  11   -486.7877957 -0.445067E-06  0.102E-03    1.74       5.6  T
  12   -486.7877958 -0.740924E-07  0.475E-04    1.74      12.0  T
  13   -486.7877958 -0.188276E-07  0.234E-04    1.74      24.3  T
  14   -486.7877958 -0.344016E-08  0.965E-05    1.74      58.9  T
  15   -486.7877958 -0.681950E-09  0.425E-05    1.74     134.0  T
speedup  1.00
cpu  time for SCC    4.54 s
wall time for SCC    4.55 s

   *** convergence criteria satisfied after 15 iterations ***

          eigenvalues
 #    :         412        413        414        415        416        417        418        419
 occ. :        2.000      2.000      2.000      2.000      2.000      2.000      2.000      2.000
 eps  :       -10.618    -10.613    -10.566    -10.525    -10.367    -10.343    -10.231    -10.200
 #    :         420        421        422        423        424        425        426        427
 occ. :        2.000      2.000      2.000      2.000      2.000      0.000      0.000      0.000
 eps  :        -9.944     -9.912     -9.878     -9.653     -9.540     -7.802     -7.588     -6.943
 #    :         428        429        430        431        432        433        434        435
 occ. :        0.000      0.000      0.000      0.000      0.000      0.000      0.000      0.000
 eps  :        -6.819     -6.664     -6.571     -6.536     -6.364     -6.323     -6.275     -6.210


   #   Z            q   n(s)   n(p)   n(d)      C6AA      α(0)
   1   7 N     -0.397  1.315  4.082  0.000    30.301     8.175
   2   6 C      0.029  1.061  2.910  0.000    20.099     6.386
   3   6 C      0.269  1.050  2.681  0.000    22.453     7.759
   4   8 O     -0.500  1.757  4.744  0.000    23.790     6.539
   5   6 C     -0.075  1.058  3.017  0.000    21.935     6.668
   6   6 C     -0.090  1.053  3.037  0.000    22.217     6.711
   7   6 C     -0.095  1.054  3.041  0.000    22.305     6.724
   8   6 C     -0.051  1.061  2.990  0.000    21.586     6.633
   9   7 N     -0.146  1.231  3.915  0.000    24.142     7.298
  10   1 H      0.177  0.823  0.000  0.000     1.232     1.739
  11   1 H      0.026  0.974  0.000  0.000     2.649     2.545
  12   1 H      0.048  0.952  0.000  0.000     2.345     2.395
  13   1 H      0.064  0.936  0.000  0.000     2.156     2.296
  14   1 H      0.067  0.933  0.000  0.000     2.121     2.278
  15   1 H      0.057  0.943  0.000  0.000     2.237     2.339
  16   1 H      0.078  0.922  0.000  0.000     1.997     2.210
  17   1 H      0.084  0.916  0.000  0.000     1.942     2.179
  18   1 H      0.120  0.880  0.000  0.000     1.610     1.984
  19   1 H      0.120  0.880  0.000  0.000     1.612     1.985
  20   1 H      0.300  0.700  0.000  0.000     0.713     1.323
  21   1 H      0.287  0.713  0.000  0.000     0.752     1.359
  22   1 H      0.294  0.706  0.000  0.000     0.731     1.339
  23   7 N     -0.171  1.241  3.930  0.000    24.705     7.382
  24   6 C      0.029  1.057  2.914  0.000    20.088     6.383
  25   6 C      0.203  1.086  2.712  0.000    23.691     7.971
  26   8 O     -0.371  1.759  4.612  0.000    21.103     6.159
  27   6 C     -0.073  1.054  3.019  0.000    21.887     6.659
  28   6 C      0.001  1.076  2.922  0.000    27.998     8.679
  29   6 C     -0.040  1.082  2.958  0.000    29.006     8.832
  30   6 C     -0.047  1.080  2.967  0.000    29.156     8.855
  31   6 C     -0.058  1.075  2.983  0.000    29.438     8.897
  32   6 C     -0.084  1.079  3.005  0.000    30.098     8.996
  33   6 C      0.143  1.044  2.814  0.000    24.884     8.176
  34   8 O     -0.435  1.728  4.707  0.000    21.538     6.265
  35   1 H      0.227  0.773  0.000  0.000     0.979     1.550
  36   1 H      0.088  0.912  0.000  0.000     1.902     2.157
  37   1 H      0.070  0.930  0.000  0.000     2.082     2.256
  38   1 H      0.065  0.935  0.000  0.000     2.140     2.288
  39   1 H      0.035  0.965  0.000  0.000     2.521     2.483
  40   1 H      0.061  0.939  0.000  0.000     2.190     2.314
  41   1 H      0.033  0.967  0.000  0.000     2.545     2.495
  42   1 H      0.076  0.924  0.000  0.000     2.020     2.222
  43   1 H      0.343  0.657  0.000  0.000     0.604     1.221
  44   7 N     -0.382  1.308  4.075  0.000    29.884     8.119
  45   6 C      0.044  1.052  2.904  0.000    19.845     6.345
  46   6 C      0.202  1.091  2.706  0.000    23.700     7.973
  47   8 O     -0.384  1.756  4.628  0.000    21.365     6.197
  48   6 C     -0.068  1.053  3.015  0.000    21.801     6.646
  49   6 C      0.018  1.082  2.900  0.000    27.612     8.619
  50   6 C     -0.044  1.080  2.963  0.000    29.081     8.844
  51   6 C     -0.035  1.077  2.958  0.000    28.862     8.810
  52   6 C     -0.040  1.079  2.962  0.000    29.006     8.832
  53   6 C     -0.027  1.081  2.946  0.000    28.672     8.781
  54   6 C     -0.036  1.078  2.958  0.000    28.903     8.816
  55   1 H      0.158  0.842  0.000  0.000     1.348     1.819
  56   1 H      0.053  0.947  0.000  0.000     2.284     2.363
  57   1 H      0.056  0.944  0.000  0.000     2.251     2.346
  58   1 H      0.052  0.948  0.000  0.000     2.294     2.368
  59   1 H      0.025  0.975  0.000  0.000     2.658     2.549
  60   1 H      0.032  0.968  0.000  0.000     2.551     2.498
  61   1 H      0.040  0.960  0.000  0.000     2.443     2.444
  62   1 H      0.039  0.961  0.000  0.000     2.465     2.455
  63   1 H      0.045  0.955  0.000  0.000     2.380     2.412
  64   7 N     -0.397  1.313  4.085  0.000    30.295     8.175
  65   6 C      0.016  1.064  2.920  0.000    20.316     6.420
  66   6 C      0.263  1.048  2.690  0.000    22.572     7.780
  67   8 O     -0.479  1.739  4.740  0.000    23.329     6.476
  68   6 C      0.115  1.052  2.833  0.000    18.791     6.190
  69   8 O     -0.494  1.733  4.760  0.000    22.757     6.440
  70   6 C     -0.137  1.045  3.092  0.000    23.191     6.868
  71   1 H      0.169  0.831  0.000  0.000     1.280     1.772
  72   1 H      0.063  0.937  0.000  0.000     2.166     2.302
  73   1 H      0.029  0.971  0.000  0.000     2.606     2.525
  74   1 H      0.336  0.664  0.000  0.000     0.622     1.238
  75   1 H      0.056  0.944  0.000  0.000     2.242     2.342
  76   1 H      0.057  0.943  0.000  0.000     2.230     2.335
  77   1 H      0.056  0.944  0.000  0.000     2.252     2.347
  78   7 N     -0.167  1.238  3.929  0.000    24.608     7.368
  79   6 C      0.005  1.067  2.928  0.000    20.490     6.445
  80   6 C      0.268  1.042  2.690  0.000    22.473     7.763
  81   8 O     -0.462  1.736  4.726  0.000    22.958     6.424
  82   6 C     -0.022  1.065  2.957  0.000    20.923     6.506
  83   6 C     -0.122  1.039  3.083  0.000    22.891     6.821
  84   6 C     -0.126  1.041  3.084  0.000    22.965     6.832
  85   1 H      0.223  0.777  0.000  0.000     0.997     1.564
  86   1 H      0.091  0.909  0.000  0.000     1.871     2.139
  87   1 H      0.053  0.947  0.000  0.000     2.278     2.360
  88   1 H      0.060  0.940  0.000  0.000     2.198     2.319
  89   1 H      0.044  0.956  0.000  0.000     2.395     2.420
  90   1 H      0.055  0.945  0.000  0.000     2.260     2.351
  91   1 H      0.063  0.937  0.000  0.000     2.160     2.298
  92   1 H      0.055  0.945  0.000  0.000     2.256     2.349
  93   1 H      0.049  0.951  0.000  0.000     2.336     2.390
  94   7 N     -0.177  1.240  3.938  0.000    24.841     7.402
  95   6 C     -0.003  1.068  2.935  0.000    20.645     6.470
  96   6 C      0.266  1.040  2.694  0.000    22.508     7.769
  97   8 O     -0.479  1.746  4.734  0.000    23.335     6.477
  98   6 C      0.069  1.037  2.894  0.000    19.631     6.347
  99   8 O     -0.463  1.729  4.733  0.000    22.102     6.346
 100   1 H      0.217  0.783  0.000  0.000     1.024     1.585
 101   1 H      0.103  0.897  0.000  0.000     1.759     2.074
 102   1 H      0.049  0.951  0.000  0.000     2.334     2.389
 103   1 H      0.068  0.932  0.000  0.000     2.103     2.268
 104   1 H      0.348  0.652  0.000  0.000     0.593     1.210
 105   7 N     -0.168  1.239  3.928  0.000    24.628     7.370
 106   6 C      0.010  1.067  2.924  0.000    20.415     6.433
 107   6 C      0.272  1.041  2.686  0.000    22.398     7.750
 108   8 O     -0.488  1.738  4.750  0.000    23.512     6.501
 109   6 C     -0.021  1.063  2.958  0.000    20.907     6.503
 110   6 C     -0.124  1.040  3.084  0.000    22.939     6.828
 111   6 C     -0.127  1.042  3.085  0.000    22.999     6.837
 112   1 H      0.211  0.789  0.000  0.000     1.054     1.608
 113   1 H      0.082  0.918  0.000  0.000     1.960     2.189
 114   1 H      0.052  0.948  0.000  0.000     2.294     2.369
 115   1 H      0.066  0.934  0.000  0.000     2.126     2.280
 116   1 H      0.048  0.952  0.000  0.000     2.344     2.394
 117   1 H      0.047  0.953  0.000  0.000     2.357     2.401
 118   1 H      0.064  0.936  0.000  0.000     2.150     2.293
 119   1 H      0.049  0.951  0.000  0.000     2.333     2.389
 120   1 H      0.052  0.948  0.000  0.000     2.297     2.370
 121   7 N     -0.200  1.262  3.938  0.000    25.350     7.478
 122   6 C      0.022  1.061  2.917  0.000    20.216     6.402
 123   6 C      0.278  1.039  2.683  0.000    22.297     7.733
 124   8 O     -0.509  1.743  4.766  0.000    23.989     6.567
 125   6 C     -0.088  1.056  3.031  0.000    22.163     6.701
 126   6 C      0.009  1.081  2.909  0.000    27.808     8.650
 127   6 C     -0.044  1.079  2.964  0.000    29.082     8.844
 128   6 C     -0.048  1.078  2.970  0.000    29.195     8.861
 129   6 C     -0.034  1.080  2.954  0.000    28.855     8.809
 130   6 C     -0.039  1.083  2.956  0.000    28.981     8.828
 131   6 C     -0.036  1.080  2.956  0.000    28.894     8.815
 132   1 H      0.248  0.752  0.000  0.000     0.891     1.479
 133   1 H      0.069  0.931  0.000  0.000     2.095     2.263
 134   1 H      0.087  0.913  0.000  0.000     1.904     2.158
 135   1 H      0.081  0.919  0.000  0.000     1.971     2.195
 136   1 H      0.040  0.960  0.000  0.000     2.451     2.448
 137   1 H      0.030  0.970  0.000  0.000     2.586     2.515
 138   1 H      0.042  0.958  0.000  0.000     2.426     2.436
 139   1 H      0.046  0.954  0.000  0.000     2.366     2.405
 140   1 H      0.037  0.963  0.000  0.000     2.487     2.466
 141   7 N     -0.190  1.260  3.930  0.000    25.126     7.445
 142   6 C      0.026  1.061  2.913  0.000    20.137     6.389
 143   6 C      0.288  1.040  2.671  0.000    22.116     7.701
 144   8 O     -0.494  1.737  4.757  0.000    23.641     6.519
 145   6 C     -0.138  1.042  3.096  0.000    23.209     6.869
 146   1 H      0.253  0.747  0.000  0.000     0.871     1.462
 147   1 H      0.071  0.929  0.000  0.000     2.073     2.252
 148   1 H      0.071  0.929  0.000  0.000     2.075     2.253
 149   1 H      0.086  0.914  0.000  0.000     1.917     2.165
 150   1 H      0.066  0.934  0.000  0.000     2.127     2.281
 151   7 N     -0.180  1.241  3.939  0.000    24.890     7.410
 152   6 C     -0.016  1.048  2.968  0.000    20.928     6.526
 153   6 C      0.284  1.039  2.676  0.000    22.184     7.712
 154   8 O     -0.522  1.759  4.762  0.000    24.267     6.605
 155   1 H      0.232  0.768  0.000  0.000     0.958     1.533
 156   1 H      0.071  0.929  0.000  0.000     2.076     2.253
 157   1 H      0.077  0.923  0.000  0.000     2.014     2.219
 158   7 N     -0.193  1.255  3.938  0.000    25.187     7.454
 159   6 C      0.024  1.057  2.919  0.000    20.177     6.397
 160   6 C      0.269  1.044  2.687  0.000    22.465     7.762
 161   8 O     -0.521  1.752  4.769  0.000    24.261     6.604
 162   6 C     -0.085  1.058  3.028  0.000    22.115     6.693
 163   6 C     -0.091  1.055  3.036  0.000    22.226     6.712
 164   6 C     -0.027  1.053  2.974  0.000    21.137     6.561
 165   7 N     -0.136  1.207  3.929  0.000    23.943     7.267
 166   6 C      0.237  1.019  2.744  0.000    23.034     7.858
 167   7 N     -0.236  1.234  4.003  0.000    26.186     7.600
 168   7 N     -0.257  1.240  4.017  0.000    26.682     7.672
 169   1 H      0.270  0.730  0.000  0.000     0.811     1.411
 170   1 H      0.049  0.951  0.000  0.000     2.335     2.390
 171   1 H      0.088  0.912  0.000  0.000     1.895     2.153
 172   1 H      0.069  0.931  0.000  0.000     2.098     2.265
 173   1 H      0.092  0.908  0.000  0.000     1.864     2.135
 174   1 H      0.093  0.907  0.000  0.000     1.855     2.130
 175   1 H      0.059  0.941  0.000  0.000     2.209     2.324
 176   1 H      0.107  0.893  0.000  0.000     1.719     2.050
 177   1 H      0.252  0.748  0.000  0.000     0.875     1.466
 178   1 H      0.220  0.780  0.000  0.000     1.008     1.572
 179   1 H      0.220  0.780  0.000  0.000     1.010     1.574
 180   1 H      0.265  0.735  0.000  0.000     0.827     1.424
 181   1 H      0.231  0.769  0.000  0.000     0.959     1.534
 182   7 N     -0.192  1.257  3.936  0.000    25.172     7.452
 183   6 C      0.019  1.063  2.919  0.000    20.265     6.410
 184   6 C      0.276  1.042  2.682  0.000    22.342     7.741
 185   8 O     -0.507  1.749  4.758  0.000    23.942     6.560
 186   6 C     -0.085  1.064  3.021  0.000    22.114     6.694
 187   6 C     -0.013  1.056  2.957  0.000    20.768     6.482
 188   6 C     -0.117  1.041  3.076  0.000    22.801     6.808
 189   6 C     -0.122  1.044  3.078  0.000    22.903     6.824
 190   1 H      0.253  0.747  0.000  0.000     0.873     1.464
 191   1 H      0.070  0.930  0.000  0.000     2.081     2.256
 192   1 H      0.080  0.920  0.000  0.000     1.975     2.198
 193   1 H      0.068  0.932  0.000  0.000     2.110     2.272
 194   1 H      0.024  0.976  0.000  0.000     2.668     2.555
 195   1 H      0.049  0.951  0.000  0.000     2.327     2.386
 196   1 H      0.027  0.973  0.000  0.000     2.625     2.534
 197   1 H      0.054  0.946  0.000  0.000     2.268     2.355
 198   1 H      0.055  0.945  0.000  0.000     2.260     2.351
 199   1 H      0.057  0.943  0.000  0.000     2.230     2.335
 200   1 H      0.048  0.952  0.000  0.000     2.348     2.396
 201   7 N     -0.188  1.254  3.934  0.000    25.079     7.438
 202   6 C      0.026  1.066  2.908  0.000    20.131     6.387
 203   6 C      0.285  1.046  2.669  0.000    22.174     7.711
 204   8 O     -0.521  1.749  4.772  0.000    24.248     6.602
 205   6 C     -0.022  1.064  2.959  0.000    20.935     6.507
 206   6 C     -0.072  1.055  3.017  0.000    21.867     6.657
 207   6 C     -0.104  1.034  3.071  0.000    22.553     6.772
 208   6 C     -0.118  1.037  3.081  0.000    22.819     6.812
 209   1 H      0.241  0.759  0.000  0.000     0.919     1.501
 210   1 H      0.071  0.929  0.000  0.000     2.077     2.254
 211   1 H      0.055  0.945  0.000  0.000     2.259     2.350
 212   1 H      0.053  0.947  0.000  0.000     2.286     2.364
 213   1 H      0.054  0.946  0.000  0.000     2.274     2.358
 214   1 H      0.066  0.934  0.000  0.000     2.126     2.280
 215   1 H     -0.002  1.002  0.000  0.000     3.086     2.747
 216   1 H      0.049  0.951  0.000  0.000     2.338     2.391
 217   1 H      0.070  0.930  0.000  0.000     2.086     2.259
 218   1 H      0.039  0.961  0.000  0.000     2.458     2.452
 219   1 H      0.050  0.950  0.000  0.000     2.324     2.384
 220   7 N     -0.230  1.285  3.945  0.000    26.036     7.578
 221   6 C      0.057  1.049  2.893  0.000    19.620     6.307
 222   6 C      0.286  1.043  2.671  0.000    22.153     7.708
 223   8 O     -0.532  1.757  4.776  0.000    24.511     6.638
 224   6 C     -0.046  1.051  2.995  0.000    21.403     6.586
 225   6 C     -0.083  1.065  3.018  0.000    22.083     6.691
 226   6 C      0.374  1.025  2.602  0.000    20.671     7.440
 227   8 O     -0.643  1.774  4.870  0.000    27.208     6.993
 228   8 O     -0.636  1.759  4.877  0.000    27.008     6.968
 229   1 H      0.248  0.752  0.000  0.000     0.892     1.480
 230   1 H      0.036  0.964  0.000  0.000     2.505     2.475
 231   1 H      0.058  0.942  0.000  0.000     2.227     2.334
 232   1 H      0.029  0.971  0.000  0.000     2.598     2.520
 233   1 H      0.021  0.979  0.000  0.000     2.717     2.578
 234   1 H     -0.013  1.013  0.000  0.000     3.287     2.835
 235   7 N     -0.208  1.269  3.938  0.000    25.520     7.503
 236   6 C      0.041  1.059  2.900  0.000    19.894     6.351
 237   6 C      0.302  1.038  2.659  0.000    21.867     7.658
 238   8 O     -0.538  1.763  4.774  0.000    24.641     6.655
 239   6 C     -0.087  1.065  3.022  0.000    22.149     6.700
 240   6 C     -0.007  1.054  2.954  0.000    20.674     6.467
 241   6 C     -0.122  1.046  3.076  0.000    22.898     6.822
 242   6 C     -0.125  1.043  3.082  0.000    22.946     6.829
 243   1 H      0.245  0.755  0.000  0.000     0.905     1.490
 244   1 H      0.042  0.958  0.000  0.000     2.418     2.432
 245   1 H      0.063  0.937  0.000  0.000     2.161     2.299
 246   1 H      0.080  0.920  0.000  0.000     1.982     2.202
 247   1 H      0.002  0.998  0.000  0.000     3.027     2.721
 248   1 H      0.057  0.943  0.000  0.000     2.233     2.337
 249   1 H      0.040  0.960  0.000  0.000     2.446     2.446
 250   1 H      0.063  0.937  0.000  0.000     2.159     2.298
 251   1 H      0.049  0.951  0.000  0.000     2.331     2.388
 252   1 H      0.065  0.935  0.000  0.000     2.137     2.286
 253   1 H      0.028  0.972  0.000  0.000     2.610     2.527
 254   7 N     -0.204  1.253  3.951  0.000    25.435     7.490
 255   6 C      0.032  1.060  2.908  0.000    20.032     6.373
 256   6 C      0.286  1.038  2.676  0.000    22.153     7.707
 257   8 O     -0.520  1.765  4.754  0.000    24.223     6.599
 258   6 C      0.074  1.041  2.885  0.000    19.556     6.335
 259   8 O     -0.493  1.740  4.753  0.000    22.752     6.439
 260   1 H      0.233  0.767  0.000  0.000     0.950     1.527
 261   1 H      0.063  0.937  0.000  0.000     2.162     2.300
 262   1 H      0.061  0.939  0.000  0.000     2.185     2.312
 263   1 H      0.047  0.953  0.000  0.000     2.360     2.402
 264   1 H      0.381  0.619  0.000  0.000     0.522     1.134
 265   7 N     -0.204  1.255  3.949  0.000    25.436     7.490
 266   6 C      0.037  1.059  2.903  0.000    19.955     6.362
 267   6 C      0.286  1.040  2.674  0.000    22.155     7.708
 268   8 O     -0.520  1.749  4.771  0.000    24.237     6.601
 269   6 C     -0.048  1.047  3.001  0.000    21.430     6.589
 270   6 C     -0.103  1.060  3.043  0.000    22.456     6.746
 271   6 C      0.298  1.037  2.665  0.000    21.940     7.669
 272   8 O     -0.525  1.766  4.759  0.000    24.342     6.615
 273   7 N     -0.298  1.269  4.029  0.000    27.683     7.814
 274   1 H      0.237  0.763  0.000  0.000     0.935     1.514
 275   1 H      0.059  0.941  0.000  0.000     2.216     2.328
 276   1 H      0.066  0.934  0.000  0.000     2.132     2.283
 277   1 H      0.035  0.965  0.000  0.000     2.520     2.483
 278   1 H      0.078  0.922  0.000  0.000     1.998     2.210
 279   1 H      0.085  0.915  0.000  0.000     1.925     2.170
 280   1 H      0.246  0.754  0.000  0.000     0.900     1.486
 281   1 H      0.237  0.763  0.000  0.000     0.934     1.514
 282   7 N     -0.206  1.254  3.952  0.000    25.492     7.499
 283   6 C      0.042  1.058  2.900  0.000    19.882     6.350
 284   6 C      0.279  1.043  2.678  0.000    22.287     7.731
 285   8 O     -0.519  1.741  4.778  0.000    24.210     6.597
 286   6 C     -0.042  1.050  2.992  0.000    21.323     6.573
 287   6 C     -0.082  1.063  3.019  0.000    22.063     6.688
 288   6 C      0.369  1.029  2.601  0.000    20.738     7.452
 289   8 O     -0.625  1.763  4.862  0.000    26.733     6.932
 290   8 O     -0.635  1.751  4.884  0.000    26.993     6.966
 291   1 H      0.232  0.768  0.000  0.000     0.958     1.534
 292   1 H      0.040  0.960  0.000  0.000     2.451     2.448
 293   1 H      0.044  0.956  0.000  0.000     2.402     2.424
 294   1 H      0.032  0.968  0.000  0.000     2.564     2.504
 295   1 H      0.018  0.982  0.000  0.000     2.770     2.603
 296   1 H      0.009  0.991  0.000  0.000     2.914     2.670
 297   7 N     -0.169  1.252  3.917  0.000    24.650     7.374
 298   6 C     -0.025  1.062  2.962  0.000    21.096     6.554
 299   6 C      0.376  1.022  2.603  0.000    20.633     7.433
 300   8 O     -0.628  1.756  4.872  0.000    26.817     6.943
 301   8 O     -0.625  1.776  4.849  0.000    26.730     6.932
 302   1 H      0.187  0.813  0.000  0.000     1.173     1.697
 303   1 H      0.052  0.948  0.000  0.000     2.296     2.369
 304   1 H      0.045  0.955  0.000  0.000     2.382     2.414
 305   1 H      0.167  0.833  0.000  0.000     1.289     1.778
 306   1 H      0.074  0.926  0.000  0.000     2.046     2.237
 307   1 H      0.183  0.817  0.000  0.000     1.196     1.713
 308   1 H      0.069  0.931  0.000  0.000     2.096     2.264
 309   1 H      0.189  0.811  0.000  0.000     1.163     1.689

 Mol. C6AA /au·bohr⁶  :     904421.764347
 Mol. C8AA /au·bohr⁸  :   20215784.341671
 Mol. α(0) /au        :       1427.815179

 
molecular dipole:
                 x           y           z       tot (Debye)
 q only:      -31.014     -10.039    -128.868
   full:      -31.812      -9.063    -130.207     341.472
molecular quadrupole (traceless):
                xx          xy          yy          xz          yz          zz
 q only:     8580.848     106.728    6794.912   -8054.531   -2134.530  -15375.760
  q+dip:     8552.010     184.702    6989.940   -8305.502   -2036.957  -15541.950
   full:     8555.434     187.471    6990.453   -8302.717   -2034.569  -15545.886
speedup  1.00
cpu  time for grad    5.61 s
wall time for grad    5.62 s

SCC energy    :    -486.8004931
rep           :       5.8539239
ES            :       1.9853623
AES           :      -0.0911535
AXC           :       0.1456577
disp          :      -0.4305704
XB            :       0.0000000
fix           :       0.0000000
Gborn         :       0.0000000
Gsasa         :       0.0000000
Ghb           :       0.0000000
Gshift        :       0.0000000
Gsolv         :      -0.7451520     -467.59
Etot ala COSMO:    -486.8004931
grad norm     :       0.3681045
total E       :    -480.9096434
atomizationE  :      88.5235571    55549.37
(atE without considering molecular charge,
 total energy contains solvation terms)
H-L gap (eV)  :          1.7385

------------------------------------------------------------------------
 * finished run on 2019/03/14 at 15:08:24.553     
------------------------------------------------------------------------
 total:
 * wall-time:     0 d,  0 h,  0 min,  6.183 sec
 *  cpu-time:     0 d,  0 h,  0 min,  5.976 sec
 * ratio c/w:     0.967 speedup
 SCF:
 * wall-time:     0 d,  0 h,  0 min,  5.905 sec
 *  cpu-time:     0 d,  0 h,  0 min,  5.900 sec
 * ratio c/w:     0.999 speedup

