      -----------------------------------------------------------      
     |                   =====================                   |     
     |                           x T B                           |     
     |                   =====================                   |     
     |                         S. Grimme                         |     
     |          Mulliken Center for Theoretical Chemistry        |     
     |                    University of Bonn                     |     
     |                Version 6.1 RC1 (SAW190329)                |     
      -----------------------------------------------------------      

   This program is distributed in the hope that it will be useful,
   but WITHOUT ANY WARRANTY; without even the implied warranty of
   MERCHANTABILITY or FITNESS FOR A PARTICULAR PURPOSE.
   
   FOR NON-COMMERCIAL, ACADEMIA USE ONLY.
   
   Cite this work as:
   S. Grimme, C. Bannwarth, P. Shushkov, J. Comput. Theory Chem., 2017,
   13, 1989-2009. DOI: 10.1021/acs.jctc.7b00118
   C. Bannwarth, S. Ehlert and S. Grimme., J. Comput. Theory Chem., 2019,
   just accepted. DOI: 10.1021/acs.jctc.8b01176
   
   for sTDA-xTB:
   S. Grimme and C. Bannwarth, J. Chem. Phys., 2016, 145, 054103.
   DOI: 10.1063/1.4959605
   
   in the mass-spec context:
   V. Asgeirsson, C. Bauer and S. Grimme, Chem. Sci., 2017, 8, 4879.
   DOI: 10.1039/c7sc00601b
   
   for metadynamics refer to:
   S. Grimme, ChemRxiv, Preprint. DOI: 10.26434/chemrxiv.7660532.v1
   
   with help from (in alphabetical order)
   C. Bannwarth, F. Bohle, G. Brandenburg, E. Caldeweyher, M. Checinski,
   S. Dohm, S. Ehlert, S. Ehrlich, F. März, H. Neugebauer, J. Pisarek,
   P. Pracht, P. Shushkov, and S. Spicher.
   
 * started run on 2019/05/31 at 06:33:48.457     

           -------------------------------------------------
          |                Calculation Setup                |
           -------------------------------------------------

          program call               : /home/lum/qr/xtb-190329/bin/xtb xtb_tmp.xyz --chrg 0 --grad --gfn 2 --etemp 500 --acc 0.1 --gbsa h2o --parallel 2
          hostname                   : cu39
          coordinate file            : xtb_tmp.xyz
          omp threads                :                     2
          number of atoms            :                   303
          number of electrons        :                   826
          charge                     :                     0
          spin                       :                   0.0
          first test random number   :      0.79093463496745


molecular fragmentation (1/2 indicates fragments):
111111111111111111122222222222222222222222222222222222222222222222222222
222222222222222222222222222222222222222222222222222222222222222222222222
222222222222222222222222222222222222222222222222222222222222222222222222
222222222222222222222222222222222222222222222222222222222222222222222222
222221122222222
# atoms in fragment 1/2:    21   282
 fragment masses (1/2) :      115.17     1976.26
CMA distance (Bohr)    :  14.340
constraining FC (au)   :  0.0500

########################################################################
# WARNING! Please study the warnings concerning your input carefully
#  - XTBPATH is not set, using XTBHOME instead
#  - Process number higher than OMP_NUM_THREADS, I hope you know what you are doing.
########################################################################

           ------------------------------------------------- 
          |                 G F N 2 - x T B                 |
          | Geometry, Frequencies, Noncovalent interactions |
          |            JCTC 2018 parametrisation            |
           ------------------------------------------------- 
 
             k(s)              :                1.8500
             k(p)              :                2.2300
             k(d)              :                2.2300
             k(f)              :                2.0000
             kEN (H0ij)        :               -2.0000
             D4 a1             :                0.5200
             D4 a2             :                5.0000
             D4 s6             :                1.0000
             D4 s8             :                2.7000
             D4 s9             :                5.0000
             alphaj            :                2.0000

  Z AO/shell   Hii/eV     exponent
  1     Wed Apr 25 08:07:45 CEST 2018   EN: 2.200 GM2: 0.406  GM3: 0.0800  RAES: 1.40
     1s    -10.707211    1.230000
  6     Wed Apr 25 08:07:45 CEST 2018   EN: 2.550 GM2: 0.538  GM3: 0.1500  RAES: 3.00
     2s    -13.970922    2.096432
     2p    -10.063292    1.800000
  7     Wed Apr 25 08:07:45 CEST 2018   EN: 3.040 GM2: 0.461  GM3:-0.0640  RAES: 1.90
     2s    -16.686243    2.339881
     2p    -12.523956    2.014332
  8     Wed Apr 25 08:07:45 CEST 2018   EN: 3.440 GM2: 0.452  GM3:-0.0517  RAES: 1.80
     2s    -20.229985    2.439742
     2p    -15.503117    2.137023

 Solvent             : h2o
 Using internal parameter file: .param_gbsa2_h2o
 Gsolv ref. state (COSMO-RS): gsolv [1 M gas/solution]
 temperature (mdtemp)       :    298.150000000000     
 dielectric constant        :    80.2000000000000     
 rho                        :    1.00000000000000     
 mass                       :    18.0000000000000     
 surface tension            :    15.5689454083859     
 probe radius               :   0.975313790000000     
 vdW radii scaling          :    1.00000000000000     
 Gshift (Eh)                :   1.857443126794793E-003
 c1                         :    1.55243817000000     
 soset                      :   0.130326360000000     
 HB correction              :  T
 Number of grid points      :          230

            Z     q(EN)     CN     RAES       Cart. coordinates
     1  N   5.0   -0.69    3.00    1.93    54.34360    26.50459    42.44662
     2  C   4.0    0.06    3.98    3.59    52.67225    26.62056    44.61361
     3  C   4.0    0.07    3.00    3.02    51.64645    23.95593    45.04745
     4  O   6.0   -0.39    1.00    1.80    50.57468    22.81563    43.33471
     5  C   4.0   -0.08    3.98    3.59    50.42626    28.40303    44.08114
     6  C   4.0   -0.16    3.98    3.59    51.33065    31.13761    43.76449
     7  C   4.0   -0.22    3.98    3.59    48.51881    28.18468    46.23350
     8  C   4.0   -0.23    3.98    3.58    49.62096    32.66996    42.02557
     9  H   1.0    0.31    1.00    1.43    53.66674    25.51010    40.96122
    10  H   1.0    0.11    0.99    1.43    53.73936    27.27686    46.25719
    11  H   1.0    0.13    0.99    1.43    49.55164    27.75719    42.31594
    12  H   1.0    0.11    0.99    1.43    51.40853    31.99672    45.63770
    13  H   1.0    0.10    0.99    1.43    53.24299    31.14165    42.99271
    14  H   1.0    0.12    0.99    1.43    47.02678    29.58088    46.03276
    15  H   1.0    0.12    0.99    1.43    47.66958    26.31094    46.25983
    16  H   1.0    0.10    0.99    1.43    49.46189    28.47835    48.03960
    17  H   1.0    0.10    0.99    1.43    50.21576    34.63665    41.97850
    18  H   1.0    0.10    0.99    1.43    49.71080    31.91597    40.11640
    19  H   1.0    0.12    0.99    1.43    47.67461    32.58295    42.66845
    20  N   5.0   -0.72    3.00    1.93    47.70121    20.57171    25.96936
    21  C   4.0    0.07    3.98    3.59    46.78135    22.93395    26.97032
    22  C   4.0    0.27    3.01    3.02    48.11221    23.76634    29.39961
    23  O   6.0   -0.45    1.00    1.80    47.89359    25.93247    30.18749
    24  C   4.0   -0.10    3.98    3.59    43.93968    22.63711    27.44304
    25  C   4.0    0.31    2.99    3.02    42.60733    21.75772    24.95415
    26  O   6.0   -0.41    1.00    1.80    43.13447    19.56305    24.23110
    27  O   6.0   -0.39    1.00    1.80    41.16907    23.26327    23.88892
    28  H   1.0    0.32    1.00    1.43    46.23983    19.43348    25.37986
    29  H   1.0    0.12    0.99    1.43    47.10268    24.47592    25.60268
    30  H   1.0    0.12    0.99    1.43    43.66451    21.18798    28.88875
    31  H   1.0    0.11    0.99    1.43    43.13063    24.42555    28.06033
    32  N   5.0   -0.49    3.01    1.93    49.41334    21.97369    30.60913
    33  C   4.0    0.09    3.99    3.60    50.88072    22.49618    32.84657
    34  C   4.0    0.10    3.00    3.02    52.87977    24.56005    32.46479
    35  O   6.0   -0.40    1.00    1.80    53.38512    26.03633    34.16554
    36  C   4.0   -0.02    3.98    3.59    52.20180    20.05667    33.68244
    37  O   6.0   -0.44    1.99    1.82    53.31399    20.41659    36.06768
    38  H   1.0    0.26    1.00    1.43    49.64048    20.25649    29.79110
    39  H   1.0    0.15    0.99    1.43    49.64055    23.16607    34.37136
    40  H   1.0    0.11    0.99    1.43    50.77123    18.55713    33.75374
    41  H   1.0    0.11    0.99    1.43    53.62385    19.54925    32.25655
    42  H   1.0    0.26    0.99    1.43    54.03973    18.82777    36.60112
    43  N   5.0   -0.68    3.00    1.93    56.33070    30.22749    27.72958
    44  C   4.0    0.06    3.98    3.58    56.34574    32.07719    25.71519
    45  C   4.0    0.06    3.00    3.02    58.59415    33.84797    26.21518
    46  O   6.0   -0.39    1.00    1.80    59.82424    33.69717    28.17981
    47  C   4.0   -0.15    3.98    3.59    53.90765    33.65955    25.53992
    48  C   4.0   -0.10    3.97    3.58    51.47022    32.07335    25.50602
    49  C   4.0   -0.22    3.98    3.59    50.41917    31.78701    28.17821
    50  C   4.0   -0.23    3.98    3.59    49.49474    33.28575    23.78159
    51  H   1.0    0.31    1.00    1.43    57.25067    30.80265    29.30798
    52  H   1.0    0.12    0.99    1.43    56.60879    31.05956    23.92858
    53  H   1.0    0.11    0.99    1.43    53.84329    34.97755    27.12470
    54  H   1.0    0.10    0.99    1.43    54.03010    34.75108    23.79694
    55  H   1.0    0.12    0.99    1.43    51.90478    30.19288    24.76924
    56  H   1.0    0.12    0.99    1.43    48.86695    30.43793    28.21889
    57  H   1.0    0.11    0.99    1.43    51.86596    31.09922    29.46675
    58  H   1.0    0.10    0.99    1.43    49.73627    33.60076    28.86225
    59  H   1.0    0.11    0.99    1.43    47.75610    32.19027    23.83847
    60  H   1.0    0.10    0.99    1.43    49.08450    35.20068    24.40292
    61  H   1.0    0.10    0.99    1.43    50.15998    33.34125    21.83715
    62  N   5.0   -0.72    3.00    1.93    53.21785    51.76945    39.57000
    63  C   4.0    0.07    3.99    3.60    50.81086    51.82736    40.87359
    64  C   4.0    0.29    3.01    3.02    48.68459    50.88485    39.16811
    65  O   6.0   -0.43    1.00    1.80    47.15983    49.30252    39.87882
    66  C   4.0   -0.16    3.98    3.59    50.25599    54.50148    41.83339
    67  C   4.0   -0.16    3.98    3.58    47.90437    54.56038    43.51530
    68  C   4.0   -0.04    3.98    3.59    48.43195    53.51627    46.17477
    69  N   5.0   -0.48    3.02    1.93    46.65167    51.54240    46.84551
    70  C   4.0    0.37    3.00    3.02    45.82001    50.96110    49.14093
    71  N   5.0   -0.64    3.01    1.93    46.50714    52.29355    51.18432
    72  N   5.0   -0.65    3.02    1.93    44.31733    48.97111    49.40076
    73  H   1.0    0.25    1.00    1.43    53.66973    53.32786    38.56069
    74  H   1.0    0.11    0.99    1.43    50.95589    50.47472    42.43393
    75  H   1.0    0.10    0.99    1.43    51.88336    55.19730    42.89167
    76  H   1.0    0.11    0.99    1.43    49.99812    55.74595    40.21092
    77  H   1.0    0.10    0.99    1.43    47.26582    56.50904    43.64237
    78  H   1.0    0.14    0.99    1.43    46.41807    53.46211    42.60388
    79  H   1.0    0.11    0.99    1.43    50.35327    52.75651    46.22704
    80  H   1.0    0.10    0.99    1.43    48.32423    55.07497    47.51615
    81  H   1.0    0.28    1.00    1.43    46.10872    50.35931    45.42687
    82  H   1.0    0.25    1.00    1.43    47.28185    54.01741    50.93434
    83  H   1.0    0.26    1.00    1.43    45.57736    51.97402    52.81999
    84  H   1.0    0.30    1.00    1.43    43.81057    47.97841    47.84746
    85  H   1.0    0.26    1.00    1.43    43.65280    48.41455    51.09366
    86  N   5.0   -0.49    3.01    1.93    48.59605    52.02040    36.90779
    87  C   4.0    0.02    4.00    3.62    46.77310    51.24253    35.02905
    88  C   4.0    0.32    3.01    3.02    46.65379    48.36061    34.85186
    89  O   6.0   -0.42    1.00    1.80    44.71670    47.21331    35.37727
    90  H   1.0    0.23    1.00    1.43    50.01379    53.18745    36.37826
    91  H   1.0    0.13    0.99    1.43    44.87786    51.90591    35.53055
    92  H   1.0    0.11    0.99    1.43    47.28690    51.99794    33.18666
    93  N   5.0   -0.47    3.01    1.93    48.82938    47.26080    34.22211
    94  C   4.0    0.07    3.99    3.61    48.99984    44.60750    33.55949
    95  C   4.0    0.29    3.01    3.02    48.15967    42.94159    35.75717
    96  O   6.0   -0.45    1.00    1.80    46.77608    41.10300    35.42880
    97  C   4.0   -0.22    3.99    3.60    51.69994    43.96711    32.80143
    98  H   1.0    0.23    1.00    1.43    50.38257    48.32211    33.86350
    99  H   1.0    0.15    0.99    1.43    47.70439    44.24060    31.97678
   100  H   1.0    0.11    0.99    1.43    51.84812    41.96313    32.38082
   101  H   1.0    0.11    0.99    1.43    52.21703    45.03350    31.12340
   102  H   1.0    0.11    0.99    1.43    52.99148    44.45835    34.31988
   103  N   5.0   -0.48    3.01    1.93    49.08443    43.54862    38.01913
   104  C   4.0    0.08    4.00    3.63    48.27941    42.16409    40.24838
   105  C   4.0    0.30    3.01    3.02    45.39121    42.19840    40.35625
   106  O   6.0   -0.45    1.00    1.80    44.14097    40.25507    40.53091
   107  C   4.0   -0.09    3.98    3.58    49.47662    43.26245    42.65213
   108  C   4.0   -0.22    3.98    3.59    48.02160    42.39472    44.99027
   109  C   4.0   -0.23    3.98    3.59    52.24765    42.47392    42.82268
   110  H   1.0    0.25    1.00    1.43    50.25642    45.04721    38.23867
   111  H   1.0    0.12    0.99    1.43    48.81462    40.17501    40.00790
   112  H   1.0    0.13    0.99    1.43    49.36817    45.31960    42.50294
   113  H   1.0    0.10    0.99    1.43    49.04139    42.94136    46.68273
   114  H   1.0    0.13    0.99    1.43    46.14770    43.23020    45.02967
   115  H   1.0    0.10    0.99    1.43    47.81695    40.35080    44.97011
   116  H   1.0    0.10    0.99    1.43    53.07419    43.21466    44.54956
   117  H   1.0    0.10    0.99    1.43    52.40421    40.42471    42.83857
   118  H   1.0    0.11    0.99    1.43    53.29940    43.21079    41.22129
   119  N   5.0   -0.46    3.01    1.93    44.37512    44.50360    40.35067
   120  C   4.0    0.09    4.00    3.62    41.66886    44.82695    40.45227
   121  C   4.0    0.30    3.01    3.02    40.34060    43.30276    38.39045
   122  O   6.0   -0.47    1.00    1.80    38.35643    42.18554    38.84177
   123  C   4.0   -0.10    3.99    3.60    40.97836    47.61082    40.18268
   124  C   4.0    0.29    3.00    3.02    41.99739    49.15355    42.37572
   125  O   6.0   -0.45    1.00    1.80    43.26208    48.24457    44.08035
   126  N   5.0   -0.65    3.00    1.93    41.39431    51.60616    42.31310
   127  H   1.0    0.31    1.00    1.43    45.44205    46.07951    40.12718
   128  H   1.0    0.13    0.99    1.43    40.97784    44.10329    42.26950
   129  H   1.0    0.15    0.99    1.43    41.76065    48.30387    38.40306
   130  H   1.0    0.11    0.99    1.43    38.92659    47.79982    40.09202
   131  H   1.0    0.28    1.00    1.43    41.88256    52.74370    43.76503
   132  H   1.0    0.26    1.00    1.43    40.31249    52.32026    40.92327
   133  N   5.0   -0.46    3.01    1.93    41.46958    43.33126    36.15194
   134  C   4.0    0.09    4.00    3.62    40.31924    42.24312    33.93460
   135  C   4.0    0.29    3.02    3.02    40.02791    39.40218    34.27188
   136  O   6.0   -0.46    1.00    1.80    38.10487    38.27959    33.60328
   137  C   4.0   -0.10    3.98    3.59    41.95212    42.74217    31.61796
   138  C   4.0    0.33    2.99    3.02    42.27866    45.62702    30.98531
   139  O   6.0   -0.37    1.00    1.80    40.56207    47.08122    31.65237
   140  O   6.0   -0.39    1.00    1.80    44.23353    46.18137    29.78992
   141  H   1.0    0.32    1.00    1.43    42.93468    44.52719    35.83358
   142  H   1.0    0.14    0.99    1.43    38.43550    43.07142    33.62895
   143  H   1.0    0.13    0.99    1.43    43.82397    41.91724    31.86562
   144  H   1.0    0.11    0.99    1.43    41.07947    41.88525    29.95500
   145  N   5.0   -0.48    3.01    1.93    42.03636    38.24169    35.25228
   146  C   4.0    0.07    4.00    3.61    42.04319    35.52963    35.61976
   147  C   4.0    0.30    3.01    3.02    40.22919    34.87387    37.77234
   148  O   6.0   -0.47    1.00    1.80    38.70474    33.13902    37.55569
   149  C   4.0   -0.14    3.98    3.59    44.70647    34.47383    36.06825
   150  C   4.0   -0.11    3.98    3.58    45.30273    32.22925    34.32484
   151  C   4.0   -0.22    3.98    3.59    48.08427    31.48876    34.51318
   152  C   4.0   -0.22    3.98    3.59    43.66135    29.93566    34.93814
   153  H   1.0    0.30    1.00    1.43    43.60778    39.25239    35.67161
   154  H   1.0    0.12    0.99    1.43    41.23272    34.67247    33.90976
   155  H   1.0    0.12    0.99    1.43    46.05821    35.99136    35.71277
   156  H   1.0    0.11    0.99    1.43    44.90919    33.88383    38.03369
   157  H   1.0    0.11    0.99    1.43    44.91813    32.81247    32.37428
   158  H   1.0    0.13    0.99    1.43    48.48735    29.95277    33.20790
   159  H   1.0    0.10    0.99    1.43    49.30136    33.08056    34.06076
   160  H   1.0    0.11    0.99    1.43    48.52202    30.83737    36.41144
   161  H   1.0    0.12    0.99    1.43    43.97762    28.46678    33.53434
   162  H   1.0    0.11    0.99    1.43    44.16159    29.17929    36.78313
   163  H   1.0    0.12    0.99    1.43    41.66213    30.40873    34.95991
   164  N   5.0   -0.47    3.01    1.93    40.39327    36.28173    39.84636
   165  C   4.0    0.07    3.99    3.61    38.66370    35.91125    41.95158
   166  C   4.0    0.30    3.01    3.02    35.93225    35.97312    40.99704
   167  O   6.0   -0.46    1.00    1.80    34.37216    34.36986    41.61862
   168  C   4.0   -0.13    3.99    3.60    39.22499    37.90618    43.96888
   169  C   4.0   -0.10    3.97    3.58    37.58364    37.72875    46.36066
   170  C   4.0   -0.23    3.98    3.59    39.04609    38.77030    48.62671
   171  C   4.0   -0.22    3.98    3.59    35.09791    39.16979    46.05544
   172  H   1.0    0.30    1.00    1.43    41.70347    37.67525    39.99061
   173  H   1.0    0.12    0.99    1.43    38.95742    34.01403    42.74110
   174  H   1.0    0.13    0.99    1.43    41.20522    37.63768    44.48071
   175  H   1.0    0.13    0.99    1.43    39.02560    39.77131    43.11035
   176  H   1.0    0.11    0.99    1.43    37.15270    35.73417    46.71340
   177  H   1.0    0.10    0.99    1.43    37.88613    38.68535    50.31951
   178  H   1.0    0.11    0.99    1.43    40.74751    37.66813    48.95764
   179  H   1.0    0.11    0.99    1.43    39.57576    40.72507    48.28553
   180  H   1.0    0.10    0.99    1.43    34.03038    39.14110    47.81171
   181  H   1.0    0.11    0.99    1.43    35.45946    41.12608    45.53661
   182  H   1.0    0.12    0.99    1.43    33.93337    38.32370    44.59222
   183  N   5.0   -0.47    3.01    1.93    35.38399    37.90896    39.48292
   184  C   4.0    0.07    3.99    3.61    32.87511    38.29662    38.46549
   185  C   4.0    0.30    3.01    3.02    32.08847    36.04200    36.83886
   186  O   6.0   -0.45    1.00    1.80    30.04483    34.99795    37.17957
   187  C   4.0   -0.20    3.98    3.59    32.77826    40.74593    36.96023
   188  H   1.0    0.31    1.00    1.43    36.68851    39.25583    39.08278
   189  H   1.0    0.12    0.99    1.43    31.50760    38.37609    40.02865
   190  H   1.0    0.11    0.99    1.43    30.89144    41.04551    36.21090
   191  H   1.0    0.12    0.99    1.43    33.28496    42.32384    38.17132
   192  H   1.0    0.14    0.99    1.43    34.11889    40.67706    35.40543
   193  N   5.0   -0.47    3.01    1.93    33.71718    35.34325    35.05264
   194  C   4.0    0.07    4.00    3.61    33.21122    33.17500    33.44419
   195  C   4.0    0.30    3.01    3.02    32.59395    30.88488    35.10759
   196  O   6.0   -0.40    1.00    1.80    30.70375    29.59129    34.74278
   197  C   4.0   -0.15    3.98    3.59    35.50895    32.62996    31.76349
   198  C   4.0   -0.17    3.98    3.59    35.50904    29.97760    30.61094
   199  C   4.0   -0.15    3.98    3.58    33.30140    29.46316    28.81505
   200  C   4.0   -0.05    3.98    3.59    33.23365    26.65547    28.15469
   201  N   5.0   -0.70    3.97    2.78    31.15567    26.03908    26.36250
   202  H   1.0    0.30    1.00    1.43    35.31279    36.35671    34.70611
   203  H   1.0    0.12    0.99    1.43    31.52292    33.55529    32.29993
   204  H   1.0    0.11    0.99    1.43    35.59569    34.05949    30.28322
   205  H   1.0    0.13    0.99    1.43    37.19198    32.83490    32.93634
   206  H   1.0    0.10    0.99    1.43    37.28700    29.71713    29.60269
   207  H   1.0    0.12    0.99    1.43    35.44594    28.59325    32.13588
   208  H   1.0    0.12    0.99    1.43    31.53739    29.97500    29.75171
   209  H   1.0    0.11    0.99    1.43    33.52042    30.60806    27.11758
   210  H   1.0    0.12    0.99    1.43    35.03298    26.07443    27.34072
   211  H   1.0    0.12    0.99    1.43    32.92262    25.57663    29.88342
   212  H   1.0    0.23    0.98    1.43    30.11902    24.38754    27.08641
   213  H   1.0    0.24    1.00    1.43    29.91380    27.51795    26.22619
   214  H   1.0    0.25    1.00    1.43    31.82238    25.63636    24.59370
   215  N   5.0   -0.48    3.01    1.93    34.32611    30.38291    36.85780
   216  C   4.0    0.08    4.00    3.62    34.11632    28.25929    38.56403
   217  C   4.0    0.32    3.02    3.02    31.43315    28.08233    39.58575
   218  O   6.0   -0.37    1.00    1.80    30.13993    26.19436    39.25714
   219  C   4.0   -0.13    3.99    3.60    35.96469    28.48282    40.78904
   220  C   4.0   -0.02    3.12    3.03    35.05563    26.93531    42.97015
   221  C   4.0    0.02    3.21    3.04    33.96699    27.80087    45.14518
   222  C   4.0    0.03    3.18    3.03    35.01224    24.24263    43.10514
   223  N   5.0   -0.48    3.11    1.94    33.26783    25.81348    46.63709
   224  C   4.0    0.13    3.22    3.04    33.88530    23.60954    45.45008
   225  C   4.0   -0.10    3.02    3.02    35.84255    22.32320    41.50268
   226  C   4.0   -0.09    3.02    3.02    33.63027    21.11501    46.23399
   227  C   4.0   -0.10    3.03    3.02    35.54094    19.85943    42.26671
   228  C   4.0   -0.10    3.03    3.02    34.47151    19.26512    44.60592
   229  H   1.0    0.31    1.00    1.43    35.85158    31.52396    37.07735
   230  H   1.0    0.12    0.99    1.43    34.45668    26.50016    37.51662
   231  H   1.0    0.11    0.99    1.43    37.83853    27.87906    40.18007
   232  H   1.0    0.15    0.99    1.43    36.05636    30.45722    41.35329
   233  H   1.0    0.11    1.00    1.43    33.65563    29.71640    45.74231
   234  H   1.0    0.23    1.00    1.43    32.43546    25.95379    48.33750
   235  H   1.0    0.11    1.00    1.43    36.70593    22.75968    39.70573
   236  H   1.0    0.12    1.00    1.43    32.83249    20.66451    48.05668
   237  H   1.0    0.12    1.00    1.43    36.14561    18.33522    41.06417
   238  H   1.0    0.12    1.00    1.43    34.29392    17.29321    45.10055
   239  N   5.0   -0.48    3.01    1.93    30.62226    30.07503    40.90444
   240  C   4.0    0.08    4.00    3.62    28.18888    29.94470    42.14222
   241  C   4.0    0.31    3.01    3.02    26.05644    29.75469    40.18737
   242  O   6.0   -0.36    1.00    1.80    24.32357    28.23649    40.41703
   243  C   4.0   -0.13    3.98    3.59    27.80783    32.24551    43.85670
   244  C   4.0    0.09    3.21    3.04    25.12454    32.54746    44.65376
   245  N   5.0   -0.45    3.15    1.94    23.65679    30.60337    45.53321
   246  C   4.0    0.06    3.36    3.07    23.60022    34.63629    44.74125
   247  C   4.0    0.19    3.41    3.08    21.35432    31.58396    46.05842
   248  N   5.0   -0.37    2.09    1.90    21.26794    34.00962    45.62924
   249  H   1.0    0.29    1.00    1.43    31.75196    31.59503    41.18593
   250  H   1.0    0.14    0.99    1.43    28.09382    28.17208    43.22486
   251  H   1.0    0.10    0.99    1.43    29.01950    32.05574    45.52101
   252  H   1.0    0.12    0.99    1.43    28.39609    33.94317    42.84370
   253  H   1.0    0.25    1.00    1.43    24.14389    28.76210    45.58647
   254  H   1.0    0.11    1.00    1.43    24.02996    36.54862    44.23233
   255  H   1.0    0.12    1.00    1.43    19.82100    30.46593    46.76317
   256  N   5.0   -0.47    3.01    1.93    26.19423    31.39918    38.28601
   257  C   4.0    0.08    3.99    3.61    24.26731    31.45808    36.34347
   258  C   4.0    0.11    3.00    3.02    23.67040    28.79291    35.36149
   259  O   6.0   -0.36    1.00    1.80    21.49848    28.07586    35.03496
   260  C   4.0   -0.14    3.98    3.59    25.17135    33.12375    34.16058
   261  C   4.0   -0.11    3.98    3.59    23.19893    33.42595    32.07943
   262  C   4.0    0.28    2.99    3.02    20.72432    34.69012    32.81140
   263  O   6.0   -0.37    1.00    1.80    18.78923    34.29522    31.61470
   264  N   5.0   -0.65    3.00    1.93    20.80161    36.33670    34.73992
   265  H   1.0    0.31    1.00    1.43    27.69265    32.58209    38.09300
   266  H   1.0    0.16    0.99    1.43    22.49412    32.17201    37.14808
   267  H   1.0    0.12    0.99    1.43    25.76110    34.95142    34.90938
   268  H   1.0    0.13    0.99    1.43    26.85692    32.23366    33.37716
   269  H   1.0    0.11    0.99    1.43    23.99002    34.54047    30.53224
   270  H   1.0    0.14    0.99    1.43    22.68868    31.57969    31.31498
   271  H   1.0    0.26    1.00    1.43    22.37673    36.63488    35.75696
   272  H   1.0    0.29    1.00    1.43    19.18199    37.17008    35.29140
   273  N   5.0   -0.69    3.00    1.93    46.32482    29.83896    59.48246
   274  C   4.0    0.06    3.98    3.58    47.01845    30.22530    56.84575
   275  C   4.0    0.08    3.00    3.02    49.85876    30.76098    56.73004
   276  O   6.0   -0.39    1.00    1.80    50.69151    32.64062    57.78817
   277  C   4.0   -0.12    3.99    3.60    45.52222    32.55141    55.92763
   278  C   4.0   -0.04    3.02    3.02    45.53752    33.04854    53.12874
   279  C   4.0   -0.10    3.03    3.02    47.32688    34.61032    52.01547
   280  C   4.0   -0.12    3.04    3.02    43.61211    32.08423    51.62479
   281  C   4.0   -0.11    3.03    3.02    47.16688    35.23146    49.48260
   282  C   4.0   -0.09    3.03    3.02    43.43551    32.67610    49.09434
   283  C   4.0    0.09    3.03    3.02    45.20460    34.29216    48.01291
   284  O   6.0   -0.50    1.99    1.83    44.91279    34.91900    45.53617
   285  H   1.0    0.27    1.00    1.43    45.97368    31.43367    60.47536
   286  H   1.0    0.10    0.99    1.43    46.50952    28.52983    55.78367
   287  H   1.0    0.10    0.99    1.43    43.56534    32.29140    56.52613
   288  H   1.0    0.13    0.99    1.43    46.30702    34.19704    56.89541
   289  H   1.0    0.13    1.00    1.43    48.83504    35.40712    53.13412
   290  H   1.0    0.11    1.00    1.43    42.19199    30.88277    52.45316
   291  H   1.0    0.10    1.00    1.43    48.53889    36.49508    48.65591
   292  H   1.0    0.12    1.00    1.43    41.90532    31.95906    47.95336
   293  H   1.0    0.24    0.99    1.43    46.24336    36.05476    45.01096
   294  H   1.0    0.29    1.00    1.43    54.65016    28.07904    41.88120
   295  H   1.0    0.12    1.00    1.43    51.84615    23.12977    46.73525
   296  H   1.0    0.31    1.00    1.43    48.71755    20.87574    24.64001
   297  H   1.0    0.14    1.00    1.43    53.78313    24.70620    30.81142
   298  H   1.0    0.29    1.00    1.43    54.72518    29.88634    28.17510
   299  H   1.0    0.12    1.00    1.43    59.07630    35.14842    24.93167
   300  H   1.0    0.29    1.00    1.43    54.47132    51.56474    40.70114
   301  H   1.0    0.16    1.00    1.43    25.07693    27.59274    34.97120
   302  H   1.0    0.29    1.00    1.43    44.91087    28.89746    59.56545
   303  H   1.0    0.12    1.00    1.43    51.00542    29.58228    55.79897

           ------------------------------------------------- 
          |        Self-Consistent Charge Iterations        |
           ------------------------------------------------- 

          ...................................................
          :                      SETUP                      :
          :.................................................:
          :  # basis functions                 747          :
          :  # atomic orbitals                 747          :
          :  # shells                          451          :
          :  # electrons                       826          :
          :  max. iterations                   250          :
          :  Hamiltonian                  GFN2-xTB          :
          :  restarted?                      false          :
          :  GBSA solvation                   true          :
          :  PC potential                    false          :
          :  electronic temp.          500.0000000     K    :
          :  accuracy                    0.1000000          :
          :  -> integral cutoff          0.3500000E+02      :
          :  -> integral neglect         0.1000000E-08      :
          :  -> SCF convergence          0.1000000E-06 Eh   :
          :  -> wf. convergence          0.1000000E-04 e    :
          :  Broyden damping             0.4000000          :
          ...................................................

 iter      E             dE          RMSdq      gap      omega  full diag
   1   -471.9676868 -0.471968E+03  0.419E+00    1.65       0.0  T
   2   -473.2112576 -0.124357E+01  0.220E+00    1.68       1.0  T
   3   -473.2601137 -0.488561E-01  0.119E+00    2.21       1.0  T
   4   -473.2729044 -0.127907E-01  0.353E-01    1.64       1.0  T
   5   -473.2957422 -0.228377E-01  0.128E-01    1.74       1.0  T
   6   -473.2968483 -0.110610E-02  0.703E-02    1.79       1.0  T
   7   -473.2972183 -0.370026E-03  0.307E-02    1.79       1.0  T
   8   -473.2972658 -0.475036E-04  0.107E-02    1.80       1.0  T
   9   -473.2972726 -0.673728E-05  0.589E-03    1.80       1.0  T
  10   -473.2972754 -0.282347E-05  0.265E-03    1.80       2.2  T
  11   -473.2972758 -0.387207E-06  0.114E-03    1.80       5.1  T
  12   -473.2972759 -0.971029E-07  0.452E-04    1.80      12.7  T
  13   -473.2972759 -0.124664E-07  0.240E-04    1.80      23.9  T
  14   -473.2972759 -0.374433E-08  0.117E-04    1.80      49.3  T
  15   -473.2972759 -0.993055E-09  0.462E-05    1.80     124.4  T
  16   -473.2972759 -0.148361E-09  0.210E-05    1.80     273.4  T

   *** convergence criteria satisfied after 16 iterations ***

         #    Occupation            Energy/Eh            Energy/eV
      -------------------------------------------------------------
         1        2.0000           -0.7319664             -19.9178
       ...           ...                  ...                  ...
       407        2.0000           -0.3732565             -10.1568
       408        2.0000           -0.3686579             -10.0317
       409        2.0000           -0.3685521             -10.0288
       410        2.0000           -0.3645501              -9.9199
       411        2.0000           -0.3638523              -9.9009
       412        2.0000           -0.3598018              -9.7907
       413        2.0000           -0.3551598              -9.6644 (HOMO)
       414                         -0.2889155              -7.8618 (LUMO)
       415                         -0.2872200              -7.8157
       416                         -0.2832602              -7.7079
       417                         -0.2810801              -7.6486
       418                         -0.2791353              -7.5957
       ...                                ...                  ...
       747                          0.7231154              19.6770
      -------------------------------------------------------------
                  HL-Gap            0.0662442 Eh            1.8026 eV
             Fermi-level           -0.3222449 Eh           -8.7687 eV

 SCC (total)                   0 d,  0 h,  0 min,  6.518 sec
 SCC setup                      ...        0 min,  0.139 sec (  2.132%)
 Dispersion                     ...        0 min,  0.093 sec (  1.424%)
 integral evaluation            ...        0 min,  0.405 sec (  6.206%)
 zeroth order Hamiltonian       ...        0 min,  0.011 sec (  0.170%)
 iterations                     ...        0 min,  5.208 sec ( 79.894%)
 molecular gradient             ...        0 min,  0.630 sec (  9.663%)
 printout                       ...        0 min,  0.033 sec (  0.510%)

         :::::::::::::::::::::::::::::::::::::::::::::::::::::
         ::                     SUMMARY                     ::
         :::::::::::::::::::::::::::::::::::::::::::::::::::::
         :: total energy             -467.435948598600 Eh   ::
         :: total w/o Gsasa/hb       -467.364918681762 Eh   ::
         :: gradient norm               0.505774783922 Eh/α ::
         :: HOMO-LUMO gap               1.802597545658 eV   ::
         ::.................................................::
         :: SCC energy               -473.318530517225 Eh   ::
         :: -> isotropic ES             1.472443617867 Eh   ::
         :: -> anisotropic ES          -0.060439137667 Eh   ::
         :: -> anisotropic XC           0.162761429379 Eh   ::
         :: -> dispersion              -0.377219946754 Eh   ::
         :: -> Gsolv                   -0.400350941516 Eh   ::
         ::    -> Gborn                -0.329321024678 Eh   ::
         ::    -> Gsasa                -0.023112081001 Eh   ::
         ::    -> Ghb                  -0.049775278963 Eh   ::
         ::    -> Gshift                0.001857443127 Eh   ::
         :: repulsion energy            5.856179321752 Eh   ::
         :: add. restraining            0.000000000000 Eh   ::
         :::::::::::::::::::::::::::::::::::::::::::::::::::::

           -------------------------------------------------
          |                Property Printout                |
           -------------------------------------------------

    * Orbital Energies and Occupations

         #    Occupation            Energy/Eh            Energy/eV
      -------------------------------------------------------------
         1        2.0000           -0.7319664             -19.9178
       ...           ...                  ...                  ...
       401        2.0000           -0.3845487             -10.4641
       402        2.0000           -0.3836825             -10.4405
       403        2.0000           -0.3810124             -10.3679
       404        2.0000           -0.3803102             -10.3488
       405        2.0000           -0.3786840             -10.3045
       406        2.0000           -0.3782072             -10.2915
       407        2.0000           -0.3732565             -10.1568
       408        2.0000           -0.3686579             -10.0317
       409        2.0000           -0.3685521             -10.0288
       410        2.0000           -0.3645501              -9.9199
       411        2.0000           -0.3638523              -9.9009
       412        2.0000           -0.3598018              -9.7907
       413        2.0000           -0.3551598              -9.6644 (HOMO)
       414                         -0.2889155              -7.8618 (LUMO)
       415                         -0.2872200              -7.8157
       416                         -0.2832602              -7.7079
       417                         -0.2810801              -7.6486
       418                         -0.2791353              -7.5957
       419                         -0.2472210              -6.7272
       420                         -0.2438983              -6.6368
       421                         -0.2397539              -6.5240
       422                         -0.2370129              -6.4494
       423                         -0.2349383              -6.3930
       424                         -0.2320483              -6.3144
       ...                                ...                  ...
       747                          0.7231154              19.6770
      -------------------------------------------------------------
                  HL-Gap            0.0662442 Eh            1.8026 eV
             Fermi-level           -0.3222449 Eh           -8.7687 eV

   #   Z        covCN         q      C6AA      α(0)
   1   7 N      2.638    -0.383    29.902     8.121
   2   6 C      3.786     0.033    20.040     6.376
   3   6 C      2.771     0.206    23.633     7.962
   4   8 O      0.856    -0.379    21.275     6.184
   5   6 C      3.855    -0.020    20.888     6.500
   6   6 C      3.803    -0.063    21.705     6.633
   7   6 C      3.756    -0.113    22.721     6.796
   8   6 C      3.752    -0.107    22.615     6.782
   9   1 H      0.860     0.155     1.366     1.831
  10   1 H      0.924     0.056     2.250     2.346
  11   1 H      0.924     0.035     2.515     2.480
  12   1 H      0.924     0.049     2.330     2.387
  13   1 H      0.924     0.037     2.486     2.466
  14   1 H      0.925     0.052     2.298     2.370
  15   1 H      0.925     0.027     2.635     2.538
  16   1 H      0.925     0.044     2.393     2.419
  17   1 H      0.925     0.039     2.457     2.451
  18   1 H      0.925     0.029     2.603     2.523
  19   1 H      0.925     0.046     2.366     2.406
  20   7 N      2.637    -0.422    30.993     8.268
  21   6 C      3.786     0.054    19.683     6.319
  22   6 C      2.755     0.265    22.533     7.773
  23   8 O      0.858    -0.501    23.805     6.542
  24   6 C      3.804    -0.091    22.240     6.714
  25   6 C      2.684     0.375    20.654     7.437
  26   8 O      0.856    -0.630    26.877     6.951
  27   8 O      0.856    -0.623    26.679     6.925
  28   1 H      0.859     0.190     1.158     1.686
  29   1 H      0.923     0.001     3.048     2.730
  30   1 H      0.924     0.026     2.644     2.543
  31   1 H      0.925     0.020     2.733     2.585
  32   7 N      2.690    -0.179    24.884     7.409
  33   6 C      3.791     0.026    20.144     6.392
  34   6 C      2.765     0.211    23.535     7.945
  35   8 O      0.856    -0.346    20.623     6.089
  36   6 C      3.681     0.076    19.513     6.326
  37   8 O      1.656    -0.477    22.403     6.390
  38   1 H      0.860     0.221     1.005     1.570
  39   1 H      0.923     0.097     1.813     2.105
  40   1 H      0.924     0.058     2.226     2.333
  41   1 H      0.923     0.047     2.354     2.399
  42   1 H      0.805     0.360     0.565     1.181
  43   7 N      2.637    -0.391    30.131     8.152
  44   6 C      3.780     0.034    20.015     6.373
  45   6 C      2.769     0.195    23.838     7.996
  46   8 O      0.856    -0.376    21.200     6.173
  47   6 C      3.806    -0.075    21.932     6.667
  48   6 C      3.849    -0.007    20.672     6.467
  49   6 C      3.756    -0.106    22.572     6.774
  50   6 C      3.755    -0.114    22.744     6.800
  51   1 H      0.860     0.170     1.274     1.768
  52   1 H      0.924     0.070     2.090     2.261
  53   1 H      0.924     0.044     2.390     2.418
  54   1 H      0.924     0.054     2.275     2.359
  55   1 H      0.924     0.031     2.578     2.511
  56   1 H      0.925     0.034     2.525     2.485
  57   1 H      0.925     0.035     2.521     2.483
  58   1 H      0.925     0.039     2.460     2.453
  59   1 H      0.925     0.036     2.508     2.477
  60   1 H      0.925     0.042     2.416     2.431
  61   1 H      0.925     0.043     2.406     2.426
  62   7 N      2.635    -0.401    30.397     8.188
  63   6 C      3.789     0.016    20.325     6.421
  64   6 C      2.759     0.267    22.502     7.768
  65   8 O      0.858    -0.485    23.457     6.493
  66   6 C      3.806    -0.086    22.131     6.697
  67   6 C      3.802    -0.088    22.173     6.704
  68   6 C      3.736    -0.026    21.129     6.560
  69   7 N      2.701    -0.145    24.133     7.296
  70   6 C      2.735     0.230    23.173     7.881
  71   7 N      2.647    -0.261    26.775     7.685
  72   7 N      2.655    -0.256    26.654     7.668
  73   1 H      0.860     0.159     1.340     1.813
  74   1 H      0.924     0.073     2.058     2.243
  75   1 H      0.924     0.069     2.097     2.265
  76   1 H      0.924     0.051     2.311     2.378
  77   1 H      0.925     0.073     2.048     2.238
  78   1 H      0.924     0.058     2.226     2.333
  79   1 H      0.924     0.086     1.921     2.168
  80   1 H      0.925     0.088     1.903     2.157
  81   1 H      0.860     0.230     0.963     1.537
  82   1 H      0.860     0.242     0.917     1.500
  83   1 H      0.860     0.248     0.891     1.478
  84   1 H      0.860     0.248     0.893     1.480
  85   1 H      0.860     0.252     0.877     1.467
  86   7 N      2.689    -0.166    24.589     7.365
  87   6 C      3.750    -0.029    21.161     6.561
  88   6 C      2.753     0.292    22.042     7.688
  89   8 O      0.858    -0.482    23.385     6.484
  90   1 H      0.860     0.226     0.983     1.553
  91   1 H      0.924     0.086     1.922     2.168
  92   1 H      0.925     0.083     1.948     2.183
  93   7 N      2.692    -0.189    25.107     7.442
  94   6 C      3.795     0.028    20.108     6.385
  95   6 C      2.761     0.278    22.299     7.733
  96   8 O      0.859    -0.510    24.011     6.570
  97   6 C      3.758    -0.137    23.186     6.865
  98   1 H      0.860     0.229     0.970     1.543
  99   1 H      0.923     0.061     2.184     2.311
 100   1 H      0.925     0.068     2.112     2.273
 101   1 H      0.925     0.076     2.018     2.221
 102   1 H      0.925     0.081     1.964     2.191
 103   7 N      2.691    -0.171    24.708     7.383
 104   6 C      3.806     0.015    20.312     6.416
 105   6 C      2.761     0.281    22.252     7.725
 106   8 O      0.858    -0.495    23.675     6.524
 107   6 C      3.852    -0.027    21.016     6.520
 108   6 C      3.756    -0.125    22.960     6.832
 109   6 C      3.756    -0.128    23.010     6.839
 110   1 H      0.860     0.214     1.037     1.595
 111   1 H      0.924     0.073     2.052     2.240
 112   1 H      0.924     0.062     2.172     2.305
 113   1 H      0.925     0.081     1.967     2.193
 114   1 H      0.925     0.052     2.296     2.369
 115   1 H      0.925     0.037     2.484     2.465
 116   1 H      0.925     0.074     2.046     2.237
 117   1 H      0.925     0.047     2.353     2.399
 118   1 H      0.925     0.047     2.352     2.398
 119   7 N      2.692    -0.176    24.805     7.397
 120   6 C      3.804     0.035    19.975     6.363
 121   6 C      2.759     0.276    22.337     7.740
 122   8 O      0.858    -0.502    23.836     6.546
 123   6 C      3.813    -0.107    22.532     6.756
 124   6 C      2.745     0.290    22.083     7.694
 125   8 O      0.859    -0.461    22.944     6.422
 126   7 N      2.640    -0.275    27.124     7.735
 127   1 H      0.860     0.236     0.938     1.517
 128   1 H      0.924     0.083     1.952     2.185
 129   1 H      0.924     0.084     1.936     2.176
 130   1 H      0.924     0.076     2.018     2.222
 131   1 H      0.860     0.250     0.882     1.471
 132   1 H      0.860     0.222     1.001     1.567
 133   7 N      2.693    -0.195    25.236     7.461
 134   6 C      3.800     0.050    19.738     6.325
 135   6 C      2.764     0.272    22.404     7.752
 136   8 O      0.858    -0.509    23.989     6.567
 137   6 C      3.804    -0.095    22.308     6.724
 138   6 C      2.681     0.379    20.575     7.423
 139   8 O      0.856    -0.624    26.710     6.929
 140   8 O      0.856    -0.640    27.122     6.982
 141   1 H      0.860     0.234     0.949     1.526
 142   1 H      0.923     0.047     2.362     2.404
 143   1 H      0.924     0.033     2.545     2.495
 144   1 H      0.924     0.020     2.733     2.585
 145   7 N      2.692    -0.185    25.009     7.427
 146   6 C      3.799     0.029    20.097     6.383
 147   6 C      2.758     0.275    22.343     7.741
 148   8 O      0.859    -0.497    23.727     6.531
 149   6 C      3.805    -0.076    21.948     6.669
 150   6 C      3.849    -0.006    20.649     6.463
 151   6 C      3.757    -0.110    22.666     6.788
 152   6 C      3.756    -0.112    22.701     6.793
 153   1 H      0.860     0.224     0.992     1.560
 154   1 H      0.923     0.065     2.139     2.287
 155   1 H      0.924     0.064     2.151     2.293
 156   1 H      0.924     0.060     2.204     2.322
 157   1 H      0.924     0.025     2.654     2.548
 158   1 H      0.925     0.047     2.356     2.400
 159   1 H      0.925     0.038     2.481     2.463
 160   1 H      0.925     0.042     2.422     2.434
 161   1 H      0.925     0.037     2.484     2.465
 162   1 H      0.925     0.042     2.429     2.437
 163   1 H      0.925     0.038     2.480     2.463
 164   7 N      2.691    -0.183    24.970     7.422
 165   6 C      3.798     0.027    20.123     6.387
 166   6 C      2.755     0.282    22.218     7.719
 167   8 O      0.858    -0.503    23.858     6.549
 168   6 C      3.808    -0.081    22.048     6.684
 169   6 C      3.848    -0.009    20.711     6.473
 170   6 C      3.757    -0.123    22.909     6.824
 171   6 C      3.755    -0.116    22.770     6.804
 172   1 H      0.860     0.232     0.956     1.532
 173   1 H      0.923     0.066     2.130     2.282
 174   1 H      0.924     0.078     1.998     2.210
 175   1 H      0.924     0.053     2.285     2.364
 176   1 H      0.924     0.031     2.573     2.508
 177   1 H      0.925     0.052     2.290     2.367
 178   1 H      0.925     0.045     2.384     2.415
 179   1 H      0.925     0.054     2.268     2.355
 180   1 H      0.925     0.052     2.296     2.370
 181   1 H      0.925     0.044     2.392     2.418
 182   1 H      0.925     0.022     2.708     2.574
 183   7 N      2.692    -0.192    25.163     7.450
 184   6 C      3.796     0.030    20.073     6.380
 185   6 C      2.758     0.274    22.369     7.745
 186   8 O      0.859    -0.494    23.662     6.522
 187   6 C      3.757    -0.129    23.039     6.844
 188   1 H      0.860     0.228     0.973     1.545
 189   1 H      0.923     0.069     2.096     2.264
 190   1 H      0.925     0.070     2.081     2.256
 191   1 H      0.925     0.077     2.013     2.219
 192   1 H      0.925     0.052     2.295     2.369
 193   7 N      2.690    -0.183    24.957     7.420
 194   6 C      3.798     0.018    20.267     6.410
 195   6 C      2.757     0.282    22.232     7.721
 196   8 O      0.858    -0.494    23.641     6.519
 197   6 C      3.805    -0.076    21.952     6.670
 198   6 C      3.804    -0.069    21.824     6.651
 199   6 C      3.801    -0.093    22.270     6.719
 200   6 C      3.733    -0.044    21.452     6.611
 201   7 N      3.472    -0.150    24.233     7.311
 202   1 H      0.860     0.221     1.007     1.572
 203   1 H      0.924     0.074     2.038     2.233
 204   1 H      0.925     0.067     2.123     2.278
 205   1 H      0.924     0.052     2.291     2.367
 206   1 H      0.924     0.057     2.231     2.336
 207   1 H      0.924     0.042     2.428     2.437
 208   1 H      0.924     0.076     2.020     2.223
 209   1 H      0.925     0.084     1.937     2.177
 210   1 H      0.925     0.107     1.721     2.052
 211   1 H      0.924     0.105     1.741     2.063
 212   1 H      0.847     0.312     0.681     1.293
 213   1 H      0.859     0.301     0.711     1.321
 214   1 H      0.859     0.302     0.708     1.318
 215   7 N      2.691    -0.197    25.268     7.466
 216   6 C      3.801     0.033    20.019     6.370
 217   6 C      2.767     0.295    22.002     7.682
 218   8 O      0.859    -0.502    23.830     6.545
 219   6 C      3.809    -0.075    21.927     6.666
 220   6 C      3.061    -0.038    28.870     8.811
 221   6 C      3.033    -0.013    28.312     8.728
 222   6 C      3.118    -0.020    28.324     8.717
 223   7 N      2.780    -0.116    23.523     7.203
 224   6 C      3.090     0.044    26.914     8.504
 225   6 C      2.912    -0.039    28.961     8.825
 226   6 C      2.908    -0.058    29.443     8.897
 227   6 C      2.921    -0.046    29.152     8.854
 228   6 C      2.926    -0.042    29.039     8.837
 229   1 H      0.860     0.233     0.952     1.528
 230   1 H      0.923     0.053     2.284     2.364
 231   1 H      0.924     0.054     2.265     2.354
 232   1 H      0.925     0.066     2.134     2.284
 233   1 H      0.926     0.047     2.361     2.403
 234   1 H      0.860     0.203     1.092     1.637
 235   1 H      0.926     0.016     2.793     2.613
 236   1 H      0.926     0.038     2.480     2.463
 237   1 H      0.926     0.023     2.688     2.564
 238   1 H      0.926     0.030     2.584     2.514
 239   7 N      2.691    -0.189    25.109     7.442
 240   6 C      3.805     0.031    20.047     6.374
 241   6 C      2.758     0.284    22.190     7.714
 242   8 O      0.859    -0.503    23.843     6.547
 243   6 C      3.808    -0.081    22.041     6.683
 244   6 C      3.074     0.026    27.352     8.575
 245   7 N      2.819    -0.103    23.256     7.162
 246   6 C      3.167     0.001    27.641     8.591
 247   6 C      3.154     0.090    25.721     8.294
 248   7 N      1.910    -0.295    28.480     7.912
 249   1 H      0.860     0.223     0.998     1.565
 250   1 H      0.923     0.062     2.171     2.304
 251   1 H      0.924     0.080     1.981     2.201
 252   1 H      0.924     0.072     2.064     2.247
 253   1 H      0.860     0.192     1.147     1.678
 254   1 H      0.926     0.038     2.478     2.461
 255   1 H      0.926     0.043     2.410     2.428
 256   7 N      2.691    -0.180    24.892     7.410
 257   6 C      3.795     0.033    20.031     6.373
 258   6 C      2.765     0.218    23.400     7.922
 259   8 O      0.856    -0.372    21.131     6.163
 260   6 C      3.807    -0.078    21.975     6.673
 261   6 C      3.805    -0.104    22.481     6.750
 262   6 C      2.742     0.291    22.059     7.690
 263   8 O      0.859    -0.509    23.989     6.567
 264   7 N      2.637    -0.288    27.437     7.779
 265   1 H      0.860     0.236     0.941     1.520
 266   1 H      0.924     0.073     2.056     2.242
 267   1 H      0.924     0.078     2.001     2.212
 268   1 H      0.924     0.080     1.978     2.199
 269   1 H      0.924     0.095     1.834     2.118
 270   1 H      0.924     0.071     2.075     2.253
 271   1 H      0.860     0.224     0.992     1.560
 272   1 H      0.860     0.230     0.965     1.539
 273   7 N      2.640    -0.388    30.048     8.141
 274   6 C      3.781     0.040    19.920     6.358
 275   6 C      2.767     0.206    23.632     7.961
 276   8 O      0.856    -0.358    20.865     6.124
 277   6 C      3.814    -0.075    21.920     6.664
 278   6 C      2.966    -0.005    28.142     8.702
 279   6 C      2.925    -0.042    29.031     8.836
 280   6 C      2.928    -0.042    29.044     8.838
 281   6 C      2.918    -0.074    29.847     8.959
 282   6 C      2.917    -0.059    29.463     8.901
 283   6 C      2.848     0.142    24.895     8.177
 284   8 O      1.659    -0.419    21.216     6.218
 285   1 H      0.860     0.169     1.279     1.772
 286   1 H      0.924     0.046     2.364     2.405
 287   1 H      0.924     0.055     2.255     2.348
 288   1 H      0.924     0.061     2.184     2.311
 289   1 H      0.926     0.042     2.419     2.432
 290   1 H      0.926     0.042     2.417     2.431
 291   1 H      0.926     0.049     2.331     2.387
 292   1 H      0.926     0.041     2.441     2.443
 293   1 H      0.805     0.319     0.667     1.283
 294   1 H      0.862     0.187     1.176     1.699
 295   1 H      0.930     0.069     2.100     2.266
 296   1 H      0.862     0.171     1.266     1.763
 297   1 H      0.930     0.073     2.048     2.238
 298   1 H      0.862     0.173     1.253     1.754
 299   1 H      0.930     0.069     2.100     2.266
 300   1 H      0.862     0.194     1.134     1.668
 301   1 H      0.930     0.072     2.062     2.245
 302   1 H      0.862     0.187     1.172     1.696
 303   1 H      0.930     0.065     2.136     2.285

 Mol. C6AA /au·bohr⁶  :     862749.261563
 Mol. C8AA /au·bohr⁸  :   19239442.680921
 Mol. α(0) /au        :       1396.580826


Wiberg/Mayer (AO) data.
largest (>0.10) Wiberg bond orders for each atom
          total WBO             WBO to atom ...
     1  N   2.995        C    2 1.010    H    9 0.957    H  294 0.940
     2  C   3.983        N    1 1.010    C    3 0.983    H   10 0.962    C    5 0.940
     3  C   3.893        O    4 1.891    C    2 0.983    H  295 0.955
     4  O   2.035        C    3 1.891
     5  C   3.992        C    7 1.009    C    6 0.995    H   11 0.966    C    2 0.940
     6  C   3.996        C    8 1.019    C    5 0.995    H   12 0.976    H   13 0.966
     7  C   3.995        C    5 1.009    H   16 0.985    H   15 0.982    H   14 0.981
     8  C   3.995        C    6 1.019    H   17 0.986    H   19 0.981    H   18 0.981
     9  H   0.976        N    1 0.957
    10  H   0.997        C    2 0.962
    11  H   0.999        C    5 0.966
    12  H   0.997        C    6 0.976
    13  H   0.999        C    6 0.966
    14  H   0.997        C    7 0.981
    15  H   0.999        C    7 0.982
    16  H   0.998        C    7 0.985
    17  H   0.998        C    8 0.986
    18  H   0.999        C    8 0.981
    19  H   0.998        C    8 0.981
    20  N   2.992        C   21 1.026    H  296 0.961    H   28 0.898
    21  C   3.988        N   20 1.026    C   24 0.968    H   29 0.954    C   22 0.937
    22  C   3.945        O   23 1.627    N   32 1.292    C   21 0.937
    23  O   1.941        C   22 1.627    N   32 0.190
    24  C   3.986        H   31 0.981    H   30 0.973    C   21 0.968    C   25 0.910
    25  C   3.935        O   27 1.527    O   26 1.471    C   24 0.910
    26  O   1.832        C   25 1.471    O   27 0.214
    27  O   1.821        C   25 1.527    O   26 0.214
    28  H   0.964        N   20 0.898
    29  H   1.000        C   21 0.954
    30  H   0.999        C   24 0.973
    31  H   1.000        C   24 0.981
    32  N   3.457        C   22 1.292    C   33 0.986    H   38 0.910    O   23 0.190
    33  C   3.965        N   32 0.986    C   34 0.970    C   36 0.961    H   39 0.944
    34  C   3.906        O   35 1.913    C   33 0.970    H  297 0.953
    35  O   2.053        C   34 1.913
    36  C   3.960        O   37 1.012    H   41 0.966    H   40 0.962    C   33 0.961
    37  O   1.924        C   36 1.012    H   42 0.857
    38  H   0.951        N   32 0.910
    39  H   0.990        C   33 0.944
    40  H   0.997        C   36 0.962
    41  H   0.998        C   36 0.966
    42  H   0.870        O   37 0.857
    43  N   2.999        C   44 1.029    H   51 0.944    H  298 0.941
    44  C   3.987        N   43 1.029    C   45 0.990    C   47 0.953    H   52 0.933
    45  C   3.901        O   46 1.877    C   44 0.990    H  299 0.956
    46  O   2.045        C   45 1.877
    47  C   3.992        C   48 0.989    H   53 0.977    H   54 0.974    C   44 0.953
    48  C   3.996        C   49 1.010    C   50 1.008    C   47 0.989    H   55 0.968
    49  C   3.996        C   48 1.010    H   58 0.985    H   56 0.984    H   57 0.972
    50  C   3.994        C   48 1.008    H   60 0.987    H   61 0.986    H   59 0.986
    51  H   0.971        N   43 0.944
    52  H   0.995        C   44 0.933
    53  H   0.998        C   47 0.977
    54  H   0.997        C   47 0.974
    55  H   0.999        C   48 0.968
    56  H   0.998        C   49 0.984
    57  H   0.999        C   49 0.972
    58  H   0.998        C   49 0.985
    59  H   0.998        C   50 0.986
    60  H   0.998        C   50 0.987
    61  H   0.998        C   50 0.986
    62  N   2.991        C   63 1.014    H   73 0.955    H  300 0.950
    63  C   3.982        N   62 1.014    C   66 0.972    H   74 0.959    C   64 0.942
    64  C   3.935        O   65 1.625    N   86 1.289    C   63 0.942
    65  O   1.977        C   64 1.625    N   86 0.192
    66  C   3.991        C   67 1.007    H   76 0.973    C   63 0.972    H   75 0.970
    67  C   3.991        C   66 1.007    C   68 1.000    H   77 0.976    H   78 0.968
    68  C   3.957        C   67 1.000    N   69 0.989    H   80 0.960    H   79 0.956
    69  N   3.473        C   70 1.322    C   68 0.989    H   81 0.890    N   72 0.108
    70  C   3.977        N   72 1.329    N   69 1.322    N   71 1.292
    71  N   3.361        C   70 1.292    H   83 0.919    H   82 0.912
    72  N   3.404        C   70 1.329    H   85 0.917    H   84 0.902    N   69 0.108
    73  H   0.975        N   62 0.955
    74  H   0.995        C   63 0.959
    75  H   0.995        C   66 0.970
    76  H   0.997        C   66 0.973
    77  H   0.995        C   67 0.976
    78  H   0.997        C   67 0.968
    79  H   0.993        C   68 0.956
    80  H   0.992        C   68 0.960
    81  H   0.947        N   69 0.890
    82  H   0.942        N   71 0.912
    83  H   0.938        N   71 0.919
    84  H   0.939        N   72 0.902
    85  H   0.936        N   72 0.917
    86  N   3.463        C   64 1.289    C   87 0.999    H   90 0.917    O   65 0.192
    87  C   3.972        N   86 0.999    H   92 0.961    H   91 0.960    C   88 0.944
    88  C   3.940        O   89 1.618    N   93 1.301    C   87 0.944
    89  O   2.009        C   88 1.618    N   93 0.188
    90  H   0.949        N   86 0.917
    91  H   0.992        C   87 0.960
    92  H   0.993        C   87 0.961
    93  N   3.452        C   88 1.301    C   94 0.973    H   98 0.915    O   89 0.188
    94  C   3.965        C   97 0.993    N   93 0.973    H   99 0.948    C   95 0.941
    95  C   3.948        O   96 1.601    N  103 1.319    C   94 0.941
    96  O   1.950        C   95 1.601    N  103 0.194
    97  C   3.981        C   94 0.993    H  100 0.981    H  102 0.980    H  101 0.979
    98  H   0.947        N   93 0.915
    99  H   0.996        C   94 0.948
   100  H   0.995        C   97 0.981
   101  H   0.994        C   97 0.979
   102  H   0.993        C   97 0.980
   103  N   3.475        C   95 1.319    C  104 0.966    H  110 0.917    O   96 0.194
   104  C   3.950        N  103 0.966    C  107 0.966    H  111 0.952    C  105 0.934
   105  C   3.945        O  106 1.608    N  119 1.317    C  104 0.934
   106  O   1.963        C  105 1.608    N  119 0.195
   107  C   3.983        C  109 1.008    C  108 1.006    C  104 0.966    H  112 0.960
   108  C   3.990        C  107 1.006    H  115 0.984    H  114 0.983    H  113 0.980
   109  C   3.991        C  107 1.008    H  117 0.985    H  118 0.985    H  116 0.981
   110  H   0.954        N  103 0.917
   111  H   0.994        C  104 0.952
   112  H   0.996        C  107 0.960
   113  H   0.993        C  108 0.980
   114  H   0.997        C  108 0.983
   115  H   0.999        C  108 0.984
   116  H   0.994        C  109 0.981
   117  H   0.998        C  109 0.985
   118  H   0.998        C  109 0.985
   119  N   3.478        C  105 1.317    C  120 0.987    H  127 0.886    O  106 0.195
   120  C   3.971        N  119 0.987    C  123 0.985    H  128 0.948    C  121 0.935
   121  C   3.942        O  122 1.582    N  133 1.335    C  120 0.935
   122  O   1.946        C  121 1.582    N  133 0.192
   123  C   3.987        C  120 0.985    C  124 0.970    H  130 0.955    H  129 0.945
   124  C   3.955        O  125 1.620    N  126 1.326    C  123 0.970
   125  O   1.975        C  124 1.620    N  126 0.197
   126  N   3.408        C  124 1.326    H  132 0.933    H  131 0.914    O  125 0.197
   127  H   0.944        N  119 0.886
   128  H   0.993        C  120 0.948
   129  H   0.993        C  123 0.945
   130  H   0.993        C  123 0.955
   131  H   0.936        N  126 0.914
   132  H   0.951        N  126 0.933
   133  N   3.479        C  121 1.335    C  134 0.983    H  141 0.860    O  122 0.192
   134  C   3.973        N  133 0.983    C  137 0.982    H  142 0.952    C  135 0.942
   135  C   3.950        O  136 1.583    N  145 1.327    C  134 0.942
   136  O   1.929        C  135 1.583    N  145 0.191
   137  C   3.977        C  134 0.982    H  143 0.970    H  144 0.965    C  138 0.893
   138  C   3.937        O  139 1.522    O  140 1.494    C  137 0.893
   139  O   1.820        C  138 1.522    O  140 0.217
   140  O   1.796        C  138 1.494    O  139 0.217
   141  H   0.945        N  133 0.860
   142  H   0.997        C  134 0.952
   143  H   0.999        C  137 0.970
   144  H   0.999        C  137 0.965
   145  N   3.481        C  135 1.327    C  146 0.975    H  153 0.890    O  136 0.191
   146  C   3.959        C  149 0.977    N  145 0.975    H  154 0.948    C  147 0.936
   147  C   3.949        O  148 1.584    N  164 1.341    C  146 0.936
   148  O   1.962        C  147 1.584    N  164 0.197
   149  C   3.986        C  150 0.994    C  146 0.977    H  156 0.973    H  155 0.966
   150  C   3.994        C  152 1.010    C  151 1.008    C  149 0.994    H  157 0.968
   151  C   3.994        C  150 1.008    H  159 0.986    H  158 0.983    H  160 0.979
   152  C   3.996        C  150 1.010    H  161 0.986    H  162 0.986    H  163 0.982
   153  H   0.950        N  145 0.890
   154  H   0.995        C  146 0.948
   155  H   0.996        C  149 0.966
   156  H   0.996        C  149 0.973
   157  H   0.999        C  150 0.968
   158  H   0.997        C  151 0.983
   159  H   0.999        C  151 0.986
   160  H   0.998        C  151 0.979
   161  H   0.999        C  152 0.986
   162  H   0.998        C  152 0.986
   163  H   0.999        C  152 0.982
   164  N   3.485        C  147 1.341    C  165 0.969    H  172 0.887    O  148 0.197
   165  C   3.957        C  168 0.979    N  164 0.969    H  173 0.952    C  166 0.938
   166  C   3.946        O  167 1.596    N  183 1.323    C  165 0.938
   167  O   1.943        C  166 1.596    N  183 0.194
   168  C   3.981        C  169 0.992    C  165 0.979    H  175 0.969    H  174 0.963
   169  C   3.993        C  171 1.010    C  170 1.008    C  168 0.992    H  176 0.969
   170  C   3.993        C  169 1.008    H  179 0.986    H  177 0.985    H  178 0.985
   171  C   3.995        C  169 1.010    H  181 0.986    H  180 0.985    H  182 0.984
   172  H   0.946        N  164 0.887
   173  H   0.995        C  165 0.952
   174  H   0.993        C  168 0.963
   175  H   0.997        C  168 0.969
   176  H   0.999        C  169 0.969
   177  H   0.997        C  170 0.985
   178  H   0.998        C  170 0.985
   179  H   0.997        C  170 0.986
   180  H   0.997        C  171 0.985
   181  H   0.998        C  171 0.986
   182  H   1.000        C  171 0.984
   183  N   3.475        C  166 1.323    C  184 0.979    H  188 0.877    O  167 0.194
   184  C   3.968        C  187 0.997    N  183 0.979    H  189 0.953    C  185 0.936
   185  C   3.948        O  186 1.595    N  193 1.332    C  184 0.936
   186  O   1.953        C  185 1.595    N  193 0.197
   187  C   3.986        C  184 0.997    H  190 0.981    H  192 0.981    H  191 0.978
   188  H   0.948        N  183 0.877
   189  H   0.995        C  184 0.953
   190  H   0.994        C  187 0.981
   191  H   0.994        C  187 0.978
   192  H   0.997        C  187 0.981
   193  N   3.484        C  185 1.332    C  194 0.973    H  202 0.889    O  186 0.197
   194  C   3.962        C  197 0.983    N  193 0.973    H  203 0.952    C  195 0.931
   195  C   3.949        O  196 1.618    N  215 1.321    C  194 0.931
   196  O   1.947        C  195 1.618    N  215 0.201
   197  C   3.988        C  198 1.006    C  194 0.983    H  204 0.973    H  205 0.966
   198  C   3.993        C  197 1.006    C  199 1.003    H  206 0.975    H  207 0.973
   199  C   3.986        C  200 1.010    C  198 1.003    H  209 0.971    H  208 0.969
   200  C   3.923        C  199 1.010    H  211 0.969    H  210 0.968    N  201 0.959
   201  N   3.663        C  200 0.959    H  214 0.899    H  213 0.893    H  212 0.892
   202  H   0.951        N  193 0.889
   203  H   0.994        C  194 0.952
   204  H   0.995        C  197 0.973
   205  H   0.997        C  197 0.966
   206  H   0.996        C  198 0.975
   207  H   0.998        C  198 0.973
   208  H   0.994        C  199 0.969
   209  H   0.993        C  199 0.971
   210  H   0.989        C  200 0.968
   211  H   0.989        C  200 0.969
   212  H   0.903        N  201 0.892
   213  H   0.910        N  201 0.893
   214  H   0.909        N  201 0.899
   215  N   3.472        C  195 1.321    C  216 0.978    H  229 0.872    O  196 0.201
   216  C   3.967        N  215 0.978    C  219 0.967    H  230 0.955    C  217 0.938
   217  C   3.945        O  218 1.638    N  239 1.291    C  216 0.938
   218  O   1.945        C  217 1.638    N  239 0.190
   219  C   3.988        C  220 1.011    H  231 0.968    C  216 0.967    H  232 0.961
   220  C   3.975        C  221 1.577    C  222 1.209    C  219 1.011
   221  C   3.952        C  220 1.577    N  223 1.204    H  233 0.967
   222  C   3.986        C  225 1.330    C  224 1.246    C  220 1.209
   223  N   3.543        C  221 1.204    C  224 1.183    H  234 0.931
   224  C   3.962        C  226 1.336    C  222 1.246    N  223 1.183
   225  C   3.993        C  227 1.506    C  222 1.330    H  235 0.969    C  226 0.113
   226  C   3.988        C  228 1.495    C  224 1.336    H  236 0.968    C  225 0.113
   227  C   3.991        C  225 1.506    C  228 1.370    H  237 0.972
   228  C   3.991        C  226 1.495    C  227 1.370    H  238 0.972
   229  H   0.946        N  215 0.872
   230  H   0.997        C  216 0.955
   231  H   0.997        C  219 0.968
   232  H   0.995        C  219 0.961
   233  H   0.997        C  221 0.967
   234  H   0.958        N  223 0.931
   235  H   0.999        C  225 0.969
   236  H   0.998        C  226 0.968
   237  H   0.999        C  227 0.972
   238  H   0.999        C  228 0.972
   239  N   3.452        C  217 1.291    C  240 0.982    H  249 0.900    O  218 0.190
   240  C   3.968        N  239 0.982    C  243 0.974    H  250 0.953    C  241 0.929
   241  C   3.947        O  242 1.619    N  256 1.321    C  240 0.929
   242  O   1.956        C  241 1.619    N  256 0.199
   243  C   3.989        C  244 1.015    C  240 0.974    H  252 0.966    H  251 0.955
   244  C   3.944        C  246 1.553    N  245 1.199    C  243 1.015    C  247 0.110
   245  N   3.591        C  247 1.264    C  244 1.199    H  253 0.932    N  248 0.103
   246  C   3.969        C  244 1.553    N  248 1.290    H  254 0.971
   247  C   3.956        N  248 1.550    N  245 1.264    H  255 0.965    C  244 0.110
   248  N   3.015        C  247 1.550    C  246 1.290    N  245 0.103
   249  H   0.950        N  239 0.900
   250  H   0.996        C  240 0.953
   251  H   0.993        C  243 0.955
   252  H   0.995        C  243 0.966
   253  H   0.963        N  245 0.932
   254  H   0.999        C  246 0.971
   255  H   0.998        C  247 0.965
   256  N   3.475        C  241 1.321    C  257 0.979    H  265 0.881    O  242 0.199
   257  C   3.967        N  256 0.979    C  258 0.970    C  260 0.969    H  266 0.948
   258  C   3.898        O  259 1.892    C  257 0.970    H  301 0.954
   259  O   2.038        C  258 1.892
   260  C   3.984        C  261 1.008    C  257 0.969    H  268 0.966    H  267 0.959
   261  C   3.992        C  260 1.008    C  262 0.970    H  270 0.966    H  269 0.947
   262  C   3.943        O  263 1.643    N  264 1.302    C  261 0.970
   263  O   1.940        C  262 1.643    N  264 0.197
   264  N   3.391        C  262 1.302    H  272 0.926    H  271 0.924    O  263 0.197
   265  H   0.944        N  256 0.881
   266  H   0.995        C  257 0.948
   267  H   0.994        C  260 0.959
   268  H   0.994        C  260 0.966
   269  H   0.991        C  261 0.947
   270  H   0.995        C  261 0.966
   271  H   0.950        N  264 0.924
   272  H   0.947        N  264 0.926
   273  N   2.997        C  274 1.003    H  285 0.955    H  302 0.952
   274  C   3.984        N  273 1.003    C  275 0.975    H  286 0.970    C  277 0.949
   275  C   3.896        O  276 1.911    C  274 0.975    H  303 0.955
   276  O   2.045        C  275 1.911
   277  C   3.992        C  278 1.012    H  288 0.967    H  287 0.967    C  274 0.949
   278  C   3.988        C  279 1.411    C  280 1.401    C  277 1.012
   279  C   3.991        C  281 1.449    C  278 1.411    H  289 0.969    C  282 0.107
   280  C   3.991        C  282 1.462    C  278 1.401    H  290 0.968    C  281 0.104
   281  C   3.986        C  279 1.449    C  283 1.374    H  291 0.964    C  280 0.104
   282  C   3.989        C  280 1.462    C  283 1.362    H  292 0.969    C  279 0.107
   283  C   3.933        C  281 1.374    C  282 1.362    O  284 1.063
   284  O   2.105        C  283 1.063    H  293 0.872
   285  H   0.971        N  273 0.955
   286  H   0.998        C  274 0.970
   287  H   0.996        C  277 0.967
   288  H   0.996        C  277 0.967
   289  H   0.998        C  279 0.969
   290  H   0.998        C  280 0.968
   291  H   0.997        C  281 0.964
   292  H   0.998        C  282 0.969
   293  H   0.898        O  284 0.872
   294  H   0.965        N    1 0.940
   295  H   0.995        C    3 0.955
   296  H   0.971        N   20 0.961
   297  H   0.995        C   34 0.953
   298  H   0.970        N   43 0.941
   299  H   0.995        C   45 0.956
   300  H   0.962        N   62 0.950
   301  H   0.995        C  258 0.954
   302  H   0.965        N  273 0.952
   303  H   0.996        C  275 0.955
 
molecular dipole:
                 x           y           z       tot (Debye)
 q only:        9.084      23.527      20.057
   full:       10.637      25.006      18.245      83.195
molecular quadrupole (traceless):
                xx          xy          yy          xz          yz          zz
 q only:    -1064.317    2150.798     744.168    1929.351    2639.278     320.149
  q+dip:     -989.378    2345.055     910.688    1872.250    2613.475      78.690
   full:     -986.895    2340.510     906.534    1873.217    2612.604      80.362


           -------------------------------------------------
          | TOTAL ENERGY             -467.435948598600 Eh   |
          | GRADIENT NORM               0.505774783922 Eh/α |
          | HOMO-LUMO GAP               1.802597545658 eV   |
           -------------------------------------------------

------------------------------------------------------------------------
 * finished run on 2019/05/31 at 06:33:55.369     
------------------------------------------------------------------------
 total:
 * wall-time:     0 d,  0 h,  0 min,  6.910 sec
 *  cpu-time:     0 d,  0 h,  0 min, 13.364 sec
 * ratio c/w:     1.934 speedup
 SCF:
 * wall-time:     0 d,  0 h,  0 min,  6.522 sec
 *  cpu-time:     0 d,  0 h,  0 min, 12.698 sec
 * ratio c/w:     1.947 speedup

