      -----------------------------------------------------------      
     |                   =====================                   |     
     |                           x T B                           |     
     |                   =====================                   |     
     |                         S. Grimme                         |     
     |          Mulliken Center for Theoretical Chemistry        |     
     |                    University of Bonn                     |     
     |                Version 6.1 RC1 (SAW190329)                |     
      -----------------------------------------------------------      

   This program is distributed in the hope that it will be useful,
   but WITHOUT ANY WARRANTY; without even the implied warranty of
   MERCHANTABILITY or FITNESS FOR A PARTICULAR PURPOSE.
   
   FOR NON-COMMERCIAL, ACADEMIA USE ONLY.
   
   Cite this work as:
   S. Grimme, C. Bannwarth, P. Shushkov, J. Comput. Theory Chem., 2017,
   13, 1989-2009. DOI: 10.1021/acs.jctc.7b00118
   C. Bannwarth, S. Ehlert and S. Grimme., J. Comput. Theory Chem., 2019,
   just accepted. DOI: 10.1021/acs.jctc.8b01176
   
   for sTDA-xTB:
   S. Grimme and C. Bannwarth, J. Chem. Phys., 2016, 145, 054103.
   DOI: 10.1063/1.4959605
   
   in the mass-spec context:
   V. Asgeirsson, C. Bauer and S. Grimme, Chem. Sci., 2017, 8, 4879.
   DOI: 10.1039/c7sc00601b
   
   for metadynamics refer to:
   S. Grimme, ChemRxiv, Preprint. DOI: 10.26434/chemrxiv.7660532.v1
   
   with help from (in alphabetical order)
   C. Bannwarth, F. Bohle, G. Brandenburg, E. Caldeweyher, M. Checinski,
   S. Dohm, S. Ehlert, S. Ehrlich, F. März, H. Neugebauer, J. Pisarek,
   P. Pracht, P. Shushkov, and S. Spicher.
   
 * started run on 2019/05/31 at 06:33:29.567     

           -------------------------------------------------
          |                Calculation Setup                |
           -------------------------------------------------

          program call               : /home/lum/qr/xtb-190329/bin/xtb xtb_tmp.xyz --chrg -1 --grad --gfn 2 --etemp 500 --acc 0.1 --gbsa h2o --parallel 2
          hostname                   : cu39
          coordinate file            : xtb_tmp.xyz
          omp threads                :                     2
          number of atoms            :                   558
          number of electrons        :                  1524
          charge                     :                    -1
          spin                       :                   0.0
          first test random number   :      0.29679215477190


molecular fragmentation (1/2 indicates fragments):
111111111111111111122222222222222222222222222222222222222222222222222222
222222222222222222222222222222222222222222222222222222222222222222222222
222222222222222222222222222222222222222222222222222222222222222222222222
222222222222222222222222222222222222222222222222222222222222222222222222
222222222222222222222222222222222222222222222222222222222222222222222222
222222222222222222222222222222222222222222222222222222222222222222222222
222222222222222222222222222222222222222222222222222222222222222222222222
222222222222222222222222222222221122222222222222222222
# atoms in fragment 1/2:    21   537
 fragment masses (1/2) :      115.17     3747.32
CMA distance (Bohr)    :  16.301
constraining FC (au)   :  0.0500

########################################################################
# WARNING! Please study the warnings concerning your input carefully
#  - XTBPATH is not set, using XTBHOME instead
#  - Process number higher than OMP_NUM_THREADS, I hope you know what you are doing.
########################################################################

           ------------------------------------------------- 
          |                 G F N 2 - x T B                 |
          | Geometry, Frequencies, Noncovalent interactions |
          |            JCTC 2018 parametrisation            |
           ------------------------------------------------- 
 
             k(s)              :                1.8500
             k(p)              :                2.2300
             k(d)              :                2.2300
             k(f)              :                2.0000
             kEN (H0ij)        :               -2.0000
             D4 a1             :                0.5200
             D4 a2             :                5.0000
             D4 s6             :                1.0000
             D4 s8             :                2.7000
             D4 s9             :                5.0000
             alphaj            :                2.0000

  Z AO/shell   Hii/eV     exponent
  1     Wed Apr 25 08:07:45 CEST 2018   EN: 2.200 GM2: 0.406  GM3: 0.0800  RAES: 1.40
     1s    -10.707211    1.230000
  6     Wed Apr 25 08:07:45 CEST 2018   EN: 2.550 GM2: 0.538  GM3: 0.1500  RAES: 3.00
     2s    -13.970922    2.096432
     2p    -10.063292    1.800000
  7     Wed Apr 25 08:07:45 CEST 2018   EN: 3.040 GM2: 0.461  GM3:-0.0640  RAES: 1.90
     2s    -16.686243    2.339881
     2p    -12.523956    2.014332
  8     Wed Apr 25 08:07:45 CEST 2018   EN: 3.440 GM2: 0.452  GM3:-0.0517  RAES: 1.80
     2s    -20.229985    2.439742
     2p    -15.503117    2.137023

 Solvent             : h2o
 Using internal parameter file: .param_gbsa2_h2o
 Gsolv ref. state (COSMO-RS): gsolv [1 M gas/solution]
 temperature (mdtemp)       :    298.150000000000     
 dielectric constant        :    80.2000000000000     
 rho                        :    1.00000000000000     
 mass                       :    18.0000000000000     
 surface tension            :    15.5689454083859     
 probe radius               :   0.975313790000000     
 vdW radii scaling          :    1.00000000000000     
 Gshift (Eh)                :   1.857443126794793E-003
 c1                         :    1.55243817000000     
 soset                      :   0.130326360000000     
 HB correction              :  T
 Number of grid points      :          230

            Z     q(EN)     CN     RAES       Cart. coordinates
     1  N   5.0   -0.68    3.00    1.93    80.39510    87.01705   133.02754
     2  C   4.0    0.07    3.98    3.58    80.75915    84.98110   134.83018
     3  C   4.0    0.08    3.00    3.02    78.69068    85.15193   136.85727
     4  O   6.0   -0.41    1.00    1.80    78.53343    87.03465   138.19595
     5  C   4.0   -0.13    3.99    3.60    83.35570    85.20048   136.11544
     6  C   4.0   -0.10    3.97    3.58    85.55861    85.51775   134.25571
     7  C   4.0   -0.24    3.98    3.59    88.02894    85.92823   135.69475
     8  C   4.0   -0.23    3.98    3.59    85.78986    83.21833   132.52766
     9  H   1.0    0.32    1.00    1.43    80.40653    88.80835   133.70949
    10  H   1.0    0.14    0.99    1.43    80.59188    83.20630   133.79291
    11  H   1.0    0.12    0.99    1.43    83.27966    86.81818   137.39790
    12  H   1.0    0.11    0.99    1.43    83.63464    83.49994   137.25089
    13  H   1.0    0.11    0.99    1.43    85.18876    87.19695   133.09632
    14  H   1.0    0.09    0.99    1.43    89.57012    86.23215   134.37174
    15  H   1.0    0.09    0.99    1.43    87.89538    87.57505   136.91310
    16  H   1.0    0.10    0.99    1.43    88.45816    84.28707   136.85301
    17  H   1.0    0.09    0.99    1.43    87.49002    83.36663   131.38634
    18  H   1.0    0.10    0.99    1.43    85.88741    81.49876   133.65089
    19  H   1.0    0.10    0.99    1.43    84.17408    83.09308   131.26450
    20  N   5.0   -0.68    3.00    1.93    75.28642    81.08405   143.00924
    21  C   4.0    0.06    3.98    3.58    75.94024    79.20386   144.90394
    22  C   4.0    0.09    3.00    3.02    73.81203    78.80855   146.82623
    23  O   6.0   -0.38    1.00    1.80    73.10153    80.49265   148.25367
    24  C   4.0   -0.11    3.99    3.60    78.32263    80.10012   146.29046
    25  C   4.0    0.11    3.32    3.06    79.23204    78.43031   148.37595
    26  N   5.0   -0.39    2.11    1.90    80.98795    79.34981   150.03462
    27  C   4.0    0.02    3.22    3.04    78.67426    75.97793   148.99649
    28  C   4.0    0.17    3.39    3.08    81.48180    77.51315   151.60342
    29  N   5.0   -0.47    3.14    1.94    80.12612    75.42210   151.06565
    30  H   1.0    0.33    1.00    1.43    75.22534    82.90474   143.60694
    31  H   1.0    0.11    0.99    1.43    76.28436    77.44330   143.88300
    32  H   1.0    0.11    0.99    1.43    79.82760    80.35422   144.89428
    33  H   1.0    0.14    0.99    1.43    77.93630    81.96790   147.08205
    34  H   1.0    0.11    1.00    1.43    77.43118    74.62758   148.15117
    35  H   1.0    0.12    1.00    1.43    82.79586    77.61847   153.13872
    36  H   1.0    0.23    1.00    1.43    80.17501    73.77578   152.02178
    37  N   5.0   -0.69    3.00    1.93    90.49371    75.27771   154.40860
    38  C   4.0    0.07    3.98    3.59    92.07827    74.81340   152.23011
    39  C   4.0    0.28    3.01    3.02    94.04656    76.91153   151.98659
    40  O   6.0   -0.44    1.00    1.80    93.75059    78.95687   153.04084
    41  C   4.0   -0.21    3.98    3.59    90.48968    74.75396   149.79507
    42  H   1.0    0.32    1.00    1.43    89.74633    77.03272   154.61755
    43  H   1.0    0.12    0.99    1.43    93.00294    72.98875   152.53032
    44  H   1.0    0.12    0.99    1.43    91.45809    73.65976   148.34879
    45  H   1.0    0.10    0.99    1.43    88.67231    73.87597   150.20160
    46  H   1.0    0.12    0.99    1.43    90.14425    76.66621   149.11306
    47  N   5.0   -0.50    3.01    1.93    96.01169    76.36988   150.49901
    48  C   4.0    0.07    4.00    3.62    97.64928    78.32519   149.52098
    49  C   4.0    0.26    3.01    3.02    97.40248    78.37512   146.64417
    50  O   6.0   -0.46    1.00    1.80    97.34300    76.43108   145.38864
    51  C   4.0   -0.13    3.98    3.59   100.43499    77.84690   150.17835
    52  C   4.0   -0.11    3.99    3.60   101.04805    78.80926   152.82618
    53  C   4.0    0.28    3.00    3.02   103.65422    78.06073   153.71335
    54  O   6.0   -0.49    1.00    1.80   104.99553    76.56659   152.54304
    55  N   5.0   -0.64    3.01    1.93   104.39767    79.11614   155.86818
    56  H   1.0    0.29    1.00    1.43    96.06766    74.67469   149.59368
    57  H   1.0    0.15    0.99    1.43    97.03061    80.12094   150.34303
    58  H   1.0    0.13    0.99    1.43   100.78129    75.81960   150.07997
    59  H   1.0    0.12    0.99    1.43   101.61315    78.81077   148.78181
    60  H   1.0    0.13    0.99    1.43   100.87675    80.86479   152.88384
    61  H   1.0    0.12    0.99    1.43    99.67630    78.05528   154.17370
    62  H   1.0    0.27    1.00    1.43   103.32209    80.41594   156.74463
    63  H   1.0    0.29    1.00    1.43   106.15444    78.81665   156.54716
    64  N   5.0   -0.49    3.01    1.93    97.31379    80.69015   145.65130
    65  C   4.0    0.07    3.99    3.61    97.52794    81.16835   142.97184
    66  C   4.0    0.27    3.01    3.02   100.01147    82.61133   142.52054
    67  O   6.0   -0.42    1.00    1.80   100.74701    84.22154   144.00925
    68  C   4.0   -0.13    3.99    3.61    95.41783    82.87431   141.94754
    69  C   4.0   -0.04    3.02    3.02    92.72932    82.09554   142.49043
    70  C   4.0   -0.10    3.03    3.02    92.01975    79.70871   143.30665
    71  C   4.0   -0.13    3.04    3.02    90.83933    83.88786   142.10227
    72  C   4.0   -0.11    3.03    3.02    89.49627    79.12347   143.69619
    73  C   4.0   -0.10    3.03    3.02    88.32513    83.33222   142.50226
    74  C   4.0    0.09    3.03    3.02    87.63279    80.92178   143.29255
    75  O   6.0   -0.48    1.99    1.83    85.13275    80.39945   143.63580
    76  H   1.0    0.25    1.00    1.43    97.45694    82.22284   146.78175
    77  H   1.0    0.15    0.99    1.43    97.58216    79.34316   142.01050
    78  H   1.0    0.12    0.99    1.43    95.71152    84.77050   142.71703
    79  H   1.0    0.10    0.99    1.43    95.67023    83.00332   139.89797
    80  H   1.0    0.14    1.00    1.43    93.40833    78.25826   143.64766
    81  H   1.0    0.10    1.00    1.43    91.36259    85.75242   141.46312
    82  H   1.0    0.10    0.99    1.43    88.95734    77.25246   144.32112
    83  H   1.0    0.11    1.00    1.43    86.86748    84.72748   142.22525
    84  H   1.0    0.24    0.99    1.43    84.94865    78.67133   144.19433
    85  N   5.0   -0.49    3.01    1.93   101.17204    81.96744   140.38736
    86  C   4.0    0.08    3.99    3.61   103.37844    83.18807   139.33445
    87  C   4.0    0.27    3.01    3.02   102.71352    83.80449   136.58249
    88  O   6.0   -0.46    1.00    1.80   101.80370    82.18147   135.19582
    89  C   4.0   -0.11    3.99    3.60   105.65635    81.38954   139.43873
    90  C   4.0   -0.02    3.03    3.02   106.34018    80.79891   142.12669
    91  C   4.0   -0.09    3.03    3.02   105.26493    78.77528   143.40417
    92  C   4.0   -0.08    3.03    3.02   108.03303    82.34761   143.40530
    93  C   4.0   -0.10    3.03    3.02   105.91664    78.27833   145.89190
    94  C   4.0   -0.07    3.03    3.02   108.71244    81.85922   145.87136
    95  C   4.0    0.10    3.03    3.02   107.63937    79.82016   147.14611
    96  O   6.0   -0.45    1.99    1.83   108.35441    79.39220   149.56649
    97  H   1.0    0.29    1.00    1.43   100.55369    80.43817   139.40048
    98  H   1.0    0.15    0.99    1.43   103.78484    84.91024   140.39850
    99  H   1.0    0.12    0.99    1.43   105.13208    79.67985   138.41700
   100  H   1.0    0.12    0.99    1.43   107.22787    82.30139   138.47046
   101  H   1.0    0.13    1.00    1.43   103.88842    77.60820   142.45171
   102  H   1.0    0.15    1.00    1.43   108.79737    83.97899   142.45567
   103  H   1.0    0.12    1.00    1.43   105.06017    76.72021   146.89147
   104  H   1.0    0.15    1.00    1.43   110.01651    83.07850   146.85497
   105  H   1.0    0.30    0.99    1.43   107.22940    78.17357   150.37122
   106  N   5.0   -0.48    3.01    1.93   103.10433    86.19952   135.90120
   107  C   4.0    0.08    3.99    3.61   102.32053    87.27077   133.49847
   108  C   4.0    0.28    3.01    3.02   104.51326    88.93496   132.60697
   109  O   6.0   -0.45    1.00    1.80   104.91123    91.00232   133.55992
   110  C   4.0   -0.08    3.98    3.58    99.89191    88.85862   133.84225
   111  C   4.0   -0.16    3.98    3.58    97.68394    87.26875   134.87877
   112  C   4.0   -0.23    3.98    3.59    99.15439    90.10263   131.34837
   113  C   4.0   -0.23    3.98    3.58    96.51514    88.42146   137.24658
   114  H   1.0    0.28    1.00    1.43   104.05941    87.36212   137.07987
   115  H   1.0    0.14    0.99    1.43   101.99228    85.71754   132.17559
   116  H   1.0    0.13    0.99    1.43   100.34587    90.34244   135.20832
   117  H   1.0    0.09    0.99    1.43    96.22660    87.11436   133.42793
   118  H   1.0    0.14    0.99    1.43    98.33476    85.36118   135.30398
   119  H   1.0    0.10    0.99    1.43    97.55742    91.35825   131.64417
   120  H   1.0    0.12    0.99    1.43   100.70998    91.19180   130.57115
   121  H   1.0    0.10    0.99    1.43    98.62004    88.68147   129.96561
   122  H   1.0    0.09    0.99    1.43    94.91636    87.29227   137.87250
   123  H   1.0    0.13    0.99    1.43    97.88812    88.49649   138.77683
   124  H   1.0    0.10    0.99    1.43    95.85130    90.33153   136.87276
   125  N   5.0   -0.46    3.01    1.93   105.93414    87.96102   130.75471
   126  C   4.0    0.09    3.99    3.60   108.18765    89.21898   129.84658
   127  C   4.0    0.05    3.00    3.02   108.26432    89.04179   126.97027
   128  O   6.0   -0.44    1.00    1.80   107.89457    87.00221   125.91691
   129  C   4.0    0.05    3.98    3.58   110.59122    87.97822   130.94802
   130  O   6.0   -0.42    1.99    1.83   110.42058    88.17765   133.59789
   131  C   4.0   -0.22    3.98    3.59   112.95379    89.28397   129.91632
   132  H   1.0    0.29    1.00    1.43   105.61245    86.18447   130.11178
   133  H   1.0    0.14    0.99    1.43   108.08750    91.18555   130.47759
   134  H   1.0    0.13    0.99    1.43   110.59431    85.96674   130.39306
   135  H   1.0    0.25    0.99    1.43   111.86080    87.34628   134.34662
   136  H   1.0    0.10    0.99    1.43   114.64031    88.54730   130.82975
   137  H   1.0    0.11    0.99    1.43   113.11707    88.97011   127.89305
   138  H   1.0    0.11    0.99    1.43   112.84596    91.30779   130.25306
   139  N   5.0   -0.68    3.00    1.93   105.76761    96.07943   135.70592
   140  C   4.0    0.08    3.98    3.59   103.59160    97.31764   136.80679
   141  C   4.0    0.29    3.01    3.02   104.07702    97.82070   139.60877
   142  O   6.0   -0.38    1.00    1.80   105.50315    96.50554   140.87810
   143  C   4.0   -0.13    3.98    3.59   101.23171    95.66208   136.47155
   144  C   4.0   -0.04    3.12    3.03    98.80643    97.11073   136.53189
   145  C   4.0    0.02    3.22    3.04    98.17134    99.14842   135.07389
   146  C   4.0    0.02    3.18    3.03    96.63071    96.54142   138.02803
   147  N   5.0   -0.46    3.10    1.94    95.73945    99.85649   135.53569
   148  C   4.0    0.14    3.23    3.04    94.74156    98.31174   137.33468
   149  C   4.0   -0.12    3.02    3.02    96.07689    94.72346   139.85887
   150  C   4.0   -0.08    3.02    3.02    92.33368    98.25709   138.37996
   151  C   4.0   -0.12    3.03    3.02    93.68972    94.69233   140.90011
   152  C   4.0   -0.10    3.03    3.02    91.84010    96.43402   140.17165
   153  H   1.0    0.32    1.00    1.43   105.64149    94.20781   135.33152
   154  H   1.0    0.11    0.99    1.43   103.34492    99.14867   135.87424
   155  H   1.0    0.11    0.99    1.43   101.41317    94.70916   134.64621
   156  H   1.0    0.12    0.99    1.43   101.21386    94.20270   137.93408
   157  H   1.0    0.11    1.00    1.43    99.29457   100.13878   133.70714
   158  H   1.0    0.24    1.00    1.43    94.87934   101.39451   134.82631
   159  H   1.0    0.13    0.99    1.43    97.47847    93.35526   140.44752
   160  H   1.0    0.13    0.99    1.43    90.88931    99.57584   137.79538
   161  H   1.0    0.10    0.99    1.43    93.23393    93.28529   142.30805
   162  H   1.0    0.12    1.00    1.43    89.97896    96.34059   141.00076
   163  N   5.0   -0.50    3.01    1.93   102.84123    99.81033   140.55127
   164  C   4.0    0.08    4.00    3.61   103.16120   100.54202   143.16745
   165  C   4.0    0.29    3.01    3.02   102.77008    98.31992   144.96344
   166  O   6.0   -0.42    1.00    1.80   104.08984    98.03480   146.84199
   167  C   4.0   -0.11    3.98    3.58   101.39494   102.73735   143.84951
   168  C   4.0    0.32    2.99    3.02    98.66983   102.44870   142.76346
   169  O   6.0   -0.46    1.00    1.80    96.90935   102.41794   144.32899
   170  O   6.0   -0.41    1.00    1.80    98.46806   102.33694   140.42666
   171  H   1.0    0.28    1.00    1.43   101.37165   100.66991   139.62570
   172  H   1.0    0.13    0.99    1.43   105.13542   101.12365   143.46734
   173  H   1.0    0.12    0.99    1.43   101.29206   102.93177   145.89833
   174  H   1.0    0.11    0.99    1.43   102.15286   104.47840   143.04355
   175  N   5.0   -0.47    3.01    1.93   100.82794    96.79017   144.41633
   176  C   4.0    0.07    3.99    3.61   100.19204    94.63737   145.99062
   177  C   4.0    0.27    3.00    3.02   101.28551    92.20808   144.81394
   178  O   6.0   -0.44    1.00    1.80    99.98065    90.56543   143.85947
   179  C   4.0   -0.14    3.98    3.59    97.33954    94.49193   146.45244
   180  C   4.0   -0.16    3.98    3.58    96.61162    95.00500   149.20003
   181  C   4.0   -0.03    3.98    3.59    97.25060    97.70797   150.03323
   182  N   5.0   -0.47    3.02    1.93    95.85698    99.61335   148.65246
   183  C   4.0    0.37    3.00    3.02    93.48399   100.31576   149.05298
   184  N   5.0   -0.66    3.01    1.93    92.03982    99.25363   150.82540
   185  N   5.0   -0.64    3.02    1.93    92.57002   102.19688   147.65798
   186  H   1.0    0.26    1.00    1.43    99.85773    97.03513   142.79127
   187  H   1.0    0.14    0.99    1.43   101.21958    94.92889   147.76529
   188  H   1.0    0.14    0.99    1.43    96.40117    95.86002   145.22857
   189  H   1.0    0.12    0.99    1.43    96.70173    92.61120   145.89917
   190  H   1.0    0.11    0.99    1.43    94.58972    94.66823   149.40343
   191  H   1.0    0.09    0.99    1.43    97.60952    93.69544   150.43604
   192  H   1.0    0.11    0.99    1.43    96.89159    97.92125   152.05527
   193  H   1.0    0.13    0.99    1.43    99.25492    98.07639   149.71855
   194  H   1.0    0.29    1.00    1.43    96.69966   100.46115   147.13411
   195  H   1.0    0.25    1.00    1.43    92.68470    97.82773   151.90483
   196  H   1.0    0.26    1.00    1.43    90.29167    99.93207   151.14665
   197  H   1.0    0.31    1.00    1.43    93.66075   102.88018   146.24191
   198  H   1.0    0.26    1.00    1.43    90.75130   102.73521   147.77970
   199  N   5.0   -0.47    3.01    1.93   103.80596    92.06193   145.02723
   200  C   4.0    0.08    3.99    3.61   105.28466    90.01506   143.97551
   201  C   4.0    0.29    3.01    3.02   106.11852    88.19537   146.09951
   202  O   6.0   -0.41    1.00    1.80   108.32111    88.02707   146.75247
   203  C   4.0   -0.08    3.99    3.60   107.60857    91.05377   142.62136
   204  C   4.0    0.28    3.00    3.02   108.80990    88.97677   141.05425
   205  O   6.0   -0.43    1.00    1.80   107.57357    87.64097   139.62764
   206  N   5.0   -0.64    3.00    1.93   111.31551    88.75034   141.33103
   207  H   1.0    0.28    1.00    1.43   104.77299    93.56704   145.69444
   208  H   1.0    0.15    0.99    1.43   104.05721    88.97181   142.67310
   209  H   1.0    0.16    0.99    1.43   107.03928    92.61064   141.39111
   210  H   1.0    0.13    0.99    1.43   108.92421    91.76451   144.03781
   211  H   1.0    0.28    1.00    1.43   112.22991    87.32791   140.45776
   212  H   1.0    0.27    1.00    1.43   112.24985    89.71313   142.67734
   213  N   5.0   -0.47    3.00    1.93   104.20046    86.93040   147.16126
   214  C   4.0    0.04    3.99    3.61   104.60097    85.11943   149.16410
   215  C   4.0    0.27    3.00    3.02   103.85760    86.09664   151.78767
   216  O   6.0   -0.38    1.00    1.80   105.33690    86.08733   153.55175
   217  H   1.0    0.29    1.00    1.43   102.49377    86.95361   146.29720
   218  H   1.0    0.12    0.99    1.43   103.49138    83.42181   148.76828
   219  H   1.0    0.16    0.99    1.43   106.61017    84.65078   149.22943
   220  N   5.0   -0.47    3.01    1.93   101.45390    86.91014   151.95530
   221  C   4.0    0.08    3.99    3.60   100.21324    87.30026   154.37035
   222  C   4.0    0.27    3.02    3.02    98.19691    85.24014   154.64963
   223  O   6.0   -0.43    1.00    1.80    97.20376    84.35219   152.74936
   224  C   4.0   -0.14    3.98    3.59    98.95151    89.91195   154.47538
   225  C   4.0   -0.12    3.98    3.59    98.01457    90.60402   157.12867
   226  C   4.0    0.28    3.00    3.02   100.14538    90.57689   159.05243
   227  O   6.0   -0.38    1.00    1.80   101.26854    88.64816   159.65660
   228  N   5.0   -0.64    3.00    1.93   100.78580    92.84560   159.99458
   229  H   1.0    0.26    1.00    1.43   100.26128    86.61884   150.48628
   230  H   1.0    0.17    0.99    1.43   101.64561    87.14699   155.85150
   231  H   1.0    0.12    0.99    1.43   100.33449    91.30774   153.84540
   232  H   1.0    0.11    0.99    1.43    97.34695    89.92201   153.17593
   233  H   1.0    0.10    0.99    1.43    97.13320    92.46313   157.07458
   234  H   1.0    0.15    0.99    1.43    96.59650    89.23436   157.74456
   235  H   1.0    0.26    1.00    1.43    99.82551    94.42555   159.55884
   236  H   1.0    0.29    1.00    1.43   102.12279    92.91949   161.34911
   237  N   5.0   -0.49    3.00    1.93    97.70297    84.41764   156.99175
   238  C   4.0    0.08    4.01    3.63    95.54053    82.78650   157.34804
   239  C   4.0    0.29    3.01    3.02    93.10000    84.30475   157.03635
   240  O   6.0   -0.40    1.00    1.80    92.89756    86.49818   157.75316
   241  C   4.0   -0.10    3.98    3.59    95.49887    81.57921   159.96192
   242  C   4.0    0.34    2.99    3.02    95.10163    83.64292   162.04617
   243  O   6.0   -0.36    1.00    1.80    93.15741    83.43536   163.36107
   244  O   6.0   -0.36    1.00    1.80    96.77406    85.28727   162.23515
   245  H   1.0    0.29    1.00    1.43    98.29756    85.36073   158.55682
   246  H   1.0    0.15    0.99    1.43    95.61434    81.33879   155.87243
   247  H   1.0    0.13    0.99    1.43    93.94504    80.22459   160.07435
   248  H   1.0    0.12    0.99    1.43    97.28405    80.61449   160.32404
   249  N   5.0   -0.47    3.01    1.93    91.23470    82.99700   155.94526
   250  C   4.0    0.06    3.99    3.60    88.73411    83.98487   155.48630
   251  C   4.0    0.06    3.00    3.02    86.78318    82.02980   156.32806
   252  O   6.0   -0.42    1.00    1.80    87.15487    79.76241   156.04703
   253  C   4.0   -0.13    3.99    3.60    88.31039    84.50964   152.65818
   254  C   4.0   -0.09    3.98    3.58    90.22711    86.35642   151.51606
   255  C   4.0   -0.22    3.99    3.59    89.71634    86.61069   148.68612
   256  C   4.0   -0.22    3.98    3.59    90.08759    88.94369   152.78373
   257  H   1.0    0.29    1.00    1.43    91.62169    81.27872   155.20118
   258  H   1.0    0.13    0.99    1.43    88.55393    85.71400   156.59642
   259  H   1.0    0.13    0.99    1.43    88.43871    82.70316   151.66877
   260  H   1.0    0.10    0.99    1.43    86.39670    85.23763   152.39215
   261  H   1.0    0.15    0.99    1.43    92.12847    85.57509   151.78815
   262  H   1.0    0.10    0.99    1.43    91.09828    87.85529   147.81819
   263  H   1.0    0.12    0.99    1.43    89.81099    84.78146   147.75521
   264  H   1.0    0.12    0.99    1.43    87.84057    87.38666   148.37405
   265  H   1.0    0.10    0.99    1.43    91.33083    90.24402   151.79838
   266  H   1.0    0.10    0.99    1.43    88.16165    89.66061   152.71623
   267  H   1.0    0.14    0.99    1.43    90.71287    88.82436   154.73743
   268  N   5.0   -0.68    3.00    1.93    75.76997    86.24598   150.22555
   269  C   4.0    0.06    3.98    3.59    77.58455    87.93360   149.08189
   270  C   4.0    0.08    3.00    3.02    77.06919    88.01770   146.23853
   271  O   6.0   -0.42    1.00    1.80    76.31607    86.13828   145.11395
   272  C   4.0   -0.13    3.99    3.60    80.31327    87.03301   149.58783
   273  C   4.0   -0.04    3.03    3.02    82.20055    88.79328   148.40693
   274  C   4.0   -0.11    3.03    3.02    83.15443    90.84775   149.73269
   275  C   4.0   -0.09    3.03    3.02    82.98114    88.41859   145.92630
   276  C   4.0   -0.11    3.03    3.02    84.88109    92.46839   148.61860
   277  C   4.0   -0.12    3.03    3.02    84.70961    90.03355   144.81639
   278  C   4.0   -0.11    3.03    3.02    85.68129    92.05363   146.16431
   279  H   1.0    0.32    1.00    1.43    75.37755    84.66652   149.22051
   280  H   1.0    0.12    0.99    1.43    77.28619    89.79225   149.93500
   281  H   1.0    0.10    0.99    1.43    80.56758    86.91558   151.63278
   282  H   1.0    0.12    0.99    1.43    80.53607    85.13182   148.81773
   283  H   1.0    0.11    0.99    1.43    82.53807    91.15688   151.65408
   284  H   1.0    0.13    0.99    1.43    82.22698    86.84112   144.86958
   285  H   1.0    0.11    1.00    1.43    85.59645    94.05169   149.67906
   286  H   1.0    0.10    1.00    1.43    85.30267    89.70389   142.89469
   287  H   1.0    0.11    1.00    1.43    87.06518    93.26892   145.29223
   288  N   5.0   -0.69    3.00    1.93    79.99766    92.52815   139.43462
   289  C   4.0    0.08    3.98    3.58    81.48799    94.55618   138.37194
   290  C   4.0    0.07    3.00    3.02    81.65344    94.36565   135.51703
   291  O   6.0   -0.43    1.00    1.80    80.97953    92.48177   134.35025
   292  C   4.0    0.02    3.97    3.58    84.20126    94.66543   139.53464
   293  O   6.0   -0.50    1.99    1.83    85.19044    97.11128   139.24890
   294  C   4.0   -0.20    3.98    3.59    86.01064    92.79213   138.30941
   295  H   1.0    0.33    1.00    1.43    79.54869    91.00303   138.36357
   296  H   1.0    0.12    0.99    1.43    80.55519    96.34110   138.88631
   297  H   1.0    0.10    0.99    1.43    83.97570    94.19014   141.54269
   298  H   1.0    0.25    0.99    1.43    84.26041    98.25476   140.32757
   299  H   1.0    0.10    0.99    1.43    87.75574    92.70689   139.38645
   300  H   1.0    0.10    0.99    1.43    85.14921    90.93075   138.24136
   301  H   1.0    0.12    0.99    1.43    86.46822    93.37723   136.39415
   302  N   5.0   -0.70    3.00    1.93   105.35673    82.68620   123.69673
   303  C   4.0    0.09    3.98    3.59   105.54906    80.33901   125.07589
   304  C   4.0    0.27    3.01    3.02   103.98556    80.61849   127.50664
   305  O   6.0   -0.42    1.00    1.80   104.38302    82.36072   128.97801
   306  C   4.0   -0.01    3.98    3.59   108.31002    79.82788   125.77321
   307  O   6.0   -0.48    1.99    1.82   109.72532    79.62492   123.52727
   308  H   1.0    0.33    1.00    1.43   106.23313    84.19393   124.49662
   309  H   1.0    0.12    0.99    1.43   104.82081    78.83401   123.85991
   310  H   1.0    0.13    0.99    1.43   108.97589    81.40596   126.94909
   311  H   1.0    0.11    0.99    1.43   108.39918    78.06967   126.87587
   312  H   1.0    0.25    0.99    1.43   111.47816    79.35776   123.94610
   313  N   5.0   -0.49    3.01    1.93   102.17689    78.89502   127.78899
   314  C   4.0    0.08    4.00    3.62   100.43550    78.85861   129.90375
   315  C   4.0    0.27    3.01    3.02   100.78664    76.36001   131.32315
   316  O   6.0   -0.45    1.00    1.80   100.64886    74.31609   130.23408
   317  C   4.0   -0.08    3.98    3.59    97.70484    79.10715   128.92927
   318  C   4.0   -0.23    3.98    3.59    95.81822    78.81124   131.08836
   319  C   4.0   -0.22    3.98    3.59    97.36034    81.65460   127.62474
   320  H   1.0    0.24    1.00    1.43   102.00005    77.47517   126.51723
   321  H   1.0    0.15    0.99    1.43   100.92510    80.45064   131.12522
   322  H   1.0    0.12    0.99    1.43    97.42222    77.58537   127.55458
   323  H   1.0    0.09    0.99    1.43    93.91534    79.06552   130.36410
   324  H   1.0    0.12    0.99    1.43    95.96098    76.93954   131.92511
   325  H   1.0    0.10    0.99    1.43    96.16931    80.22292   132.54141
   326  H   1.0    0.09    0.99    1.43    95.51587    81.74310   126.73086
   327  H   1.0    0.10    0.99    1.43    97.50624    83.17466   129.00178
   328  H   1.0    0.13    0.99    1.43    98.80753    81.93286   126.19102
   329  N   5.0   -0.49    3.01    1.93   101.24714    76.62432   133.78809
   330  C   4.0    0.07    3.99    3.60   101.54009    74.53413   135.54915
   331  C   4.0    0.27    3.01    3.02    99.65542    75.02466   137.70068
   332  O   6.0   -0.47    1.00    1.80    99.77092    76.94339   138.99081
   333  C   4.0   -0.14    3.98    3.59   104.29759    74.43704   136.47213
   334  C   4.0   -0.17    3.98    3.58   104.75571    72.84391   138.84017
   335  C   4.0   -0.16    3.98    3.59   107.45853    73.28698   139.78785
   336  C   4.0   -0.06    3.98    3.58   107.88449    72.09452   142.37911
   337  N   5.0   -0.73    3.98    2.82   110.52287    72.55768   143.25671
   338  H   1.0    0.28    1.00    1.43   101.34155    78.39296   134.53659
   339  H   1.0    0.13    0.99    1.43   101.03790    72.78905   134.56202
   340  H   1.0    0.12    0.99    1.43   105.45697    73.72884   134.91877
   341  H   1.0    0.12    0.99    1.43   104.87515    76.38126   136.85019
   342  H   1.0    0.12    0.99    1.43   103.40234    73.39510   140.29377
   343  H   1.0    0.11    0.99    1.43   104.45969    70.85117   138.39783
   344  H   1.0    0.11    0.99    1.43   108.75733    72.50189   138.39455
   345  H   1.0    0.11    0.99    1.43   107.77380    75.32209   139.91289
   346  H   1.0    0.11    0.99    1.43   106.58822    72.95703   143.73154
   347  H   1.0    0.11    0.99    1.43   107.55522    70.06282   142.26081
   348  H   1.0    0.26    1.00    1.43   110.79582    71.82139   145.04406
   349  H   1.0    0.24    1.00    1.43   111.79457    71.73444   142.02835
   350  H   1.0    0.25    1.00    1.43   110.87551    74.47648   143.29498
   351  N   5.0   -0.50    3.01    1.93    97.92951    73.21905   138.00688
   352  C   4.0    0.08    3.99    3.61    95.94731    73.22725   139.90500
   353  C   4.0    0.27    3.02    3.02    96.29994    70.75804   141.36465
   354  O   6.0   -0.48    1.00    1.80    95.86600    68.67993   140.41910
   355  C   4.0   -0.08    3.98    3.58    93.32029    73.39538   138.66185
   356  C   4.0   -0.16    3.98    3.59    92.92960    76.05428   137.56973
   357  C   4.0   -0.23    3.98    3.59    91.26613    72.73971   140.58136
   358  C   4.0   -0.25    3.98    3.58    90.86490    76.15406   135.56285
   359  H   1.0    0.29    1.00    1.43    97.83164    71.76304   136.76320
   360  H   1.0    0.14    0.99    1.43    96.25495    74.84330   141.15772
   361  H   1.0    0.13    0.99    1.43    93.28423    72.00373   137.13033
   362  H   1.0    0.11    0.99    1.43    92.44828    77.33892   139.11163
   363  H   1.0    0.13    0.99    1.43    94.69865    76.70470   136.72516
   364  H   1.0    0.09    0.99    1.43    89.41181    72.97846   139.73729
   365  H   1.0    0.12    0.99    1.43    91.43231    70.78877   141.21099
   366  H   1.0    0.10    0.99    1.43    91.39199    73.98101   142.21456
   367  H   1.0    0.09    0.99    1.43    90.68641    78.06833   134.84038
   368  H   1.0    0.10    0.99    1.43    91.33378    74.90387   133.99808
   369  H   1.0    0.09    0.99    1.43    89.04510    75.58953   136.33198
   370  N   5.0   -0.49    3.01    1.93    97.30925    71.04965   143.65757
   371  C   4.0    0.07    3.99    3.61    97.72915    68.93010   145.33593
   372  C   4.0    0.26    3.01    3.02    96.11805    69.26900   147.70665
   373  O   6.0   -0.48    1.00    1.80    95.62530    71.35587   148.57879
   374  C   4.0   -0.15    3.98    3.59   100.55573    68.59435   145.91751
   375  C   4.0   -0.15    3.98    3.58   101.78354    70.74114   147.42279
   376  C   4.0   -0.05    3.99    3.61   104.43589    69.87510   148.17622
   377  N   5.0   -0.48    3.02    1.93   105.78968    71.78583   149.61925
   378  C   4.0    0.37    3.01    3.02   108.16370    71.48263   150.40591
   379  N   5.0   -0.65    3.01    1.93   109.65073    69.70651   149.36253
   380  N   5.0   -0.64    3.02    1.93   109.14852    73.14338   151.99565
   381  H   1.0    0.29    1.00    1.43    97.36995    72.79919   144.45146
   382  H   1.0    0.12    0.99    1.43    97.05552    67.22838   144.36737
   383  H   1.0    0.09    0.99    1.43   100.74562    66.82248   146.95090
   384  H   1.0    0.11    0.99    1.43   101.52060    68.38493   144.10636
   385  H   1.0    0.12    0.99    1.43   101.85938    72.44453   146.26818
   386  H   1.0    0.13    0.99    1.43   100.66292    71.14230   149.10712
   387  H   1.0    0.11    0.99    1.43   104.24112    68.16934   149.32559
   388  H   1.0    0.11    0.99    1.43   105.48713    69.41891   146.45791
   389  H   1.0    0.27    1.00    1.43   104.73652    73.09023   150.55480
   390  H   1.0    0.25    1.00    1.43   108.84651    68.15416   148.59464
   391  H   1.0    0.25    1.00    1.43   111.36778    69.41882   150.15233
   392  H   1.0    0.31    1.00    1.43   108.03771    74.53252   152.70651
   393  H   1.0    0.27    1.00    1.43   110.96621    73.04415   152.55326
   394  N   5.0   -0.49    3.01    1.93    95.24655    67.11237   148.69970
   395  C   4.0    0.06    3.99    3.60    93.59346    67.10203   150.87654
   396  C   4.0    0.06    3.00    3.02    95.03440    66.20744   153.19979
   397  O   6.0   -0.42    1.00    1.80    96.44020    64.37135   153.09164
   398  C   4.0   -0.13    3.99    3.60    91.35883    65.28388   150.50523
   399  C   4.0   -0.12    3.97    3.58    89.37283    65.56415   152.57708
   400  C   4.0    0.31    2.99    3.02    87.33276    63.43563   152.32049
   401  O   6.0   -0.39    1.00    1.80    85.60714    63.77106   150.77172
   402  O   6.0   -0.37    1.00    1.80    87.67902    61.53691   153.69611
   403  H   1.0    0.23    1.00    1.43    95.78773    65.42224   147.96055
   404  H   1.0    0.12    0.99    1.43    92.90141    69.02950   151.16391
   405  H   1.0    0.11    0.99    1.43    90.46137    65.66108   148.68543
   406  H   1.0    0.14    0.99    1.43    92.07402    63.34427   150.49724
   407  H   1.0    0.13    0.99    1.43    90.20618    65.40093   154.46510
   408  H   1.0    0.11    0.99    1.43    88.43146    67.38999   152.41030
   409  N   5.0   -0.67    3.00    1.93   103.07613    61.63882   156.45944
   410  C   4.0    0.07    3.98    3.59   102.13140    62.64585   154.11156
   411  C   4.0    0.08    3.00    3.02   101.68426    60.49060   152.22331
   412  O   6.0   -0.37    1.00    1.80   102.59035    58.39323   152.50646
   413  C   4.0   -0.14    3.99    3.60   104.10558    64.43354   152.91709
   414  C   4.0   -0.03    3.12    3.03   104.54759    66.73188   154.49083
   415  C   4.0    0.02    3.21    3.04   106.56117    67.21543   156.03796
   416  C   4.0    0.02    3.18    3.03   102.85689    68.82212   154.75992
   417  N   5.0   -0.47    3.10    1.94   106.25571    69.49326   157.20998
   418  C   4.0    0.13    3.22    3.04   103.98466    70.49768   156.52343
   419  C   4.0   -0.11    3.02    3.02   100.51044    69.41923   153.71561
   420  C   4.0   -0.08    3.02    3.02   102.76833    72.68950   157.31410
   421  C   4.0   -0.10    3.03    3.02    99.32811    71.60759   154.48661
   422  C   4.0   -0.09    3.03    3.02   100.42676    73.20231   156.29339
   423  H   1.0    0.28    1.00    1.43   104.68505    60.61381   156.30873
   424  H   1.0    0.15    0.99    1.43   100.35886    63.62865   154.50357
   425  H   1.0    0.11    0.99    1.43   105.86173    63.37888   152.69092
   426  H   1.0    0.09    0.99    1.43   103.36360    64.93515   151.06116
   427  H   1.0    0.11    1.00    1.43   108.20562    66.08163   156.38258
   428  H   1.0    0.24    1.00    1.43   107.39941    70.18649   158.56248
   429  H   1.0    0.13    1.00    1.43    99.59949    68.16516   152.38916
   430  H   1.0    0.13    1.00    1.43   103.58449    73.91933   158.72065
   431  H   1.0    0.13    0.99    1.43    97.47977    72.08001   153.75174
   432  H   1.0    0.12    0.99    1.43    99.37068    74.82886   156.94384
   433  N   5.0   -0.69    3.00    1.93   100.83600    61.08970   143.72611
   434  C   4.0    0.10    3.99    3.60   100.26772    62.63161   141.52707
   435  C   4.0    0.27    3.01    3.02    97.82817    61.57906   140.35079
   436  O   6.0   -0.39    1.00    1.80    97.67312    59.33428   139.80504
   437  C   4.0    0.04    3.98    3.58   102.45411    62.63200   139.63008
   438  O   6.0   -0.50    1.99    1.83   104.62207    63.43177   140.95098
   439  C   4.0   -0.20    3.98    3.59   101.81592    64.40096   137.43439
   440  H   1.0    0.29    1.00    1.43   102.04618    59.63677   143.51505
   441  H   1.0    0.11    0.99    1.43    99.95870    64.56323   142.19024
   442  H   1.0    0.13    0.99    1.43   102.70926    60.69762   138.89652
   443  H   1.0    0.26    0.99    1.43   106.02909    63.45903   139.79077
   444  H   1.0    0.14    0.99    1.43   103.35420    64.46223   136.06387
   445  H   1.0    0.13    0.99    1.43   100.11998    63.75243   136.46539
   446  H   1.0    0.12    0.99    1.43   101.48390    66.30740   138.13131
   447  N   5.0   -0.50    3.00    1.93    95.91293    63.21715   140.14881
   448  C   4.0    0.09    4.00    3.62    93.39961    62.40424   139.43085
   449  C   4.0    0.27    3.01    3.02    92.72770    63.30592   136.77044
   450  O   6.0   -0.43    1.00    1.80    91.71635    61.89266   135.24705
   451  C   4.0   -0.09    3.98    3.58    91.43443    63.19819   141.42907
   452  C   4.0   -0.22    3.98    3.59    88.76088    62.55089   140.55854
   453  C   4.0   -0.21    3.98    3.59    92.01867    61.86068   143.92186
   454  H   1.0    0.27    1.00    1.43    96.13339    65.07017   140.60890
   455  H   1.0    0.15    0.99    1.43    93.43725    60.33406   139.32579
   456  H   1.0    0.12    0.99    1.43    91.57157    65.24411   141.70826
   457  H   1.0    0.11    0.99    1.43    87.43338    62.88413   142.09166
   458  H   1.0    0.11    0.99    1.43    88.19400    63.68038   138.93761
   459  H   1.0    0.12    0.99    1.43    88.63932    60.56716   140.03413
   460  H   1.0    0.11    0.99    1.43    90.67860    62.43419   145.37305
   461  H   1.0    0.12    0.99    1.43    91.84996    59.82508   143.67449
   462  H   1.0    0.12    0.99    1.43    93.91937    62.30722   144.56488
   463  N   5.0   -0.49    3.01    1.93    93.36872    65.69217   136.19660
   464  C   4.0    0.08    4.00    3.62    93.24370    66.52373   133.59002
   465  C   4.0    0.27    3.01    3.02    95.69087    67.91795   132.97845
   466  O   6.0   -0.46    1.00    1.80    96.66479    69.38713   134.47333
   467  C   4.0   -0.13    3.98    3.59    90.87786    68.15969   133.08471
   468  C   4.0   -0.04    3.03    3.02    89.80025    67.79504   130.47951
   469  C   4.0   -0.11    3.03    3.02    89.35636    69.84281   128.90617
   470  C   4.0   -0.10    3.03    3.02    89.12663    65.39686   129.62893
   471  C   4.0   -0.10    3.03    3.02    88.25115    69.52878   126.56171
   472  C   4.0   -0.07    3.03    3.02    88.05488    65.05397   127.27596
   473  C   4.0    0.11    3.03    3.02    87.58549    67.13009   125.72353
   474  O   6.0   -0.45    1.99    1.83    86.50901    66.74370   123.43603
   475  H   1.0    0.29    1.00    1.43    94.25849    66.85017   137.44591
   476  H   1.0    0.14    0.99    1.43    93.12254    64.81037   132.43553
   477  H   1.0    0.11    0.99    1.43    89.45077    67.58246   134.46169
   478  H   1.0    0.10    0.99    1.43    91.30944    70.14974   133.40395
   479  H   1.0    0.10    1.00    1.43    89.87416    71.71646   129.52094
   480  H   1.0    0.13    0.99    1.43    89.43256    63.77002   130.82785
   481  H   1.0    0.10    1.00    1.43    87.84622    71.13287   125.37073
   482  H   1.0    0.13    1.00    1.43    87.54149    63.19138   126.62056
   483  H   1.0    0.24    0.99    1.43    86.16647    68.38059   122.59616
   484  N   5.0   -0.48    3.01    1.93    96.65758    67.42428   130.70333
   485  C   4.0    0.07    3.99    3.60    99.04787    68.43087   129.81873
   486  C   4.0    0.06    3.01    3.02    98.99645    68.26274   126.95028
   487  O   6.0   -0.39    1.00    1.80    98.50207    66.26547   125.89322
   488  C   4.0   -0.12    3.99    3.60   101.28035    66.82241   130.75183
   489  C   4.0   -0.11    3.97    3.58   103.78598    67.61975   129.58348
   490  C   4.0    0.31    2.99    3.02   105.98405    65.95189   130.64981
   491  O   6.0   -0.42    1.00    1.80   106.20707    65.86358   132.99012
   492  O   6.0   -0.37    1.00    1.80   107.33439    64.84424   129.06812
   493  H   1.0    0.26    1.00    1.43    95.89371    66.07997   129.58191
   494  H   1.0    0.15    0.99    1.43    99.25505    70.38210   130.46069
   495  H   1.0    0.13    0.99    1.43   101.43591    66.95619   132.80164
   496  H   1.0    0.14    0.99    1.43   100.91890    64.84858   130.25391
   497  H   1.0    0.13    0.99    1.43   103.76685    67.38790   127.53177
   498  H   1.0    0.12    0.99    1.43   104.18300    69.59966   130.01694
   499  N   5.0   -0.69    3.01    1.93    79.58813    79.40211   127.59459
   500  C   4.0    0.06    3.98    3.59    80.30936    77.15967   129.00140
   501  C   4.0    0.07    3.00    3.02    78.94916    77.36777   131.54497
   502  O   6.0   -0.44    1.00    1.80    79.28860    79.12471   133.01725
   503  C   4.0   -0.09    3.98    3.58    83.19740    76.96334   129.22819
   504  C   4.0   -0.17    3.98    3.59    84.32772    76.38262   126.62111
   505  C   4.0   -0.23    3.98    3.59    83.87287    74.93775   131.16807
   506  C   4.0   -0.24    3.98    3.58    87.15149    76.93169   126.47996
   507  H   1.0    0.27    1.00    1.43    80.02664    81.07616   128.42486
   508  H   1.0    0.10    0.99    1.43    79.56500    75.51353   127.99758
   509  H   1.0    0.11    0.99    1.43    83.88875    78.79656   129.88910
   510  H   1.0    0.10    0.99    1.43    83.95695    74.39909   126.18236
   511  H   1.0    0.10    0.99    1.43    83.34229    77.53048   125.21524
   512  H   1.0    0.09    0.99    1.43    85.90590    74.80759   131.40291
   513  H   1.0    0.11    0.99    1.43    83.03899    75.40559   132.98890
   514  H   1.0    0.10    0.99    1.43    83.14632    73.10780   130.57371
   515  H   1.0    0.10    0.99    1.43    87.83810    76.57722   124.57981
   516  H   1.0    0.09    0.99    1.43    87.49925    78.89687   126.96581
   517  H   1.0    0.09    0.99    1.43    88.18167    75.74132   127.79223
   518  N   5.0   -0.69    3.00    1.93    75.83256    72.99142   137.96220
   519  C   4.0    0.06    3.98    3.59    76.36508    70.85530   139.58652
   520  C   4.0    0.07    3.00    3.02    74.33105    70.65552   141.62237
   521  O   6.0   -0.42    1.00    1.80    73.88773    72.37985   143.11958
   522  C   4.0   -0.08    3.98    3.58    79.05288    71.05984   140.74450
   523  C   4.0   -0.14    3.98    3.58    79.40568    73.51778   142.23668
   524  C   4.0   -0.24    3.98    3.59    81.01248    70.79018   138.64833
   525  C   4.0   -0.24    3.98    3.58    82.02264    73.79983   143.41380
   526  H   1.0    0.28    1.00    1.43    75.46732    74.66779   138.80775
   527  H   1.0    0.10    0.99    1.43    76.26672    69.16457   138.39814
   528  H   1.0    0.11    0.99    1.43    79.26085    69.46048   142.03828
   529  H   1.0    0.11    0.99    1.43    79.03336    75.12999   141.00354
   530  H   1.0    0.13    0.99    1.43    78.00118    73.55216   143.74507
   531  H   1.0    0.09    0.99    1.43    82.89610    70.64471   139.44622
   532  H   1.0    0.10    0.99    1.43    80.61349    69.10495   137.54516
   533  H   1.0    0.10    0.99    1.43    80.94034    72.41202   137.38500
   534  H   1.0    0.10    0.99    1.43    82.00401    75.40132   144.70453
   535  H   1.0    0.11    0.99    1.43    82.49210    72.10470   144.46932
   536  H   1.0    0.10    0.99    1.43    83.44751    74.12627   141.97115
   537  H   1.0    0.29    1.00    1.43    81.63160    86.97010   131.86074
   538  H   1.0    0.14    1.00    1.43    77.47125    83.72644   137.08537
   539  H   1.0    0.30    1.00    1.43    76.42952    81.04299   141.75058
   540  H   1.0    0.14    1.00    1.43    72.94938    77.13173   146.94930
   541  H   1.0    0.30    1.00    1.43    89.15587    74.22824   154.37155
   542  H   1.0    0.12    1.00    1.43   108.61555    90.58493   125.93758
   543  H   1.0    0.29    1.00    1.43   106.13819    96.80431   134.21267
   544  H   1.0    0.12    1.00    1.43    85.16522    82.59244   157.12599
   545  H   1.0    0.30    1.00    1.43    76.35285    85.72460   151.73584
   546  H   1.0    0.13    1.00    1.43    77.34637    89.61952   145.27500
   547  H   1.0    0.29    1.00    1.43    80.81363    91.86394   140.77088
   548  H   1.0    0.13    1.00    1.43    82.33382    95.81363   134.51128
   549  H   1.0    0.32    1.00    1.43   106.04733    82.49650   122.15411
   550  H   1.0    0.12    1.00    1.43    94.83998    67.12158   154.84223
   551  H   1.0    0.30    1.00    1.43   103.41064    62.91620   157.53135
   552  H   1.0    0.13    1.00    1.43   100.61514    60.78208   150.69261
   553  H   1.0    0.29    1.00    1.43   101.52536    62.06261   144.93887
   554  H   1.0    0.13    1.00    1.43    99.36892    69.79387   125.90722
   555  H   1.0    0.28    1.00    1.43    80.36736    79.39897   126.08285
   556  H   1.0    0.12    1.00    1.43    77.71926    76.03286   132.07075
   557  H   1.0    0.29    1.00    1.43    77.16631    73.27892   136.94681
   558  H   1.0    0.12    1.00    1.43    73.29958    69.07961   141.77603

           ------------------------------------------------- 
          |        Self-Consistent Charge Iterations        |
           ------------------------------------------------- 

          ...................................................
          :                      SETUP                      :
          :.................................................:
          :  # basis functions                1380          :
          :  # atomic orbitals                1380          :
          :  # shells                          832          :
          :  # electrons                      1524          :
          :  max. iterations                   250          :
          :  Hamiltonian                  GFN2-xTB          :
          :  restarted?                      false          :
          :  GBSA solvation                   true          :
          :  PC potential                    false          :
          :  electronic temp.          500.0000000     K    :
          :  accuracy                    0.1000000          :
          :  -> integral cutoff          0.3500000E+02      :
          :  -> integral neglect         0.1000000E-08      :
          :  -> SCF convergence          0.1000000E-06 Eh   :
          :  -> wf. convergence          0.1000000E-04 e    :
          :  Broyden damping             0.4000000          :
          ...................................................

 iter      E             dE          RMSdq      gap      omega  full diag
   1   -870.5404155 -0.870540E+03  0.424E+00    1.98       0.0  T
   2   -872.6413316 -0.210092E+01  0.220E+00    1.26       1.0  T
   3   -872.7277456 -0.864140E-01  0.120E+00    1.62       1.0  T
   4   -872.7751567 -0.474111E-01  0.306E-01    0.98       1.0  T
   5   -872.8041193 -0.289627E-01  0.123E-01    1.15       1.0  T
   6   -872.8054151 -0.129572E-02  0.655E-02    1.15       1.0  T
   7   -872.8060102 -0.595144E-03  0.316E-02    1.15       1.0  T
   8   -872.8061439 -0.133719E-03  0.124E-02    1.16       1.0  T
   9   -872.8061645 -0.205395E-04  0.678E-03    1.16       1.0  T
  10   -872.8061711 -0.661157E-05  0.324E-03    1.16       1.3  T
  11   -872.8061723 -0.124957E-05  0.148E-03    1.16       2.9  T
  12   -872.8061727 -0.376400E-06  0.621E-04    1.16       6.8  T
  13   -872.8061727 -0.406833E-07  0.338E-04    1.16      12.5  T
  14   -872.8061727 -0.181511E-07  0.164E-04    1.16      25.8  T
  15   -872.8061728 -0.457533E-08  0.722E-05    1.16      58.6  T
  16   -872.8061728 -0.788646E-09  0.380E-05    1.16     111.3  T

   *** convergence criteria satisfied after 16 iterations ***

         #    Occupation            Energy/Eh            Energy/eV
      -------------------------------------------------------------
         1        2.0000           -0.7435830             -20.2339
       ...           ...                  ...                  ...
       756        2.0000           -0.3600105              -9.7964
       757        2.0000           -0.3583264              -9.7506
       758        2.0000           -0.3578467              -9.7375
       759        2.0000           -0.3560086              -9.6875
       760        2.0000           -0.3555179              -9.6741
       761        2.0000           -0.3544458              -9.6450
       762        2.0000           -0.3492931              -9.5047 (HOMO)
       763        0.0000           -0.3066870              -8.3454 (LUMO)
       764        0.0000           -0.3013721              -8.2008
       765                         -0.2989416              -8.1346
       766                         -0.2974821              -8.0949
       767                         -0.2912884              -7.9264
       ...                                ...                  ...
      1380                          0.7253275              19.7372
      -------------------------------------------------------------
                  HL-Gap            0.0426061 Eh            1.1594 eV
             Fermi-level           -0.3279624 Eh           -8.9243 eV

 SCC (total)                   0 d,  0 h,  0 min, 30.818 sec
 SCC setup                      ...        0 min,  0.411 sec (  1.335%)
 Dispersion                     ...        0 min,  0.329 sec (  1.068%)
 integral evaluation            ...        0 min,  1.161 sec (  3.767%)
 zeroth order Hamiltonian       ...        0 min,  0.018 sec (  0.060%)
 iterations                     ...        0 min, 22.693 sec ( 73.635%)
 molecular gradient             ...        0 min,  6.049 sec ( 19.628%)
 printout                       ...        0 min,  0.156 sec (  0.506%)

         :::::::::::::::::::::::::::::::::::::::::::::::::::::
         ::                     SUMMARY                     ::
         :::::::::::::::::::::::::::::::::::::::::::::::::::::
         :: total energy             -861.781906619519 Eh   ::
         :: total w/o Gsasa/hb       -861.672430310712 Eh   ::
         :: gradient norm               0.743657767300 Eh/α ::
         :: HOMO-LUMO gap               1.159369845997 eV   ::
         ::.................................................::
         :: SCC energy               -872.833540434044 Eh   ::
         :: -> isotropic ES             2.608647694140 Eh   ::
         :: -> anisotropic ES          -0.096263753306 Eh   ::
         :: -> anisotropic XC           0.297699590345 Eh   ::
         :: -> dispersion              -0.739776154311 Eh   ::
         :: -> Gsolv                   -0.689722449279 Eh   ::
         ::    -> Gborn                -0.580246140473 Eh   ::
         ::    -> Gsasa                -0.029225122311 Eh   ::
         ::    -> Ghb                  -0.082108629622 Eh   ::
         ::    -> Gshift                0.001857443127 Eh   ::
         :: repulsion energy           10.973739336226 Eh   ::
         :: add. restraining            0.000000000000 Eh   ::
         :::::::::::::::::::::::::::::::::::::::::::::::::::::

           -------------------------------------------------
          |                Property Printout                |
           -------------------------------------------------

    * Orbital Energies and Occupations

         #    Occupation            Energy/Eh            Energy/eV
      -------------------------------------------------------------
         1        2.0000           -0.7435830             -20.2339
       ...           ...                  ...                  ...
       750        2.0000           -0.3662810              -9.9670
       751        2.0000           -0.3638316              -9.9004
       752        2.0000           -0.3637446              -9.8980
       753        2.0000           -0.3636093              -9.8943
       754        2.0000           -0.3628576              -9.8739
       755        2.0000           -0.3618211              -9.8457
       756        2.0000           -0.3600105              -9.7964
       757        2.0000           -0.3583264              -9.7506
       758        2.0000           -0.3578467              -9.7375
       759        2.0000           -0.3560086              -9.6875
       760        2.0000           -0.3555179              -9.6741
       761        2.0000           -0.3544458              -9.6450
       762        2.0000           -0.3492931              -9.5047 (HOMO)
       763        0.0000           -0.3066870              -8.3454 (LUMO)
       764        0.0000           -0.3013721              -8.2008
       765                         -0.2989416              -8.1346
       766                         -0.2974821              -8.0949
       767                         -0.2912884              -7.9264
       768                         -0.2852822              -7.7629
       769                         -0.2844113              -7.7392
       770                         -0.2828756              -7.6974
       771                         -0.2803440              -7.6285
       772                         -0.2800637              -7.6209
       773                         -0.2699394              -7.3454
       ...                                ...                  ...
      1380                          0.7253275              19.7372
      -------------------------------------------------------------
                  HL-Gap            0.0426061 Eh            1.1594 eV
             Fermi-level           -0.3279624 Eh           -8.9243 eV

   #   Z        covCN         q      C6AA      α(0)
   1   7 N      2.636    -0.397    30.283     8.173
   2   6 C      3.781     0.038    19.953     6.363
   3   6 C      2.767     0.205    23.654     7.965
   4   8 O      0.856    -0.366    21.005     6.145
   5   6 C      3.809    -0.058    21.615     6.618
   6   6 C      3.849    -0.007    20.672     6.467
   7   6 C      3.756    -0.116    22.769     6.803
   8   6 C      3.756    -0.110    22.663     6.788
   9   1 H      0.860     0.170     1.272     1.767
  10   1 H      0.924     0.061     2.187     2.313
  11   1 H      0.924     0.031     2.579     2.512
  12   1 H      0.924     0.031     2.577     2.511
  13   1 H      0.924     0.029     2.601     2.522
  14   1 H      0.925     0.046     2.369     2.407
  15   1 H      0.925     0.037     2.491     2.468
  16   1 H      0.925     0.043     2.404     2.425
  17   1 H      0.925     0.045     2.387     2.416
  18   1 H      0.925     0.041     2.431     2.438
  19   1 H      0.925     0.031     2.570     2.507
  20   7 N      2.635    -0.390    30.098     8.148
  21   6 C      3.782     0.041    19.904     6.355
  22   6 C      2.765     0.205    23.643     7.963
  23   8 O      0.856    -0.367    21.040     6.150
  24   6 C      3.811    -0.065    21.737     6.636
  25   6 C      3.184     0.054    26.361     8.379
  26   7 N      1.920    -0.303    28.695     7.942
  27   6 C      3.033    -0.030    28.706     8.788
  28   6 C      3.136     0.090    25.785     8.311
  29   7 N      2.810    -0.106    23.319     7.172
  30   1 H      0.860     0.182     1.202     1.718
  31   1 H      0.924     0.051     2.313     2.379
  32   1 H      0.924     0.058     2.219     2.329
  33   1 H      0.924     0.065     2.142     2.289
  34   1 H      0.927     0.033     2.538     2.491
  35   1 H      0.926     0.034     2.526     2.486
  36   1 H      0.860     0.197     1.121     1.658
  37   7 N      2.636    -0.399    30.332     8.179
  38   6 C      3.785     0.039    19.935     6.360
  39   6 C      2.760     0.272    22.399     7.750
  40   8 O      0.858    -0.501    23.803     6.541
  41   6 C      3.755    -0.114    22.736     6.799
  42   1 H      0.860     0.160     1.334     1.810
  43   1 H      0.924     0.041     2.439     2.442
  44   1 H      0.925     0.054     2.267     2.355
  45   1 H      0.925     0.038     2.478     2.462
  46   1 H      0.925     0.036     2.509     2.477
  47   7 N      2.691    -0.182    24.945     7.418
  48   6 C      3.801     0.011    20.387     6.429
  49   6 C      2.760     0.264    22.545     7.776
  50   8 O      0.858    -0.465    23.027     6.434
  51   6 C      3.807    -0.072    21.873     6.658
  52   6 C      3.809    -0.092    22.250     6.715
  53   6 C      2.744     0.282    22.218     7.718
  54   8 O      0.859    -0.469    23.107     6.445
  55   7 N      2.640    -0.259    26.725     7.678
  56   1 H      0.860     0.239     0.927     1.508
  57   1 H      0.924     0.074     2.044     2.236
  58   1 H      0.925     0.093     1.855     2.130
  59   1 H      0.924     0.068     2.106     2.270
  60   1 H      0.924     0.048     2.350     2.397
  61   1 H      0.924     0.067     2.118     2.276
  62   1 H      0.860     0.196     1.125     1.662
  63   1 H      0.860     0.254     0.869     1.460
  64   7 N      2.693    -0.156    24.379     7.333
  65   6 C      3.796     0.008    20.451     6.439
  66   6 C      2.759     0.269    22.455     7.760
  67   8 O      0.858    -0.492    23.598     6.513
  68   6 C      3.814    -0.075    21.928     6.665
  69   6 C      2.965     0.004    27.928     8.668
  70   6 C      2.923    -0.044    29.096     8.846
  71   6 C      2.929    -0.042    29.047     8.839
  72   6 C      2.918    -0.075    29.879     8.964
  73   6 C      2.917    -0.054    29.350     8.884
  74   6 C      2.846     0.142    24.909     8.180
  75   8 O      1.659    -0.421    21.259     6.224
  76   1 H      0.860     0.201     1.102     1.644
  77   1 H      0.924     0.098     1.799     2.097
  78   1 H      0.924     0.065     2.141     2.288
  79   1 H      0.924     0.068     2.104     2.269
  80   1 H      0.926     0.046     2.377     2.411
  81   1 H      0.926     0.052     2.290     2.367
  82   1 H      0.925     0.028     2.608     2.525
  83   1 H      0.926     0.051     2.308     2.376
  84   1 H      0.805     0.313     0.682     1.298
  85   7 N      2.697    -0.173    24.748     7.389
  86   6 C      3.795     0.026    20.149     6.392
  87   6 C      2.758     0.271    22.426     7.755
  88   8 O      0.858    -0.483    23.408     6.487
  89   6 C      3.813    -0.076    21.932     6.666
  90   6 C      2.971    -0.003    28.103     8.696
  91   6 C      2.922    -0.053    29.326     8.881
  92   6 C      2.926    -0.039    28.974     8.827
  93   6 C      2.917    -0.095    30.397     9.041
  94   6 C      2.918    -0.062    29.533     8.912
  95   6 C      2.846     0.139    24.955     8.187
  96   8 O      1.659    -0.426    21.367     6.240
  97   1 H      0.860     0.237     0.934     1.514
  98   1 H      0.924     0.061     2.189     2.313
  99   1 H      0.925     0.065     2.144     2.290
 100   1 H      0.925     0.060     2.193     2.316
 101   1 H      0.926     0.062     2.170     2.304
 102   1 H      0.926     0.026     2.643     2.542
 103   1 H      0.926     0.075     2.028     2.227
 104   1 H      0.926     0.047     2.364     2.404
 105   1 H      0.804     0.345     0.601     1.218
 106   7 N      2.694    -0.160    24.467     7.346
 107   6 C      3.794     0.016    20.310     6.417
 108   6 C      2.760     0.278    22.304     7.734
 109   8 O      0.858    -0.474    23.221     6.461
 110   6 C      3.852    -0.020    20.887     6.500
 111   6 C      3.802    -0.066    21.758     6.641
 112   6 C      3.756    -0.115    22.757     6.802
 113   6 C      3.751    -0.107    22.608     6.781
 114   1 H      0.860     0.205     1.079     1.628
 115   1 H      0.924     0.074     2.043     2.235
 116   1 H      0.924     0.049     2.329     2.386
 117   1 H      0.924     0.049     2.330     2.387
 118   1 H      0.925     0.036     2.498     2.471
 119   1 H      0.925     0.057     2.236     2.339
 120   1 H      0.925     0.031     2.572     2.508
 121   1 H      0.925     0.046     2.367     2.406
 122   1 H      0.925     0.044     2.396     2.420
 123   1 H      0.925     0.030     2.585     2.514
 124   1 H      0.925     0.042     2.422     2.434
 125   7 N      2.691    -0.163    24.537     7.357
 126   6 C      3.794     0.022    20.218     6.403
 127   6 C      2.768     0.193    23.877     8.003
 128   8 O      0.856    -0.347    20.646     6.092
 129   6 C      3.726     0.124    18.649     6.166
 130   8 O      1.656    -0.475    22.360     6.383
 131   6 C      3.752    -0.143    23.312     6.885
 132   1 H      0.860     0.221     1.004     1.569
 133   1 H      0.924     0.095     1.832     2.117
 134   1 H      0.923     0.031     2.574     2.509
 135   1 H      0.805     0.340     0.613     1.229
 136   1 H      0.925     0.075     2.034     2.230
 137   1 H      0.925     0.052     2.301     2.372
 138   1 H      0.925     0.067     2.121     2.277
 139   7 N      2.637    -0.401    30.399     8.189
 140   6 C      3.788     0.040    19.912     6.355
 141   6 C      2.760     0.272    22.411     7.752
 142   8 O      0.858    -0.500    23.789     6.539
 143   6 C      3.808    -0.059    21.625     6.620
 144   6 C      3.055    -0.045    29.070     8.842
 145   6 C      3.040    -0.006    28.122     8.698
 146   6 C      3.116    -0.023    28.404     8.730
 147   7 N      2.778    -0.110    23.393     7.183
 148   6 C      3.094     0.051    26.753     8.477
 149   6 C      2.910    -0.048    29.188     8.859
 150   6 C      2.908    -0.055    29.356     8.884
 151   6 C      2.919    -0.051    29.258     8.870
 152   6 C      2.924    -0.044    29.085     8.844
 153   1 H      0.860     0.182     1.204     1.719
 154   1 H      0.924     0.023     2.691     2.565
 155   1 H      0.924     0.055     2.258     2.350
 156   1 H      0.924     0.025     2.663     2.552
 157   1 H      0.926     0.028     2.610     2.526
 158   1 H      0.860     0.191     1.155     1.683
 159   1 H      0.925     0.016     2.789     2.612
 160   1 H      0.926     0.035     2.522     2.484
 161   1 H      0.926     0.034     2.524     2.484
 162   1 H      0.926     0.047     2.362     2.403
 163   7 N      2.689    -0.217    25.726     7.533
 164   6 C      3.798     0.038    19.945     6.359
 165   6 C      2.755     0.280    22.265     7.727
 166   8 O      0.859    -0.495    23.672     6.523
 167   6 C      3.801    -0.108    22.568     6.764
 168   6 C      2.683     0.367    20.784     7.461
 169   8 O      0.856    -0.593    25.940     6.828
 170   8 O      0.856    -0.597    26.052     6.843
 171   1 H      0.859     0.221     1.003     1.569
 172   1 H      0.923     0.055     2.261     2.351
 173   1 H      0.924     0.044     2.391     2.418
 174   1 H      0.924     0.046     2.376     2.410
 175   7 N      2.690    -0.172    24.713     7.383
 176   6 C      3.797     0.012    20.372     6.427
 177   6 C      2.751     0.268    22.473     7.763
 178   8 O      0.858    -0.463    22.991     6.429
 179   6 C      3.804    -0.081    22.039     6.683
 180   6 C      3.801    -0.088    22.177     6.705
 181   6 C      3.738    -0.023    21.059     6.548
 182   7 N      2.702    -0.151    24.260     7.315
 183   6 C      2.736     0.234    23.090     7.867
 184   7 N      2.648    -0.253    26.574     7.656
 185   7 N      2.657    -0.265    26.856     7.697
 186   1 H      0.860     0.182     1.205     1.720
 187   1 H      0.924     0.083     1.946     2.181
 188   1 H      0.924     0.066     2.131     2.283
 189   1 H      0.924     0.079     1.993     2.208
 190   1 H      0.925     0.079     1.988     2.205
 191   1 H      0.925     0.063     2.160     2.298
 192   1 H      0.924     0.086     1.920     2.167
 193   1 H      0.924     0.069     2.094     2.263
 194   1 H      0.859     0.225     0.986     1.555
 195   1 H      0.860     0.242     0.913     1.497
 196   1 H      0.860     0.254     0.868     1.460
 197   1 H      0.860     0.245     0.904     1.489
 198   1 H      0.860     0.253     0.871     1.462
 199   7 N      2.692    -0.182    24.952     7.419
 200   6 C      3.798     0.032    20.034     6.373
 201   6 C      2.755     0.267    22.484     7.765
 202   8 O      0.858    -0.460    22.913     6.418
 203   6 C      3.812    -0.105    22.503     6.752
 204   6 C      2.746     0.295    21.987     7.678
 205   8 O      0.859    -0.494    23.661     6.522
 206   7 N      2.639    -0.279    27.200     7.746
 207   1 H      0.860     0.204     1.088     1.634
 208   1 H      0.924     0.073     2.054     2.241
 209   1 H      0.924     0.094     1.837     2.120
 210   1 H      0.925     0.070     2.086     2.259
 211   1 H      0.860     0.234     0.946     1.524
 212   1 H      0.860     0.231     0.960     1.535
 213   7 N      2.686    -0.169    24.662     7.376
 214   6 C      3.746    -0.034    21.253     6.576
 215   6 C      2.750     0.275    22.357     7.742
 216   8 O      0.858    -0.463    22.985     6.428
 217   1 H      0.860     0.219     1.016     1.579
 218   1 H      0.924     0.078     1.997     2.210
 219   1 H      0.924     0.113     1.669     2.020
 220   7 N      2.692    -0.182    24.937     7.417
 221   6 C      3.793     0.015    20.326     6.420
 222   6 C      2.769     0.271    22.418     7.754
 223   8 O      0.858    -0.488    23.524     6.503
 224   6 C      3.805    -0.067    21.783     6.644
 225   6 C      3.805    -0.103    22.467     6.748
 226   6 C      2.744     0.290    22.074     7.693
 227   8 O      0.859    -0.508    23.957     6.562
 228   7 N      2.638    -0.293    27.553     7.796
 229   1 H      0.860     0.209     1.062     1.614
 230   1 H      0.924     0.089     1.887     2.148
 231   1 H      0.924     0.071     2.075     2.253
 232   1 H      0.924     0.065     2.143     2.289
 233   1 H      0.925     0.077     2.006     2.215
 234   1 H      0.924     0.065     2.139     2.287
 235   1 H      0.860     0.238     0.932     1.512
 236   1 H      0.860     0.231     0.962     1.537
 237   7 N      2.688    -0.181    24.927     7.415
 238   6 C      3.810     0.039    19.911     6.352
 239   6 C      2.758     0.282    22.219     7.719
 240   8 O      0.858    -0.504    23.880     6.552
 241   6 C      3.804    -0.099    22.383     6.735
 242   6 C      2.683     0.377    20.618     7.431
 243   8 O      0.856    -0.654    27.474     7.028
 244   8 O      0.856    -0.624    26.707     6.929
 245   1 H      0.860     0.217     1.026     1.586
 246   1 H      0.924     0.075     2.035     2.231
 247   1 H      0.924     0.022     2.699     2.569
 248   1 H      0.924     0.038     2.480     2.463
 249   7 N      2.693    -0.177    24.825     7.400
 250   6 C      3.790     0.033    20.035     6.375
 251   6 C      2.770     0.197    23.800     7.990
 252   8 O      0.856    -0.367    21.031     6.148
 253   6 C      3.811    -0.063    21.709     6.632
 254   6 C      3.849    -0.005    20.636     6.461
 255   6 C      3.758    -0.116    22.780     6.805
 256   6 C      3.756    -0.124    22.935     6.828
 257   1 H      0.860     0.220     1.009     1.573
 258   1 H      0.924     0.083     1.945     2.181
 259   1 H      0.924     0.047     2.358     2.401
 260   1 H      0.924     0.061     2.184     2.311
 261   1 H      0.924     0.029     2.596     2.520
 262   1 H      0.925     0.056     2.247     2.344
 263   1 H      0.925     0.032     2.564     2.504
 264   1 H      0.925     0.050     2.325     2.385
 265   1 H      0.925     0.054     2.268     2.355
 266   1 H      0.925     0.051     2.306     2.375
 267   1 H      0.925     0.041     2.432     2.439
 268   7 N      2.638    -0.385    29.945     8.127
 269   6 C      3.784     0.042    19.879     6.351
 270   6 C      2.768     0.206    23.627     7.961
 271   8 O      0.856    -0.368    21.059     6.153
 272   6 C      3.810    -0.068    21.793     6.645
 273   6 C      2.970     0.004    27.935     8.670
 274   6 C      2.924    -0.042    29.048     8.839
 275   6 C      2.925    -0.039    28.961     8.825
 276   6 C      2.920    -0.035    28.872     8.811
 277   6 C      2.920    -0.034    28.858     8.809
 278   6 C      2.920    -0.038    28.942     8.822
 279   1 H      0.860     0.159     1.339     1.812
 280   1 H      0.924     0.064     2.158     2.297
 281   1 H      0.924     0.050     2.316     2.380
 282   1 H      0.924     0.049     2.334     2.389
 283   1 H      0.926     0.039     2.462     2.453
 284   1 H      0.926     0.018     2.769     2.602
 285   1 H      0.926     0.058     2.224     2.332
 286   1 H      0.926     0.033     2.545     2.495
 287   1 H      0.926     0.051     2.304     2.374
 288   7 N      2.634    -0.384    29.920     8.124
 289   6 C      3.779     0.022    20.234     6.408
 290   6 C      2.766     0.201    23.720     7.976
 291   8 O      0.856    -0.386    21.411     6.204
 292   6 C      3.724     0.116    18.783     6.189
 293   8 O      1.656    -0.474    22.334     6.380
 294   6 C      3.752    -0.111    22.679     6.791
 295   1 H      0.860     0.173     1.255     1.755
 296   1 H      0.923     0.073     2.056     2.243
 297   1 H      0.923     0.038     2.479     2.462
 298   1 H      0.805     0.342     0.608     1.225
 299   1 H      0.925     0.065     2.138     2.287
 300   1 H      0.925     0.042     2.429     2.437
 301   1 H      0.925     0.050     2.319     2.382
 302   7 N      2.639    -0.398    30.327     8.179
 303   6 C      3.786     0.030    20.089     6.384
 304   6 C      2.757     0.267    22.496     7.767
 305   8 O      0.858    -0.482    23.385     6.484
 306   6 C      3.679     0.084    19.389     6.307
 307   8 O      1.656    -0.488    22.641     6.423
 308   1 H      0.860     0.185     1.187     1.707
 309   1 H      0.924     0.036     2.502     2.474
 310   1 H      0.923     0.032     2.563     2.504
 311   1 H      0.923     0.008     2.921     2.673
 312   1 H      0.805     0.345     0.601     1.217
 313   7 N      2.692    -0.167    24.616     7.369
 314   6 C      3.800     0.007    20.464     6.441
 315   6 C      2.754     0.270    22.433     7.756
 316   8 O      0.858    -0.502    23.840     6.546
 317   6 C      3.853    -0.016    20.818     6.489
 318   6 C      3.756    -0.118    22.808     6.809
 319   6 C      3.756    -0.120    22.845     6.815
 320   1 H      0.860     0.199     1.111     1.651
 321   1 H      0.924     0.090     1.878     2.143
 322   1 H      0.924     0.044     2.395     2.420
 323   1 H      0.925     0.063     2.165     2.301
 324   1 H      0.925     0.033     2.540     2.492
 325   1 H      0.925     0.051     2.310     2.377
 326   1 H      0.925     0.058     2.223     2.332
 327   1 H      0.925     0.047     2.359     2.402
 328   1 H      0.925     0.041     2.432     2.439
 329   7 N      2.695    -0.178    24.843     7.403
 330   6 C      3.792     0.015    20.336     6.422
 331   6 C      2.754     0.268    22.483     7.765
 332   8 O      0.858    -0.467    23.074     6.440
 333   6 C      3.806    -0.074    21.909     6.663
 334   6 C      3.801    -0.075    21.930     6.667
 335   6 C      3.804    -0.099    22.395     6.737
 336   6 C      3.731    -0.066    21.871     6.676
 337   7 N      3.482    -0.141    24.041     7.282
 338   1 H      0.860     0.226     0.982     1.552
 339   1 H      0.924     0.060     2.198     2.319
 340   1 H      0.924     0.048     2.344     2.394
 341   1 H      0.924     0.065     2.141     2.288
 342   1 H      0.924     0.059     2.215     2.327
 343   1 H      0.924     0.052     2.293     2.368
 344   1 H      0.924     0.079     1.993     2.208
 345   1 H      0.924     0.082     1.958     2.188
 346   1 H      0.924     0.130     1.535     1.938
 347   1 H      0.924     0.128     1.551     1.948
 348   1 H      0.859     0.302     0.706     1.317
 349   1 H      0.859     0.301     0.711     1.321
 350   1 H      0.859     0.296     0.726     1.335
 351   7 N      2.697    -0.172    24.718     7.384
 352   6 C      3.798     0.007    20.462     6.441
 353   6 C      2.763     0.270    22.441     7.758
 354   8 O      0.858    -0.489    23.547     6.506
 355   6 C      3.852    -0.023    20.940     6.508
 356   6 C      3.803    -0.067    21.774     6.643
 357   6 C      3.755    -0.112    22.696     6.793
 358   6 C      3.751    -0.108    22.625     6.783
 359   1 H      0.860     0.227     0.979     1.550
 360   1 H      0.924     0.088     1.901     2.156
 361   1 H      0.924     0.053     2.289     2.366
 362   1 H      0.924     0.048     2.346     2.395
 363   1 H      0.924     0.036     2.500     2.473
 364   1 H      0.925     0.051     2.305     2.374
 365   1 H      0.925     0.030     2.581     2.512
 366   1 H      0.925     0.041     2.436     2.441
 367   1 H      0.925     0.048     2.349     2.397
 368   1 H      0.925     0.031     2.566     2.505
 369   1 H      0.925     0.040     2.452     2.449
 370   7 N      2.692    -0.162    24.500     7.351
 371   6 C      3.797     0.009    20.433     6.437
 372   6 C      2.757     0.268    22.475     7.763
 373   8 O      0.858    -0.461    22.935     6.421
 374   6 C      3.807    -0.086    22.142     6.698
 375   6 C      3.800    -0.091    22.242     6.715
 376   6 C      3.744    -0.045    21.457     6.608
 377   7 N      2.699    -0.139    24.000     7.276
 378   6 C      2.739     0.212    23.511     7.939
 379   7 N      2.648    -0.258    26.706     7.675
 380   7 N      2.653    -0.241    26.294     7.616
 381   1 H      0.860     0.244     0.906     1.491
 382   1 H      0.924     0.065     2.144     2.290
 383   1 H      0.925     0.063     2.161     2.299
 384   1 H      0.924     0.087     1.908     2.160
 385   1 H      0.925     0.085     1.924     2.169
 386   1 H      0.924     0.061     2.183     2.310
 387   1 H      0.924     0.080     1.981     2.201
 388   1 H      0.924     0.110     1.695     2.036
 389   1 H      0.860     0.225     0.988     1.557
 390   1 H      0.860     0.244     0.908     1.493
 391   1 H      0.860     0.254     0.866     1.458
 392   1 H      0.860     0.248     0.893     1.480
 393   1 H      0.860     0.262     0.837     1.434
 394   7 N      2.691    -0.157    24.400     7.336
 395   6 C      3.794     0.029    20.093     6.383
 396   6 C      2.771     0.205    23.651     7.965
 397   8 O      0.856    -0.346    20.637     6.091
 398   6 C      3.809    -0.047    21.402     6.585
 399   6 C      3.797    -0.093    22.280     6.721
 400   6 C      2.683     0.373    20.687     7.443
 401   8 O      0.856    -0.638    27.067     6.975
 402   8 O      0.856    -0.656    27.531     7.035
 403   1 H      0.860     0.207     1.072     1.622
 404   1 H      0.924     0.083     1.948     2.182
 405   1 H      0.924     0.055     2.259     2.350
 406   1 H      0.924     0.043     2.407     2.426
 407   1 H      0.924     0.015     2.815     2.624
 408   1 H      0.924     0.022     2.698     2.569
 409   7 N      2.636    -0.392    30.143     8.154
 410   6 C      3.783     0.034    20.013     6.372
 411   6 C      2.768     0.200    23.746     7.981
 412   8 O      0.856    -0.382    21.331     6.192
 413   6 C      3.810    -0.072    21.876     6.658
 414   6 C      3.055    -0.036    28.842     8.807
 415   6 C      3.033    -0.014    28.334     8.731
 416   6 C      3.115    -0.024    28.429     8.734
 417   7 N      2.778    -0.100    23.195     7.153
 418   6 C      3.087     0.042    26.957     8.511
 419   6 C      2.910    -0.041    29.027     8.834
 420   6 C      2.907    -0.056    29.381     8.888
 421   6 C      2.918    -0.046    29.150     8.854
 422   6 C      2.923    -0.038    28.942     8.822
 423   1 H      0.860     0.164     1.307     1.791
 424   1 H      0.924     0.073     2.051     2.239
 425   1 H      0.924     0.061     2.183     2.311
 426   1 H      0.924     0.052     2.291     2.367
 427   1 H      0.926     0.066     2.125     2.279
 428   1 H      0.860     0.207     1.072     1.622
 429   1 H      0.926     0.021     2.714     2.576
 430   1 H      0.926     0.037     2.485     2.465
 431   1 H      0.925     0.006     2.950     2.686
 432   1 H      0.925     0.003     3.015     2.715
 433   7 N      2.637    -0.384    29.931     8.125
 434   6 C      3.789     0.023    20.192     6.400
 435   6 C      2.758     0.270    22.431     7.756
 436   8 O      0.858    -0.504    23.867     6.550
 437   6 C      3.726     0.117    18.758     6.184
 438   8 O      1.656    -0.461    22.062     6.341
 439   6 C      3.753    -0.125    22.955     6.832
 440   1 H      0.860     0.165     1.306     1.790
 441   1 H      0.924     0.052     2.299     2.371
 442   1 H      0.923     0.001     3.049     2.731
 443   1 H      0.805     0.340     0.611     1.228
[...]
   222  C   3.946        O  223 1.619    N  237 1.305    C  221 0.940
   223  O   1.943        C  222 1.619    N  237 0.193
   224  C   3.990        C  225 0.993    H  232 0.971    H  231 0.971    C  221 0.971
   225  C   3.991        C  224 0.993    C  226 0.971    H  233 0.970    H  234 0.954
   226  C   3.941        O  227 1.638    N  228 1.305    C  225 0.971
   227  O   1.953        C  226 1.638    N  228 0.197
   228  N   3.387        C  226 1.305    H  236 0.926    H  235 0.924    O  227 0.197
   229  H   0.956        N  220 0.921
   230  H   0.992        C  221 0.944
   231  H   0.994        C  224 0.971
   232  H   0.996        C  224 0.971
   233  H   0.993        C  225 0.970
   234  H   0.996        C  225 0.954
   235  H   0.943        N  228 0.924
   236  H   0.947        N  228 0.926
   237  N   3.468        C  222 1.305    C  238 0.986    H  245 0.898    O  223 0.193
   238  C   3.969        N  237 0.986    C  241 0.977    H  246 0.943    C  239 0.930
   239  C   3.946        O  240 1.623    N  249 1.308    C  238 0.930
   240  O   1.945        C  239 1.623    N  249 0.194
   241  C   3.985        H  247 0.980    C  238 0.977    H  248 0.968    C  242 0.907
   242  C   3.934        O  244 1.504    O  243 1.502    C  241 0.907
   243  O   1.793        C  242 1.502    O  244 0.217
   244  O   1.823        C  242 1.504    O  243 0.217
   245  H   0.953        N  237 0.898
   246  H   0.994        C  238 0.943
   247  H   0.999        C  241 0.980
   248  H   0.998        C  241 0.968
   249  N   3.474        C  239 1.308    C  250 0.984    H  257 0.899    O  240 0.194
   250  C   3.964        N  249 0.984    C  251 0.984    H  258 0.949    C  253 0.941
   251  C   3.897        O  252 1.885    C  250 0.984    H  544 0.953
   252  O   2.047        C  251 1.885
   253  C   3.981        C  254 0.987    H  259 0.974    H  260 0.970    C  250 0.941
   254  C   3.992        C  256 1.010    C  255 1.004    C  253 0.987    H  261 0.968
   255  C   3.992        C  254 1.004    H  263 0.986    H  262 0.984    H  264 0.983
   256  C   3.994        C  254 1.010    H  266 0.985    H  265 0.984    H  267 0.979
   257  H   0.951        N  249 0.899
   258  H   0.993        C  250 0.949
   259  H   0.998        C  253 0.974
   260  H   0.996        C  253 0.970
   261  H   0.999        C  254 0.968
   262  H   0.995        C  255 0.984
   263  H   0.999        C  255 0.986
   264  H   0.997        C  255 0.983
   265  H   0.996        C  256 0.984
   266  H   0.997        C  256 0.985
   267  H   0.998        C  256 0.979
   268  N   3.003        C  269 1.022    H  545 0.951    H  279 0.948
   269  C   3.985        N  268 1.022    C  270 0.988    H  280 0.953    C  272 0.929
   270  C   3.896        O  271 1.880    C  269 0.988    H  546 0.955
   271  O   2.056        C  270 1.880
   272  C   3.991        C  273 1.011    H  282 0.969    H  281 0.967    C  269 0.929
   273  C   3.988        C  274 1.415    C  275 1.406    C  272 1.011    C  278 0.109
   274  C   3.991        C  276 1.441    C  273 1.415    H  283 0.969    C  277 0.109
   275  C   3.992        C  277 1.449    C  273 1.406    H  284 0.969    C  276 0.112
   276  C   3.990        C  278 1.441    C  274 1.441    H  285 0.969    C  275 0.112
   277  C   3.992        C  275 1.449    C  278 1.432    H  286 0.968    C  274 0.109
   278  C   3.989        C  276 1.441    C  277 1.432    H  287 0.969    C  273 0.109
   279  H   0.975        N  268 0.948
   280  H   0.996        C  269 0.953
   281  H   0.997        C  272 0.967
   282  H   0.997        C  272 0.969
   283  H   0.998        C  274 0.969
   284  H   1.000        C  275 0.969
   285  H   0.996        C  276 0.969
   286  H   0.999        C  277 0.968
   287  H   0.997        C  278 0.969
   288  N   3.002        C  289 1.031    H  547 0.953    H  295 0.937
   289  C   3.986        N  288 1.031    C  290 1.005    H  296 0.929    C  292 0.914
   290  C   3.905        O  291 1.851    C  289 1.005    H  548 0.955
   291  O   2.041        C  290 1.851
   292  C   3.956        C  294 1.008    O  293 1.003    H  297 0.953    C  289 0.914
   293  O   1.953        C  292 1.003    H  298 0.868
   294  C   3.993        C  292 1.008    H  301 0.982    H  299 0.980    H  300 0.978
   295  H   0.970        N  288 0.937
   296  H   0.995        C  289 0.929
   297  H   0.999        C  292 0.953
   298  H   0.883        O  293 0.868
   299  H   0.996        C  294 0.980
   300  H   0.998        C  294 0.978
   301  H   0.997        C  294 0.982
   302  N   2.992        C  303 1.023    H  549 0.950    H  308 0.926
   303  C   3.989        N  302 1.023    C  306 0.968    H  309 0.963    C  304 0.934
   304  C   3.947        O  305 1.628    N  313 1.312    C  303 0.934
   305  O   1.956        C  304 1.628    N  313 0.198
   306  C   3.959        O  307 0.999    H  311 0.970    C  303 0.968    H  310 0.968
   307  O   1.922        C  306 0.999    H  312 0.868
   308  H   0.966        N  302 0.926
   309  H   0.998        C  303 0.963
   310  H   0.999        C  306 0.968
   311  H   1.000        C  306 0.970
   312  H   0.881        O  307 0.868
   313  N   3.484        C  304 1.312    C  314 0.973    H  320 0.926    O  305 0.198
   314  C   3.953        N  313 0.973    C  317 0.957    H  321 0.949    C  315 0.934
   315  C   3.949        O  316 1.617    N  329 1.319    C  314 0.934
   316  O   1.945        C  315 1.617    N  329 0.201
   317  C   3.989        C  319 1.009    C  318 1.008    H  322 0.966    C  314 0.957
   318  C   3.993        C  317 1.008    H  325 0.985    H  324 0.984    H  323 0.983
   319  C   3.993        C  317 1.009    H  327 0.985    H  328 0.985    H  326 0.983
   320  H   0.960        N  313 0.926
   321  H   0.992        C  314 0.949
   322  H   0.998        C  317 0.966
   323  H   0.995        C  318 0.983
   324  H   0.999        C  318 0.984
   325  H   0.997        C  318 0.985
   326  H   0.996        C  319 0.983
   327  H   0.998        C  319 0.985
   328  H   0.998        C  319 0.985
   329  N   3.481        C  315 1.319    C  330 0.971    H  338 0.897    O  316 0.201
   330  C   3.956        N  329 0.971    C  333 0.969    H  339 0.959    C  331 0.931
   331  C   3.952        O  332 1.608    N  351 1.325    C  330 0.931
   332  O   1.977        C  331 1.608    N  351 0.201
   333  C   3.983        C  334 1.004    H  340 0.976    C  330 0.969    H  341 0.958
   334  C   3.991        C  333 1.004    C  335 1.002    H  343 0.977    H  342 0.971
   335  C   3.985        C  336 1.012    C  334 1.002    H  344 0.972    H  345 0.967
   336  C   3.915        C  335 1.012    H  347 0.961    N  337 0.961    H  346 0.958
   337  N   3.666        C  336 0.961    H  350 0.897    H  349 0.895    H  348 0.890
   338  H   0.949        N  329 0.897
   339  H   0.996        C  330 0.959
   340  H   0.997        C  333 0.976
   341  H   0.996        C  333 0.958
   342  H   0.997        C  334 0.971
   343  H   0.997        C  334 0.977
   344  H   0.994        C  335 0.972
   345  H   0.993        C  335 0.967
   346  H   0.983        C  336 0.958
   347  H   0.984        C  336 0.961
   348  H   0.908        N  337 0.890
   349  H   0.910        N  337 0.895
   350  H   0.913        N  337 0.897
   351  N   3.496        C  331 1.325    C  352 0.973    H  359 0.889    O  332 0.201
   352  C   3.957        N  351 0.973    C  355 0.963    H  360 0.950    C  353 0.936
   353  C   3.946        O  354 1.595    N  370 1.329    C  352 0.936
   354  O   1.980        C  353 1.595    N  370 0.196
   355  C   3.988        C  357 1.008    C  356 0.995    C  352 0.963    H  361 0.960
   356  C   3.994        C  358 1.019    C  355 0.995    H  363 0.974    H  362 0.970
   357  C   3.994        C  355 1.008    H  365 0.984    H  366 0.983    H  364 0.981
   358  C   3.995        C  356 1.019    H  368 0.986    H  367 0.985    H  369 0.985
   359  H   0.948        N  351 0.889
   360  H   0.992        C  352 0.950
   361  H   0.997        C  355 0.960
   362  H   0.997        C  356 0.970
   363  H   0.999        C  356 0.974
   364  H   0.997        C  357 0.981
   365  H   0.999        C  357 0.984
   366  H   0.998        C  357 0.983
   367  H   0.997        C  358 0.985
   368  H   0.999        C  358 0.986
   369  H   0.998        C  358 0.985
   370  N   3.485        C  353 1.329    C  371 0.986    H  381 0.886    O  354 0.196
   371  C   3.966        N  370 0.986    C  374 0.963    H  382 0.946    C  372 0.939
   372  C   3.943        O  373 1.626    N  394 1.293    C  371 0.939
   373  O   1.995        C  372 1.626    N  394 0.196
   374  C   3.980        C  375 1.005    H  383 0.969    H  384 0.966    C  371 0.963
   375  C   3.986        C  376 1.007    C  374 1.005    H  385 0.970    H  386 0.966
   376  C   3.955        C  375 1.007    N  377 0.986    H  388 0.954    H  387 0.948
   377  N   3.463        C  378 1.310    C  376 0.986    H  389 0.902    N  380 0.112
   378  C   3.978        N  380 1.356    N  377 1.310    N  379 1.279
   379  N   3.345        C  378 1.279    H  391 0.915    H  390 0.914
   380  N   3.429        C  378 1.356    H  393 0.911    H  392 0.892    N  377 0.112
   381  H   0.940        N  370 0.886
   382  H   0.995        C  371 0.946
   383  H   0.995        C  374 0.969
   384  H   0.992        C  374 0.966
   385  H   0.992        C  375 0.970
   386  H   0.996        C  375 0.966
   387  H   0.994        C  376 0.948
   388  H   0.988        C  376 0.954
   389  H   0.949        N  377 0.902
   390  H   0.941        N  379 0.914
   391  H   0.935        N  379 0.915
   392  H   0.939        N  380 0.892
   393  H   0.931        N  380 0.911
   394  N   3.480        C  372 1.293    C  395 0.987    H  403 0.923    O  373 0.196
   395  C   3.971        N  394 0.987    C  396 0.974    C  398 0.951    H  404 0.949
   396  C   3.904        O  397 1.899    C  395 0.974    H  550 0.954
   397  O   2.053        C  396 1.899
   398  C   3.990        C  399 1.002    H  406 0.975    H  405 0.969    C  395 0.951
   399  C   3.990        C  398 1.002    H  407 0.979    H  408 0.978    C  400 0.905
   400  C   3.932        O  401 1.514    O  402 1.494    C  399 0.905
   401  O   1.806        C  400 1.514    O  402 0.219
   402  O   1.786        C  400 1.494    O  401 0.219
   403  H   0.957        N  394 0.923
   404  H   0.993        C  395 0.949
   405  H   0.997        C  398 0.969
   406  H   0.998        C  398 0.975
   407  H   1.000        C  399 0.979
   408  H   0.999        C  399 0.978
   409  N   3.003        C  410 1.031    H  423 0.954    H  551 0.951
   410  C   3.983        N  409 1.031    C  411 0.985    H  424 0.937    C  413 0.924
   411  C   3.896        O  412 1.883    C  410 0.985    H  552 0.955
   412  O   2.031        C  411 1.883
   413  C   3.990        C  414 1.019    H  425 0.972    H  426 0.956    C  410 0.924
   414  C   3.973        C  415 1.566    C  416 1.205    C  413 1.019
   415  C   3.947        C  414 1.566    N  417 1.209    H  427 0.966
   416  C   3.983        C  419 1.328    C  418 1.244    C  414 1.205
   417  N   3.554        C  415 1.209    C  418 1.192    H  428 0.929
   418  C   3.967        C  420 1.335    C  416 1.244    N  417 1.192
   419  C   3.991        C  421 1.503    C  416 1.328    H  429 0.964    C  420 0.112
   420  C   3.988        C  422 1.496    C  418 1.335    H  430 0.967    C  419 0.112
   421  C   3.990        C  419 1.503    C  422 1.367    H  431 0.969
   422  C   3.991        C  420 1.496    C  421 1.367    H  432 0.969
   423  H   0.973        N  409 0.954
   424  H   0.995        C  410 0.937
   425  H   0.996        C  413 0.972
   426  H   0.997        C  413 0.956
   427  H   0.995        C  415 0.966
   428  H   0.956        N  417 0.929
   429  H   0.999        C  419 0.964
   430  H   0.998        C  420 0.967
   431  H   1.000        C  421 0.969
   432  H   1.000        C  422 0.969
   433  N   3.002        C  434 1.016    H  440 0.957    H  553 0.951
   434  C   3.986        N  433 1.016    C  437 0.963    H  441 0.958    C  435 0.932
   435  C   3.939        O  436 1.640    N  447 1.293    C  434 0.932
   436  O   1.950        C  435 1.640    N  447 0.196
   437  C   3.967        O  438 1.000    C  439 0.997    C  434 0.963    H  442 0.961
   438  O   1.941        C  437 1.000    H  443 0.869
   439  C   3.991        C  437 0.997    H  445 0.984    H  446 0.984    H  444 0.976
   440  H   0.973        N  433 0.957
   441  H   0.997        C  434 0.958
   442  H   1.000        C  437 0.961
   443  H   0.884        O  438 0.869
   444  H   0.996        C  439 0.976
   445  H   1.000        C  439 0.984
   446  H   0.997        C  439 0.984
   447  N   3.456        C  435 1.293    C  448 0.984    H  454 0.886    O  436 0.196
   448  C   3.964        N  447 0.984    C  451 0.959    H  455 0.951    C  449 0.938
   449  C   3.947        O  450 1.638    N  463 1.295    C  448 0.938
   450  O   1.953        C  449 1.638    N  463 0.197
   451  C   3.992        C  452 1.009    C  453 1.008    H  456 0.966    C  448 0.959
   452  C   3.994        C  451 1.009    H  459 0.986    H  458 0.985    H  457 0.984
   453  C   3.994        C  451 1.008    H  461 0.986    H  462 0.984    H  460 0.982
   454  H   0.950        N  447 0.886
   455  H   0.994        C  448 0.951
   456  H   0.998        C  451 0.966
   457  H   0.997        C  452 0.984
   458  H   0.998        C  452 0.985
   459  H   0.998        C  452 0.986
   460  H   0.997        C  453 0.982
   461  H   0.998        C  453 0.986
   462  H   0.998        C  453 0.984
   463  N   3.459        C  449 1.295    C  464 0.984    H  475 0.893    O  450 0.197
   464  C   3.965        N  463 0.984    C  467 0.952    H  476 0.949    C  465 0.943
   465  C   3.948        O  466 1.620    N  484 1.304    C  464 0.943
   466  O   1.980        C  465 1.620    N  484 0.197
   467  C   3.987        C  468 1.010    H  478 0.970    H  477 0.957    C  464 0.952
   468  C   3.987        C  469 1.416    C  470 1.395    C  467 1.010
   469  C   3.990        C  471 1.446    C  468 1.416    H  479 0.965    C  472 0.105
   470  C   3.991        C  472 1.469    C  468 1.395    H  480 0.966    C  471 0.105
   471  C   3.985        C  469 1.446    C  473 1.373    H  481 0.963    C  470 0.105
   472  C   3.989        C  470 1.469    C  473 1.356    H  482 0.969    C  469 0.105
   473  C   3.940        C  471 1.373    C  472 1.356    O  474 1.082
   474  O   2.094        C  473 1.082    H  483 0.851
   475  H   0.948        N  463 0.893
   476  H   0.996        C  464 0.949
   477  H   0.994        C  467 0.957
   478  H   0.996        C  467 0.970
   479  H   0.998        C  469 0.965
   480  H   0.998        C  470 0.966
   481  H   0.997        C  471 0.963
   482  H   0.998        C  472 0.969
   483  H   0.874        O  474 0.851
   484  N   3.478        C  465 1.304    C  485 0.973    H  493 0.924    O  466 0.197
   485  C   3.959        C  486 0.980    N  484 0.973    C  488 0.948    H  494 0.946
   486  C   3.895        O  487 1.901    C  485 0.980    H  554 0.953
   487  O   2.044        C  486 1.901
   488  C   3.989        C  489 1.004    H  496 0.977    H  495 0.967    C  485 0.948
   489  C   3.986        C  488 1.004    H  497 0.978    H  498 0.970    C  490 0.906
   490  C   3.935        O  491 1.505    O  492 1.503    C  489 0.906
   491  O   1.806        C  490 1.505    O  492 0.218
   492  O   1.793        C  490 1.503    O  491 0.218
   493  H   0.960        N  484 0.924
   494  H   0.989        C  485 0.946
   495  H   0.996        C  488 0.967
   496  H   0.999        C  488 0.977
   497  H   1.000        C  489 0.978
   498  H   0.999        C  489 0.970
   499  N   2.995        C  500 1.005    H  507 0.957    H  555 0.941
   500  C   3.981        N  499 1.005    C  501 0.977    H  508 0.964    C  503 0.950
   501  C   3.891        O  502 1.896    C  500 0.977    H  556 0.957
   502  O   2.038        C  501 1.896
   503  C   3.992        C  505 1.009    C  504 0.995    H  509 0.961    C  500 0.950
   504  C   3.997        C  506 1.019    C  503 0.995    H  510 0.976    H  511 0.967
   505  C   3.995        C  503 1.009    H  514 0.986    H  513 0.982    H  512 0.982
   506  C   3.994        C  504 1.019    H  516 0.987    H  515 0.986    H  517 0.983
   507  H   0.976        N  499 0.957
   508  H   0.997        C  500 0.964
   509  H   0.998        C  503 0.961
   510  H   0.998        C  504 0.976
   511  H   0.999        C  504 0.967
   512  H   0.997        C  505 0.982
   513  H   0.999        C  505 0.982
   514  H   0.998        C  505 0.986
   515  H   0.998        C  506 0.986
   516  H   0.998        C  506 0.987
   517  H   0.998        C  506 0.983
   518  N   2.998        C  519 1.013    H  526 0.955    H  557 0.945
   519  C   3.984        N  518 1.013    C  520 0.988    H  527 0.961    C  522 0.935
   520  C   3.895        O  521 1.886    C  519 0.988    H  558 0.957
   521  O   2.033        C  520 1.886
   522  C   3.992        C  524 1.006    C  523 0.999    H  528 0.968    C  519 0.935
   523  C   3.996        C  525 1.016    C  522 0.999    H  529 0.972    H  530 0.967
   524  C   3.994        C  522 1.006    H  532 0.984    H  533 0.981    H  531 0.980
   525  C   3.996        C  523 1.016    H  535 0.988    H  536 0.985    H  534 0.983
   526  H   0.975        N  518 0.955
   527  H   0.997        C  519 0.961
   528  H   0.999        C  522 0.968
   529  H   0.999        C  523 0.972
   530  H   0.999        C  523 0.967
   531  H   0.997        C  524 0.980
   532  H   0.998        C  524 0.984
   533  H   0.998        C  524 0.981
   534  H   0.999        C  525 0.983
   535  H   0.999        C  525 0.988
   536  H   0.998        C  525 0.985
   537  H   0.967        N    1 0.945
   538  H   0.996        C    3 0.957
   539  H   0.969        N   20 0.955
   540  H   0.996        C   22 0.957
   541  H   0.971        N   37 0.956
   542  H   0.991        C  127 0.951
   543  H   0.968        N  139 0.958
   544  H   0.993        C  251 0.953
   545  H   0.967        N  268 0.951
   546  H   0.995        C  270 0.955
   547  H   0.971        N  288 0.953
   548  H   0.996        C  290 0.955
   549  H   0.964        N  302 0.950
   550  H   0.994        C  396 0.954
   551  H   0.966        N  409 0.951
   552  H   0.997        C  411 0.955
   553  H   0.962        N  433 0.951
   554  H   0.993        C  486 0.953
   555  H   0.965        N  499 0.941
   556  H   0.996        C  501 0.957
   557  H   0.966        N  518 0.945
   558  H   0.995        C  520 0.957
 
molecular dipole:
                 x           y           z       tot (Debye)
 q only:      -72.147     -62.606    -146.983
   full:      -71.898     -62.412    -147.378     445.974
molecular quadrupole (traceless):
                xx          xy          yy          xz          yz          zz
 q only:     8520.540   -6596.799    9192.974  -15588.909  -14025.213  -17713.514
  q+dip:     8540.265   -6486.746    9292.185  -15650.492  -14042.877  -17832.451
   full:     8549.666   -6492.584    9278.407  -15652.355  -14050.154  -17828.073


           -------------------------------------------------
          | TOTAL ENERGY             -861.781906619519 Eh   |
          | GRADIENT NORM               0.743657767300 Eh/α |
          | HOMO-LUMO GAP               1.159369845997 eV   |
           -------------------------------------------------

------------------------------------------------------------------------
 * finished run on 2019/05/31 at 06:34:01.516     
------------------------------------------------------------------------
 total:
 * wall-time:     0 d,  0 h,  0 min, 31.948 sec
 *  cpu-time:     0 d,  0 h,  1 min,  2.915 sec
 * ratio c/w:     1.969 speedup
 SCF:
 * wall-time:     0 d,  0 h,  0 min, 30.827 sec
 *  cpu-time:     0 d,  0 h,  1 min,  1.062 sec
 * ratio c/w:     1.981 speedup

