      -----------------------------------------------------------      
     |                   =====================                   |     
     |                           x T B                           |     
     |                   =====================                   |     
     |                         S. Grimme                         |     
     |          Mulliken Center for Theoretical Chemistry        |     
     |                    University of Bonn                     |     
     |                Version 6.1 RC1 (SAW190329)                |     
      -----------------------------------------------------------      

   This program is distributed in the hope that it will be useful,
   but WITHOUT ANY WARRANTY; without even the implied warranty of
   MERCHANTABILITY or FITNESS FOR A PARTICULAR PURPOSE.
   
   FOR NON-COMMERCIAL, ACADEMIA USE ONLY.
   
   Cite this work as:
   S. Grimme, C. Bannwarth, P. Shushkov, J. Comput. Theory Chem., 2017,
   13, 1989-2009. DOI: 10.1021/acs.jctc.7b00118
   C. Bannwarth, S. Ehlert and S. Grimme., J. Comput. Theory Chem., 2019,
   just accepted. DOI: 10.1021/acs.jctc.8b01176
   
   for sTDA-xTB:
   S. Grimme and C. Bannwarth, J. Chem. Phys., 2016, 145, 054103.
   DOI: 10.1063/1.4959605
   
   in the mass-spec context:
   V. Asgeirsson, C. Bauer and S. Grimme, Chem. Sci., 2017, 8, 4879.
   DOI: 10.1039/c7sc00601b
   
   for metadynamics refer to:
   S. Grimme, ChemRxiv, Preprint. DOI: 10.26434/chemrxiv.7660532.v1
   
   with help from (in alphabetical order)
   C. Bannwarth, F. Bohle, G. Brandenburg, E. Caldeweyher, M. Checinski,
   S. Dohm, S. Ehlert, S. Ehrlich, F. März, H. Neugebauer, J. Pisarek,
   P. Pracht, P. Shushkov, and S. Spicher.
   
 * started run on 2019/05/31 at 05:34:51.436     

           -------------------------------------------------
          |                Calculation Setup                |
           -------------------------------------------------

          program call               : /home/lum/install/xtb/xtb-190329/bin/xtb xtb_tmp.xyz --chrg 1 --grad --gfn 2 --etemp 500 --acc 0.1 --gbsa h2o --parallel 2
          hostname                   : cpu02
          coordinate file            : xtb_tmp.xyz
          omp threads                :                     2
          number of atoms            :                   508
          number of electrons        :                  1406
          charge                     :                     1
          spin                       :                   0.0
          first test random number   :      0.11669936539579


molecular fragmentation (1/2 indicates fragments):
111111111111111111111111111111111111111111111111111111111111111111111111
111111111111111111111111111111111111111111111111111111111111111111112222
222222222222222222222222222222222222222222222222222222222222222222222222
222222222222222222222222222222222222222222222222222222222222222222222222
222222222222222222222222222222222222222222222222222222222222222222222222
222222222222222222222222222222222222222222222222222222222222222222222222
222222222222222222222222222222222222222222222222222222222222222222221122
2222
# atoms in fragment 1/2:   142   366
 fragment masses (1/2) :     1010.11     2554.90
CMA distance (Bohr)    :  10.874
constraining FC (au)   :  0.0500

########################################################################
# WARNING! Please study the warnings concerning your input carefully
#  - XTBPATH is not set, using XTBHOME instead
#  - Process number higher than OMP_NUM_THREADS, I hope you know what you are doing.
########################################################################

           ------------------------------------------------- 
          |                 G F N 2 - x T B                 |
          | Geometry, Frequencies, Noncovalent interactions |
          |            JCTC 2018 parametrisation            |
           ------------------------------------------------- 
 
             k(s)              :                1.8500
             k(p)              :                2.2300
             k(d)              :                2.2300
             k(f)              :                2.0000
             kEN (H0ij)        :               -2.0000
             D4 a1             :                0.5200
             D4 a2             :                5.0000
             D4 s6             :                1.0000
             D4 s8             :                2.7000
             D4 s9             :                5.0000
             alphaj            :                2.0000

  Z AO/shell   Hii/eV     exponent
  1     Wed Apr 25 08:07:45 CEST 2018   EN: 2.200 GM2: 0.406  GM3: 0.0800  RAES: 1.40
     1s    -10.707211    1.230000
  6     Wed Apr 25 08:07:45 CEST 2018   EN: 2.550 GM2: 0.538  GM3: 0.1500  RAES: 3.00
     2s    -13.970922    2.096432
     2p    -10.063292    1.800000
  7     Wed Apr 25 08:07:45 CEST 2018   EN: 3.040 GM2: 0.461  GM3:-0.0640  RAES: 1.90
     2s    -16.686243    2.339881
     2p    -12.523956    2.014332
  8     Wed Apr 25 08:07:45 CEST 2018   EN: 3.440 GM2: 0.452  GM3:-0.0517  RAES: 1.80
     2s    -20.229985    2.439742
     2p    -15.503117    2.137023

 Solvent             : h2o
 Using internal parameter file: .param_gbsa2_h2o
 Gsolv ref. state (COSMO-RS): gsolv [1 M gas/solution]
 temperature (mdtemp)       :    298.150000000000     
 dielectric constant        :    80.2000000000000     
 rho                        :    1.00000000000000     
 mass                       :    18.0000000000000     
 surface tension            :    15.5689454083859     
 probe radius               :   0.975313790000000     
 vdW radii scaling          :    1.00000000000000     
 Gshift (Eh)                :   1.857443126794793E-003
 c1                         :    1.55243817000000     
 soset                      :   0.130326360000000     
 HB correction              :  T
 Number of grid points      :          230

            Z     q(EN)     CN     RAES       Cart. coordinates
     1  N   5.0   -0.68    3.00    1.93   354.23732   125.15728   206.89411
     2  C   4.0    0.08    3.99    3.60   351.84798   124.47075   205.73905
     3  C   4.0    0.29    3.01    3.02   349.72508   125.27852   207.52382
     4  O   6.0   -0.39    1.00    1.80   349.98424   125.21598   209.82903
     5  C   4.0   -0.09    3.98    3.59   351.76895   121.62888   205.14636
     6  C   4.0   -0.16    3.98    3.59   353.82501   121.01327   203.19772
     7  C   4.0   -0.22    3.98    3.59   349.14861   120.92401   204.17672
     8  C   4.0   -0.23    3.98    3.58   354.27252   118.18696   202.86513
     9  H   1.0    0.28    1.00    1.43   354.65236   124.21974   208.50425
    10  H   1.0    0.12    0.99    1.43   351.68200   125.54824   203.98359
    11  H   1.0    0.11    0.99    1.43   352.15155   120.60023   206.90314
    12  H   1.0    0.11    0.99    1.43   353.27587   121.85924   201.39837
    13  H   1.0    0.11    0.99    1.43   355.57934   121.91241   203.80322
    14  H   1.0    0.10    0.99    1.43   349.14513   118.98824   203.49744
    15  H   1.0    0.14    0.99    1.43   347.73709   121.10863   205.65811
    16  H   1.0    0.12    0.99    1.43   348.61286   122.17968   202.63869
    17  H   1.0    0.11    0.99    1.43   355.85975   117.87254   201.60176
    18  H   1.0    0.10    0.99    1.43   354.69632   117.30862   204.67323
    19  H   1.0    0.10    0.99    1.43   352.62772   117.26306   202.05755
    20  N   5.0   -0.47    3.01    1.93   347.63333   126.08880   206.37587
    21  C   4.0    0.08    4.00    3.61   345.47705   126.96492   207.79955
    22  C   4.0    0.28    3.01    3.02   344.05219   124.65905   208.87032
    23  O   6.0   -0.45    1.00    1.80   344.21379   122.58186   207.87722
    24  C   4.0   -0.10    3.99    3.60   343.82699   128.61548   206.11170
    25  C   4.0    0.28    3.00    3.02   345.17976   131.00894   205.27249
    26  O   6.0   -0.36    1.00    1.80   347.41478   131.43472   205.70065
    27  N   5.0   -0.64    3.01    1.93   343.69382   132.61961   204.01851
    28  H   1.0    0.24    1.00    1.43   347.54419   126.17858   204.46432
    29  H   1.0    0.15    0.99    1.43   346.19181   128.06968   209.40587
    30  H   1.0    0.12    0.99    1.43   343.32594   127.58137   204.39550
    31  H   1.0    0.13    0.99    1.43   342.08925   129.13869   207.08280
    32  H   1.0    0.30    1.00    1.43   344.40623   134.28126   203.41302
    33  H   1.0    0.30    1.00    1.43   341.87305   132.18801   203.65359
    34  N   5.0   -0.49    3.01    1.93   342.78816   125.07872   211.02418
    35  C   4.0    0.10    3.99    3.61   341.41650   123.11066   212.33834
    36  C   4.0    0.29    3.01    3.02   338.71617   123.98328   212.90691
    37  O   6.0   -0.40    1.00    1.80   337.98449   126.09472   212.32647
    38  C   4.0    0.04    3.98    3.58   342.80763   122.24940   214.77781
    39  O   6.0   -0.50    1.99    1.82   342.24065   123.75486   216.90746
    40  C   4.0   -0.19    3.98    3.59   345.64469   122.01564   214.31637
    41  H   1.0    0.26    1.00    1.43   342.45699   126.86659   211.60607
    42  H   1.0    0.17    0.99    1.43   341.29407   121.48754   211.05914
    43  H   1.0    0.13    0.99    1.43   342.05595   120.38366   215.23139
    44  H   1.0    0.27    0.99    1.43   343.00423   125.39904   216.68783
    45  H   1.0    0.10    0.99    1.43   346.54879   121.20572   215.96848
    46  H   1.0    0.12    0.99    1.43   345.96346   120.77804   212.71186
    47  H   1.0    0.14    0.99    1.43   346.52591   123.82110   213.87948
    48  N   5.0   -0.48    3.00    1.93   337.34673   122.27552   214.21705
    49  C   4.0    0.11    3.99    3.60   334.68445   122.58514   214.74867
    50  C   4.0    0.30    3.01    3.02   333.95360   122.38918   217.55212
    51  O   6.0   -0.39    1.00    1.80   331.72797   122.49804   218.15599
    52  C   4.0    0.04    3.99    3.60   333.12966   120.50662   213.43439
    53  O   6.0   -0.48    1.99    1.82   334.19415   118.19143   214.24603
    54  C   4.0   -0.21    3.98    3.59   333.12107   120.77430   210.57529
    55  H   1.0    0.27    1.00    1.43   337.91566   120.44744   214.11020
    56  H   1.0    0.15    0.99    1.43   334.07278   124.46361   214.12995
    57  H   1.0    0.12    0.99    1.43   331.18147   120.67793   214.14853
    58  H   1.0    0.23    0.99    1.43   333.28705   116.82749   213.43928
    59  H   1.0    0.09    0.99    1.43   331.94388   119.31850   209.73500
    60  H   1.0    0.11    0.99    1.43   332.35284   122.61202   210.07666
    61  H   1.0    0.17    0.99    1.43   335.02302   120.63338   209.81128
    62  N   5.0   -0.47    3.00    1.93   335.83414   121.85534   219.15869
    63  C   4.0    0.07    3.99    3.60   335.55429   121.86363   221.90597
    64  C   4.0    0.31    3.00    3.02   332.76222   121.38664   222.63024
    65  O   6.0   -0.42    1.00    1.80   331.38511   123.03533   223.48358
    66  C   4.0   -0.12    3.98    3.59   336.51118   124.36269   223.01996
    67  C   4.0   -0.16    3.98    3.58   337.30068   124.14292   225.79156
    68  C   4.0   -0.15    3.98    3.58   339.63285   122.50946   226.31711
    69  C   4.0   -0.05    3.98    3.58   342.11921   123.49978   225.22228
    70  N   5.0   -0.73    3.98    2.81   342.72664   122.38808   222.70275
    71  H   1.0    0.26    1.00    1.43   337.61078   122.08898   218.47810
    72  H   1.0    0.12    0.99    1.43   336.65298   120.26075   222.62447
    73  H   1.0    0.12    0.99    1.43   338.04791   125.09321   221.85610
    74  H   1.0    0.16    0.99    1.43   334.96724   125.72877   222.87124
    75  H   1.0    0.11    0.99    1.43   337.62386   126.04842   226.50673
    76  H   1.0    0.13    0.99    1.43   335.70036   123.36957   226.83819
    77  H   1.0    0.11    0.99    1.43   339.82775   122.43244   228.36468
    78  H   1.0    0.13    0.99    1.43   339.29910   120.58732   225.66805
    79  H   1.0    0.11    0.99    1.43   342.05756   125.55295   225.07235
    80  H   1.0    0.11    0.99    1.43   343.65624   122.97391   226.48863
    81  H   1.0    0.25    1.00    1.43   344.55609   122.82466   222.21696
    82  H   1.0    0.29    0.99    1.43   342.52295   120.41329   222.76737
    83  H   1.0    0.26    1.00    1.43   341.58029   123.06331   221.28131
    84  N   5.0   -0.46    3.01    1.93   332.04523   118.96804   222.36656
    85  C   4.0    0.09    3.99    3.60   329.56735   118.06031   223.07642
    86  C   4.0    0.29    3.01    3.02   329.71972   116.95461   225.75150
    87  O   6.0   -0.37    1.00    1.80   331.70161   116.93190   226.92678
    88  C   4.0   -0.12    3.99    3.60   328.50600   116.22834   221.08945
    89  C   4.0   -0.03    3.02    3.02   329.96732   113.81255   220.80084
    90  C   4.0   -0.09    3.03    3.02   329.22398   111.64532   222.08695
    91  C   4.0   -0.10    3.03    3.02   332.00733   113.65553   219.15339
    92  C   4.0   -0.07    3.03    3.02   330.43184   109.36829   221.69051
    93  C   4.0   -0.09    3.03    3.02   333.24054   111.38541   218.75084
    94  C   4.0    0.10    3.03    3.02   332.42748   109.21620   219.98492
    95  O   6.0   -0.50    1.99    1.83   333.50633   106.92246   219.57838
    96  H   1.0    0.26    1.00    1.43   333.31278   117.61542   221.91741
    97  H   1.0    0.15    0.99    1.43   328.31275   119.70380   223.15974
    98  H   1.0    0.12    0.99    1.43   326.55224   115.80795   221.59510
    99  H   1.0    0.14    0.99    1.43   328.46989   117.26192   219.30335
   100  H   1.0    0.15    0.99    1.43   327.64206   111.73024   223.37469
   101  H   1.0    0.13    0.99    1.43   332.59192   115.32075   218.12380
   102  H   1.0    0.14    1.00    1.43   329.79033   107.68266   222.63968
   103  H   1.0    0.12    0.99    1.43   334.79951   111.28769   217.43497
   104  H   1.0    0.25    0.99    1.43   334.84943   107.06303   218.34807
   105  N   5.0   -0.48    3.01    1.93   327.54525   116.02696   226.67116
   106  C   4.0    0.10    4.00    3.62   327.31208   115.32852   229.30433
   107  C   4.0    0.27    3.00    3.02   326.29942   112.61496   229.51963
   108  O   6.0   -0.40    1.00    1.80   324.08770   112.14388   229.96736
   109  C   4.0    0.05    3.98    3.58   325.62939   117.24680   230.70725
   110  O   6.0   -0.45    1.99    1.82   326.76931   119.64116   230.33973
   111  C   4.0   -0.21    3.98    3.59   325.43583   116.58209   233.50893
   112  H   1.0    0.29    1.00    1.43   325.89592   116.14855   225.70687
   113  H   1.0    0.15    0.99    1.43   329.22748   115.43547   230.08718
   114  H   1.0    0.15    0.99    1.43   323.74320   117.23762   229.82650
   115  H   1.0    0.27    0.99    1.43   325.76940   120.89550   231.20564
   116  H   1.0    0.12    0.99    1.43   324.32571   118.00522   234.48769
   117  H   1.0    0.13    0.99    1.43   324.53112   114.75563   233.71551
   118  H   1.0    0.12    0.99    1.43   327.31892   116.52853   234.32576
   119  N   5.0   -0.48    3.01    1.93   328.14297   110.88071   229.30972
   120  C   4.0    0.07    3.99    3.60   327.83479   108.15317   229.42864
   121  C   4.0    0.28    3.01    3.02   326.53561   107.02340   227.10239
   122  O   6.0   -0.42    1.00    1.80   324.95906   108.16069   225.86836
   123  C   4.0   -0.18    3.98    3.59   326.29145   107.33935   231.75004
   124  H   1.0    0.25    1.00    1.43   329.85758   111.52799   228.77054
   125  H   1.0    0.09    0.99    1.43   329.71572   107.31463   229.57149
   126  H   1.0    0.13    0.99    1.43   325.99576   105.30760   231.66627
   127  H   1.0    0.11    0.99    1.43   327.33754   107.84454   233.44073
   128  H   1.0    0.16    0.99    1.43   324.46940   108.28484   231.71914
   129  N   5.0   -0.50    3.01    1.93   327.29920   104.63112   226.61064
   130  C   4.0    0.07    3.99    3.60   325.70729   102.83479   225.25575
   131  C   4.0    0.09    3.00    3.02   324.86849   100.87910   227.20656
   132  O   6.0   -0.37    1.00    1.80   323.64171   101.61009   229.05328
   133  C   4.0   -0.12    3.97    3.58   326.80170   101.76412   222.83563
   134  C   4.0    0.30    2.99    3.02   324.63576   100.41576   221.29670
   135  O   6.0   -0.37    1.00    1.80   322.62125    99.99566   222.45586
   136  O   6.0   -0.40    1.00    1.80   325.11855    99.95267   219.04386
   137  H   1.0    0.22    1.00    1.43   328.60597   103.86715   227.78025
   138  H   1.0    0.16    0.99    1.43   323.98487   103.85478   224.72164
   139  H   1.0    0.12    0.99    1.43   327.52842   103.27031   221.63261
   140  H   1.0    0.11    0.99    1.43   328.28219   100.36449   223.12462
   141  N   5.0   -0.71    3.00    1.93   334.69882   107.15913   233.84668
   142  C   4.0    0.09    3.98    3.59   334.79912   109.07830   231.90422
   143  C   4.0    0.28    3.01    3.02   336.97730   108.54718   230.06051
   144  O   6.0   -0.40    1.00    1.80   338.82861   107.32801   230.69461
   145  C   4.0   -0.02    3.98    3.58   334.98065   111.76970   232.97638
   146  O   6.0   -0.49    1.99    1.83   333.95991   113.36768   231.10362
   147  H   1.0    0.28    1.00    1.43   336.08255   107.19952   235.15996
   148  H   1.0    0.12    0.99    1.43   333.02244   108.96854   230.85515
   149  H   1.0    0.11    0.99    1.43   333.86581   111.88423   234.72252
   150  H   1.0    0.12    0.99    1.43   336.95166   112.24327   233.39993
   151  H   1.0    0.28    0.99    1.43   334.41831   115.10162   231.42504
   152  N   5.0   -0.49    3.01    1.93   336.60181   109.50392   227.75199
   153  C   4.0    0.07    3.99    3.61   338.31172   109.13067   225.65608
   154  C   4.0    0.26    3.01    3.02   338.25560   111.49295   223.99550
   155  O   6.0   -0.39    1.00    1.80   336.64066   113.12398   224.17476
   156  C   4.0   -0.13    3.98    3.59   337.50779   106.83677   224.05575
   157  C   4.0   -0.15    3.98    3.59   337.93955   104.29158   225.38716
   158  C   4.0   -0.14    3.98    3.58   335.47083   102.90043   225.96925
   159  C   4.0   -0.05    3.98    3.59   336.06515   100.22607   226.85194
   160  N   5.0   -0.73    3.98    2.82   333.71055    98.75229   227.29557
   161  H   1.0    0.28    1.00    1.43   335.16305   110.72490   227.42564
   162  H   1.0    0.13    0.99    1.43   340.21272   108.81940   226.41540
   163  H   1.0    0.14    0.99    1.43   335.51212   107.04888   223.59492
   164  H   1.0    0.11    0.99    1.43   338.56209   106.86795   222.28729
   165  H   1.0    0.11    0.99    1.43   339.09143   103.09066   224.17481
   166  H   1.0    0.14    0.99    1.43   338.97281   104.57594   227.14422
   167  H   1.0    0.12    0.99    1.43   334.42551   103.90196   227.43729
   168  H   1.0    0.11    0.99    1.43   334.30470   102.83426   224.26699
   169  H   1.0    0.11    0.99    1.43   337.17560    99.25391   225.41406
   170  H   1.0    0.12    0.99    1.43   337.13021   100.29510   228.61655
   171  H   1.0    0.24    0.99    1.43   332.67401    99.47286   228.80439
   172  H   1.0    0.24    1.00    1.43   332.57881    98.76932   225.71780
   173  H   1.0    0.25    1.00    1.43   334.12515    96.90170   227.71118
   174  N   5.0   -0.50    3.01    1.93   340.18490   111.62118   222.34755
   175  C   4.0    0.08    3.99    3.60   340.44505   113.57928   220.45216
   176  C   4.0    0.25    3.01    3.02   340.90590   112.28016   217.90186
   177  O   6.0   -0.42    1.00    1.80   342.03560   110.27317   217.79224
   178  C   4.0    0.05    3.98    3.58   342.67824   115.32569   221.21874
   179  O   6.0   -0.54    1.99    1.82   341.81269   117.18663   222.93465
   180  C   4.0   -0.20    3.98    3.59   343.89538   116.67302   218.99236
   181  H   1.0    0.25    1.00    1.43   341.38768   110.14916   222.13039
   182  H   1.0    0.14    0.99    1.43   338.69073   114.67575   220.41170
   183  H   1.0    0.12    0.99    1.43   344.10547   114.13867   222.14493
   184  H   1.0    0.28    0.99    1.43   341.06650   116.38221   224.39307
   185  H   1.0    0.11    0.99    1.43   345.44171   117.84145   219.66383
   186  H   1.0    0.12    0.99    1.43   344.65802   115.30226   217.67025
   187  H   1.0    0.12    0.99    1.43   342.52281   117.84408   218.01803
   188  N   5.0   -0.49    3.01    1.93   339.94307   113.47208   215.88923
   189  C   4.0    0.06    3.99    3.60   340.34161   112.62675   213.31324
   190  C   4.0    0.26    3.01    3.02   340.98921   114.94583   211.68534
   191  O   6.0   -0.45    1.00    1.80   340.77636   117.09194   212.51530
   192  C   4.0   -0.20    3.98    3.59   338.00590   111.22203   212.34886
   193  H   1.0    0.25    1.00    1.43   339.04682   115.15281   216.04858
   194  H   1.0    0.13    0.99    1.43   341.97153   111.34960   213.33223
   195  H   1.0    0.11    0.99    1.43   338.14379   110.80647   210.34656
   196  H   1.0    0.12    0.99    1.43   337.80553   109.44365   213.35247
   197  H   1.0    0.11    0.99    1.43   336.32938   112.36551   212.65442
   198  N   5.0   -0.49    3.01    1.93   341.91466   114.36588   209.40389
   199  C   4.0    0.07    3.99    3.60   342.89228   116.17431   207.60937
   200  C   4.0    0.28    3.01    3.02   340.84891   116.91798   205.69166
   201  O   6.0   -0.41    1.00    1.80   339.06702   115.53417   205.20573
   202  C   4.0   -0.14    3.99    3.60   345.13083   115.01124   206.17693
   203  C   4.0   -0.10    3.98    3.58   347.19363   113.88631   207.88041
   204  C   4.0   -0.23    3.98    3.59   349.29787   112.78552   206.23503
   205  C   4.0   -0.22    3.98    3.59   348.26255   115.84213   209.70875
   206  H   1.0    0.23    1.00    1.43   341.84084   112.55311   208.81887
   207  H   1.0    0.14    0.99    1.43   343.45580   117.86553   208.65299
   208  H   1.0    0.12    0.99    1.43   344.39507   113.51755   204.95754
   209  H   1.0    0.10    0.99    1.43   345.94634   116.47956   204.98747
   210  H   1.0    0.12    0.99    1.43   346.37369   112.35403   209.00212
   211  H   1.0    0.10    0.99    1.43   350.70140   111.84502   207.40653
   212  H   1.0    0.11    0.99    1.43   348.53789   111.40876   204.91543
   213  H   1.0    0.10    0.99    1.43   350.22804   114.27923   205.17662
   214  H   1.0    0.10    0.99    1.43   349.81327   115.02812   210.78428
   215  H   1.0    0.10    0.99    1.43   348.95652   117.48960   208.69669
   216  H   1.0    0.11    0.99    1.43   346.83372   116.46030   211.05083
   217  N   5.0   -0.47    3.01    1.93   341.32438   119.09758   204.48190
   218  C   4.0    0.08    3.99    3.60   339.46838   120.26991   202.83524
   219  C   4.0    0.07    3.00    3.02   340.30194   119.94845   200.06928
   220  O   6.0   -0.40    1.00    1.80   342.12419   121.07644   199.19898
   221  C   4.0   -0.09    3.99    3.60   339.23241   123.08998   203.39425
   222  C   4.0    0.29    3.00    3.02   338.51781   123.64192   206.11759
   223  O   6.0   -0.39    1.00    1.80   338.22579   121.98774   207.70435
   224  N   5.0   -0.65    3.00    1.93   338.24929   126.10283   206.63913
   225  H   1.0    0.28    1.00    1.43   342.65248   120.26203   205.21531
   226  H   1.0    0.16    0.99    1.43   337.66649   119.29806   203.15065
   227  H   1.0    0.13    0.99    1.43   341.02661   124.01936   202.96994
   228  H   1.0    0.10    0.99    1.43   337.81058   123.93201   202.16332
   229  H   1.0    0.33    1.00    1.43   337.77840   126.61042   208.42033
   230  H   1.0    0.31    1.00    1.43   338.28145   127.44043   205.25945
   231  N   5.0   -0.69    3.00    1.93   330.55064   126.55246   196.13004
   232  C   4.0    0.07    3.98    3.59   332.06511   124.91958   197.73340
   233  C   4.0    0.28    3.01    3.02   330.35733   122.72993   198.57178
   234  O   6.0   -0.45    1.00    1.80   328.32530   123.15007   199.62915
   235  C   4.0   -0.14    3.98    3.59   333.10078   126.34300   200.01675
   236  C   4.0   -0.12    3.98    3.58   335.24788   128.14751   199.34324
   237  C   4.0    0.31    2.99    3.02   335.90203   129.78440   201.68835
   238  O   6.0   -0.38    1.00    1.80   334.20536   131.11704   202.58235
   239  O   6.0   -0.45    1.00    1.80   338.12681   129.62441   202.54409
   240  H   1.0    0.28    1.00    1.43   329.59225   127.96256   196.98013
   241  H   1.0    0.10    0.99    1.43   333.61797   124.16368   196.59796
   242  H   1.0    0.14    0.99    1.43   331.59104   127.42854   200.91392
   243  H   1.0    0.11    0.99    1.43   333.77835   124.96545   201.40172
   244  H   1.0    0.12    0.99    1.43   336.91939   127.11031   198.72634
   245  H   1.0    0.12    0.99    1.43   334.64614   129.42318   197.83792
   246  N   5.0   -0.49    3.01    1.93   331.16627   120.43924   197.96185
   247  C   4.0    0.08    4.00    3.61   329.86418   118.15969   198.70809
   248  C   4.0    0.26    3.02    3.02   331.60832   116.70508   200.49047
   249  O   6.0   -0.43    1.00    1.80   333.89025   117.07786   200.55392
   250  C   4.0   -0.08    3.98    3.58   329.06575   116.54052   196.40862
   251  C   4.0   -0.20    3.98    3.59   327.40053   118.09377   194.63510
   252  C   4.0   -0.21    3.98    3.59   331.36637   115.51828   195.00298
   253  H   1.0    0.24    1.00    1.43   332.90362   120.23497   197.15996
   254  H   1.0    0.15    0.99    1.43   328.17510   118.75485   199.75035
   255  H   1.0    0.14    0.99    1.43   327.96905   114.95036   197.15318
   256  H   1.0    0.11    0.99    1.43   326.71108   116.91282   193.10521
   257  H   1.0    0.12    0.99    1.43   325.78677   118.87638   195.63907
   258  H   1.0    0.13    0.99    1.43   328.47038   119.65947   193.83515
   259  H   1.0    0.10    0.99    1.43   330.76335   114.39896   193.39321
   260  H   1.0    0.12    0.99    1.43   332.52802   117.06899   194.31791
   261  H   1.0    0.13    0.99    1.43   332.48367   114.34203   196.26039
   262  N   5.0   -0.49    3.01    1.93   330.47210   114.96529   201.93368
   263  C   4.0    0.09    4.00    3.62   331.90984   113.65376   203.85821
   264  C   4.0    0.27    3.01    3.02   330.99608   110.94170   204.15741
   265  O   6.0   -0.45    1.00    1.80   328.75619   110.40379   204.30448
   266  C   4.0   -0.08    3.98    3.58   331.77878   115.07254   206.41467
   267  C   4.0   -0.21    3.98    3.59   329.10506   115.11629   207.49683
   268  C   4.0   -0.22    3.98    3.59   333.66814   113.92889   208.26387
   269  H   1.0    0.29    1.00    1.43   328.55986   114.83853   201.95589
   270  H   1.0    0.14    0.99    1.43   333.88427   113.68845   203.23710
   271  H   1.0    0.13    0.99    1.43   332.37060   117.01645   206.00368
   272  H   1.0    0.08    0.99    1.43   329.05525   116.20852   209.23842
   273  H   1.0    0.14    0.99    1.43   327.80619   115.98124   206.15841
   274  H   1.0    0.12    0.99    1.43   328.46596   113.20877   207.91065
   275  H   1.0    0.10    0.99    1.43   333.65654   115.00588   210.01048
   276  H   1.0    0.12    0.99    1.43   333.20740   111.97191   208.68869
   277  H   1.0    0.14    0.99    1.43   335.56065   114.04004   207.47172
   278  N   5.0   -0.51    3.01    1.93   332.84900   109.21126   204.27875
   279  C   4.0    0.10    3.99    3.61   332.36551   106.56324   204.75878
   280  C   4.0    0.29    3.01    3.02   332.51477   106.01669   207.61165
   281  O   6.0   -0.43    1.00    1.80   334.43282   106.46694   208.81913
   282  C   4.0   -0.01    3.98    3.59   334.33994   104.91997   203.42540
   283  O   6.0   -0.44    1.99    1.82   333.69858   102.37182   203.84399
   284  H   1.0    0.24    1.00    1.43   334.66113   109.79350   204.40000
   285  H   1.0    0.17    0.99    1.43   330.47543   106.10534   204.06515
   286  H   1.0    0.11    0.99    1.43   334.34541   105.36787   201.39906
   287  H   1.0    0.12    0.99    1.43   336.20596   105.34781   204.23300
   288  H   1.0    0.26    0.99    1.43   334.94136   101.30622   203.03821
   289  N   5.0   -0.48    3.01    1.93   330.39846   105.06008   208.58605
   290  C   4.0    0.08    3.99    3.61   330.16567   104.23436   211.18839
   291  C   4.0    0.28    3.02    3.02   328.95685   101.60922   211.07742
   292  O   6.0   -0.42    1.00    1.80   326.90625   101.26481   210.06682
   293  C   4.0   -0.08    3.98    3.58   328.53087   106.06052   212.77570
   294  C   4.0   -0.15    3.98    3.59   329.63542   108.73578   212.63490
   295  C   4.0   -0.21    3.98    3.59   328.34590   105.10948   215.49256
   296  C   4.0   -0.24    3.98    3.58   328.14392   110.68786   214.14300
   297  H   1.0    0.30    1.00    1.43   328.87369   104.77621   207.45709
   298  H   1.0    0.13    0.99    1.43   332.07648   104.15837   211.97392
   299  H   1.0    0.13    0.99    1.43   326.64646   106.08007   211.92721
   300  H   1.0    0.11    0.99    1.43   331.58641   108.70284   213.30206
   301  H   1.0    0.13    0.99    1.43   329.67111   109.31366   210.65261
   302  H   1.0    0.11    0.99    1.43   327.10090   106.32371   216.58493
   303  H   1.0    0.14    0.99    1.43   327.57304   103.20588   215.57441
   304  H   1.0    0.12    0.99    1.43   330.19278   105.11119   216.38884
   305  H   1.0    0.09    0.99    1.43   328.81630   112.57893   213.69756
   306  H   1.0    0.10    0.99    1.43   326.14245   110.59314   213.69287
   307  H   1.0    0.11    0.99    1.43   328.35671   110.40743   216.16500
   308  N   5.0   -0.48    3.01    1.93   330.30128    99.72340   212.09736
   309  C   4.0    0.03    3.99    3.61   329.43617    97.12571   211.95488
   310  C   4.0    0.29    3.01    3.02   329.40920    96.31102   209.17027
   311  O   6.0   -0.37    1.00    1.80   331.35973    95.92752   208.00341
   312  H   1.0    0.24    1.00    1.43   332.04503   100.06151   212.77087
   313  H   1.0    0.12    0.99    1.43   330.75553    95.93928   212.99659
   314  H   1.0    0.13    0.99    1.43   327.55808    96.99512   212.80581
   315  N   5.0   -0.49    3.00    1.93   327.09859    96.10065   208.14887
   316  C   4.0    0.03    3.99    3.60   326.69893    95.48173   205.52456
   317  C   4.0    0.26    3.00    3.02   325.10455    97.35941   204.01951
   318  O   6.0   -0.41    1.00    1.80   324.19940    96.74086   201.98362
   319  H   1.0    0.25    1.00    1.43   325.58604    96.55653   209.21769
   320  H   1.0    0.16    0.99    1.43   328.56140    95.36323   204.63159
   321  H   1.0    0.12    0.99    1.43   325.79801    93.62667   205.34360
   322  N   5.0   -0.47    3.01    1.93   324.69585    99.60641   205.10456
   323  C   4.0    0.08    4.00    3.61   323.14515   101.52313   203.92600
   324  C   4.0    0.27    3.01    3.02   324.62904   103.95156   203.44506
   325  O   6.0   -0.42    1.00    1.80   326.52214   104.49366   204.66851
   326  C   4.0   -0.13    3.99    3.60   320.85516   102.11863   205.60599
   327  C   4.0   -0.15    3.98    3.59   318.92173    99.97818   205.57170
   328  C   4.0   -0.15    3.98    3.59   316.51925   100.73804   206.98642
   329  C   4.0   -0.06    3.98    3.58   314.55865    98.63568   207.06736
   330  N   5.0   -0.72    3.98    2.82   315.35274    96.57971   208.82794
   331  H   1.0    0.31    1.00    1.43   325.64710   100.09217   206.69639
   332  H   1.0    0.13    0.99    1.43   322.51249   100.77854   202.10045
   333  H   1.0    0.14    0.99    1.43   321.53174   102.44958   207.52512
   334  H   1.0    0.12    0.99    1.43   319.96914   103.85125   204.92943
   335  H   1.0    0.11    0.99    1.43   318.45503    99.55026   203.60525
   336  H   1.0    0.13    0.99    1.43   319.80547    98.30534   206.39034
   337  H   1.0    0.14    0.99    1.43   316.97690   101.38707   208.88712
   338  H   1.0    0.10    0.99    1.43   315.68067   102.34688   206.00964
   339  H   1.0    0.11    0.99    1.43   312.75771    99.40643   207.70209
   340  H   1.0    0.11    0.99    1.43   314.32399    97.84906   205.17743
   341  H   1.0    0.25    1.00    1.43   313.98894    95.19361   208.92017
   342  H   1.0    0.25    1.00    1.43   317.01726    95.79207   208.19363
   343  H   1.0    0.25    1.00    1.43   315.64313    97.31902   210.60921
   344  N   5.0   -0.50    3.01    1.93   323.60456   105.43550   201.67419
   345  C   4.0    0.11    4.00    3.61   324.76064   107.79277   200.91743
   346  C   4.0    0.29    3.01    3.02   322.86577   109.96922   201.15871
   347  O   6.0   -0.42    1.00    1.80   320.95526   110.17582   199.86151
   348  C   4.0    0.04    3.97    3.58   325.94861   107.62828   198.25927
   349  O   6.0   -0.47    1.99    1.82   327.36323   109.87551   197.94407
   350  C   4.0   -0.20    3.98    3.58   324.04853   107.25013   196.12816
   351  H   1.0    0.23    1.00    1.43   322.20051   104.69998   200.54101
   352  H   1.0    0.18    0.99    1.43   326.31433   108.15151   202.23549
   353  H   1.0    0.12    0.99    1.43   327.23898   105.98610   198.30004
   354  H   1.0    0.25    0.99    1.43   328.11603   109.84626   196.28111
   355  H   1.0    0.10    0.99    1.43   325.03223   106.98590   194.34245
   356  H   1.0    0.11    0.99    1.43   322.89739   105.58808   196.48851
   357  H   1.0    0.15    0.99    1.43   322.81091   108.88150   195.98454
   358  N   5.0   -0.47    3.01    1.93   323.43999   111.60948   202.99192
   359  C   4.0    0.07    3.99    3.61   321.82162   113.71162   203.65204
   360  C   4.0    0.27    3.01    3.02   322.94711   116.18985   202.66507
   361  O   6.0   -0.44    1.00    1.80   325.17652   116.37545   202.09897
   362  C   4.0   -0.13    3.99    3.60   321.56807   113.89033   206.54980
   363  C   4.0   -0.02    3.03    3.02   320.71506   111.43916   207.71522
   364  C   4.0   -0.09    3.03    3.02   318.35127   110.42286   207.18100
   365  C   4.0   -0.10    3.03    3.02   322.26745   110.17395   209.40735
   366  C   4.0   -0.08    3.03    3.02   317.55926   108.19985   208.29773
   367  C   4.0   -0.10    3.03    3.02   321.46425   107.99057   210.59038
   368  C   4.0    0.10    3.03    3.02   319.10289   106.98497   210.04646
   369  O   6.0   -0.49    1.99    1.83   318.26125   104.84139   211.18666
   370  H   1.0    0.28    1.00    1.43   325.14515   111.47623   203.85825
   371  H   1.0    0.14    0.99    1.43   319.98015   113.35576   202.77676
   372  H   1.0    0.11    0.99    1.43   323.40650   114.40381   207.33210
   373  H   1.0    0.11    0.99    1.43   320.21021   115.37088   207.01687
   374  H   1.0    0.12    1.00    1.43   317.06627   111.38105   205.91862
   375  H   1.0    0.11    1.00    1.43   324.11852   110.91673   209.83366
   376  H   1.0    0.12    0.99    1.43   315.72553   107.41880   207.85635
   377  H   1.0    0.11    0.99    1.43   322.65481   107.06435   211.96579
   378  H   1.0    0.26    0.99    1.43   319.41728   104.36197   212.52087
   379  N   5.0   -0.49    3.01    1.93   321.33500   118.15323   202.49495
   380  C   4.0    0.07    3.99    3.61   322.29354   120.70574   202.12536
   381  C   4.0    0.28    3.01    3.02   323.55993   121.57325   204.57861
   382  O   6.0   -0.44    1.00    1.80   322.53698   121.22776   206.63376
   383  C   4.0   -0.21    3.98    3.59   320.13209   122.49791   201.47972
   384  H   1.0    0.23    1.00    1.43   319.62451   118.01465   203.33058
   385  H   1.0    0.14    0.99    1.43   323.70301   120.65073   200.61591
   386  H   1.0    0.11    0.99    1.43   320.90087   124.33020   200.97186
   387  H   1.0    0.11    0.99    1.43   319.07105   121.75758   199.88720
   388  H   1.0    0.12    0.99    1.43   318.89660   122.71538   203.10691
   389  N   5.0   -0.50    3.01    1.93   325.74648   122.81201   204.33786
   390  C   4.0    0.07    4.00    3.61   327.17519   123.55346   206.55799
   391  C   4.0    0.29    3.01    3.02   325.48722   124.84883   208.50804
   392  O   6.0   -0.48    1.00    1.80   325.62992   124.34333   210.76718
   393  C   4.0   -0.20    3.99    3.60   329.31462   125.34009   205.83489
   394  H   1.0    0.28    1.00    1.43   326.63608   122.95072   202.63367
   395  H   1.0    0.12    0.99    1.43   327.96816   121.87262   207.48775
   396  H   1.0    0.12    0.99    1.43   330.27659   126.02928   207.51650
   397  H   1.0    0.11    0.99    1.43   330.68499   124.35352   204.66756
   398  H   1.0    0.12    0.99    1.43   328.61130   126.96228   204.79128
   399  N   5.0   -0.47    3.01    1.93   323.90826   126.59267   207.59624
   400  C   4.0    0.09    3.99    3.61   322.37215   128.16235   209.22548
   401  C   4.0    0.30    3.01    3.02   320.49890   126.63665   210.84592
   402  O   6.0   -0.41    1.00    1.80   319.77932   127.47125   212.87558
   403  C   4.0   -0.02    3.98    3.59   320.89171   130.05387   207.61011
   404  O   6.0   -0.47    1.99    1.82   319.34685   128.70183   205.92887
   405  H   1.0    0.26    1.00    1.43   323.86418   126.94634   205.72112
   406  H   1.0    0.12    0.99    1.43   323.58620   129.19077   210.55761
   407  H   1.0    0.12    0.99    1.43   319.77352   131.23831   208.89229
   408  H   1.0    0.11    0.99    1.43   322.24579   131.25783   206.59759
   409  H   1.0    0.25    0.99    1.43   318.46653   129.88940   204.85245
   410  N   5.0   -0.47    3.00    1.93   319.60245   124.52557   209.78187
   411  C   4.0    0.08    3.99    3.61   317.91049   122.83299   211.09939
   412  C   4.0    0.28    3.01    3.02   319.23908   121.04570   212.96296
   413  O   6.0   -0.42    1.00    1.80   318.00529   119.81111   214.47088
   414  C   4.0   -0.14    3.98    3.59   316.41463   121.26212   209.17540
   415  C   4.0   -0.16    3.98    3.58   314.41772   122.77331   207.72101
   416  C   4.0   -0.15    3.98    3.58   312.21127   123.55258   209.43284
   417  C   4.0   -0.06    3.98    3.58   309.74346   124.09563   208.03798
   418  N   5.0   -0.72    3.98    2.81   309.91564   126.42963   206.45877
   419  H   1.0    0.30    1.00    1.43   320.50592   123.77701   208.26359
   420  H   1.0    0.15    0.99    1.43   316.65470   123.98599   212.27217
   421  H   1.0    0.12    0.99    1.43   317.79530   120.44838   207.87560
   422  H   1.0    0.12    0.99    1.43   315.52096   119.71636   210.20620
   423  H   1.0    0.13    0.99    1.43   315.34069   124.41660   206.88864
   424  H   1.0    0.10    0.99    1.43   313.71163   121.55229   206.21846
   425  H   1.0    0.11    0.99    1.43   311.83922   122.00825   210.74546
   426  H   1.0    0.12    0.99    1.43   312.75159   125.17741   210.57848
   427  H   1.0    0.11    0.99    1.43   309.24205   122.50384   206.83143
   428  H   1.0    0.11    0.99    1.43   308.24911   124.36388   209.42920
   429  H   1.0    0.24    0.99    1.43   308.13217   127.16213   206.04071
   430  H   1.0    0.25    1.00    1.43   310.91498   127.76851   207.45536
   431  H   1.0    0.24    1.00    1.43   310.86289   126.05991   204.80051
   432  N   5.0   -0.47    3.01    1.93   321.75980   120.87024   212.73378
   433  C   4.0    0.07    3.99    3.60   323.31087   119.44861   214.46284
   434  C   4.0    0.29    3.01    3.02   324.35298   121.04519   216.65029
   435  O   6.0   -0.47    1.00    1.80   324.68468   120.06069   218.72601
   436  C   4.0   -0.22    3.99    3.60   325.53059   118.25670   213.05772
   437  H   1.0    0.30    1.00    1.43   322.69762   122.00097   211.51603
   438  H   1.0    0.13    0.99    1.43   322.11114   117.99036   215.31773
   439  H   1.0    0.09    0.99    1.43   326.66357   117.15369   214.36807
   440  H   1.0    0.10    0.99    1.43   324.84049   117.04195   211.55272
   441  H   1.0    0.12    0.99    1.43   326.68989   119.75375   212.25257
   442  N   5.0   -0.46    3.01    1.93   324.87669   123.45223   216.14471
   443  C   4.0    0.09    3.99    3.61   325.89387   125.19335   218.00651
   444  C   4.0    0.30    3.01    3.02   324.56048   124.79843   220.53866
   445  O   6.0   -0.35    1.00    1.80   322.30145   125.22934   220.78982
   446  C   4.0   -0.12    3.99    3.60   325.43286   127.92318   217.15288
   447  C   4.0   -0.11    3.97    3.58   327.65829   128.94859   215.65405
   448  C   4.0    0.32    2.99    3.02   330.03377   129.24721   217.39473
   449  O   6.0   -0.36    1.00    1.80   329.67486   130.18961   219.52282
   450  O   6.0   -0.36    1.00    1.80   332.09891   128.55634   216.49026
   451  H   1.0    0.29    1.00    1.43   324.85091   124.08555   214.34065
   452  H   1.0    0.16    0.99    1.43   327.93006   124.86955   218.24561
   453  H   1.0    0.15    0.99    1.43   323.66939   128.00575   216.07965
   454  H   1.0    0.15    0.99    1.43   325.21209   129.11285   218.82704
   455  H   1.0    0.13    0.99    1.43   328.15837   127.71964   214.07379
   456  H   1.0    0.12    0.99    1.43   327.21764   130.83179   214.92781
   457  N   5.0   -0.49    3.00    1.93   326.03690   123.98585   222.42877
   458  C   4.0    0.04    3.99    3.61   325.11500   123.71975   224.98328
   459  C   4.0    0.29    3.01    3.02   322.78605   122.04027   225.27236
   460  O   6.0   -0.40    1.00    1.80   321.57587   122.06559   227.24929
   461  H   1.0    0.29    1.00    1.43   327.93411   123.85001   222.19127
   462  H   1.0    0.14    0.99    1.43   326.62957   122.92507   226.14079
   463  H   1.0    0.14    0.99    1.43   324.60304   125.56632   225.77351
   464  N   5.0   -0.45    3.01    1.93   322.19733   120.54160   223.33629
   465  C   4.0    0.08    4.00    3.62   319.92266   119.03233   223.41925
   466  C   4.0    0.08    3.00    3.02   320.40041   116.74072   225.10023
   467  O   6.0   -0.43    1.00    1.80   322.39398   115.56957   225.04688
   468  C   4.0   -0.10    3.99    3.60   319.12248   118.09819   220.79748
   469  C   4.0    0.12    3.34    3.06   316.71145   116.65100   221.01258
   470  N   5.0   -0.36    2.10    1.90   314.43342   117.81964   221.34428
   471  C   4.0    0.03    3.23    3.04   316.37238   114.08626   221.07940
   472  C   4.0    0.18    3.41    3.08   312.77338   116.00583   221.57861
   473  N   5.0   -0.47    3.13    1.94   313.84798   113.69708   221.43349
   474  H   1.0    0.31    1.00    1.43   323.26636   120.46384   221.74787
   475  H   1.0    0.15    0.99    1.43   318.41516   120.19365   224.23670
   476  H   1.0    0.16    0.99    1.43   318.86247   119.71623   219.54947
   477  H   1.0    0.12    0.99    1.43   320.59735   116.87560   220.03459
   478  H   1.0    0.12    1.00    1.43   317.68381   112.56256   220.88716
   479  H   1.0    0.12    1.00    1.43   310.79722   116.29955   221.89940
   480  H   1.0    0.23    1.00    1.43   312.99608   111.98973   221.60025
   481  N   5.0   -0.69    3.00    1.93   318.76213   110.20058   226.11539
   482  C   4.0    0.07    3.98    3.58   317.81754   107.94687   224.89624
   483  C   4.0    0.09    3.00    3.02   317.10924   105.86197   226.78457
   484  O   6.0   -0.37    1.00    1.80   316.12356   103.90701   226.03672
   485  C   4.0   -0.10    3.99    3.61   319.78737   106.87194   223.06414
   486  C   4.0   -0.04    3.03    3.02   320.07137   108.37966   220.67995
   487  C   4.0   -0.09    3.03    3.02   322.01335   110.13399   220.44424
   488  C   4.0   -0.09    3.03    3.02   318.41421   108.03518   218.66982
   489  C   4.0   -0.11    3.03    3.02   322.29096   111.53236   218.25041
   490  C   4.0   -0.09    3.03    3.02   318.70207   109.42463   216.47345
   491  C   4.0   -0.10    3.03    3.02   320.62981   111.18345   216.26008
   492  H   1.0    0.31    1.00    1.43   320.64185   110.52748   225.99878
   493  H   1.0    0.12    0.99    1.43   316.06598   108.39992   223.86969
   494  H   1.0    0.15    0.99    1.43   321.59360   106.83357   224.05583
   495  H   1.0    0.15    0.99    1.43   319.24560   104.93051   222.60435
   496  H   1.0    0.14    1.00    1.43   323.31886   110.39162   221.99125
   497  H   1.0    0.13    0.99    1.43   316.89452   106.67419   218.82678
   498  H   1.0    0.11    1.00    1.43   323.81097   112.88740   218.10840
   499  H   1.0    0.13    1.00    1.43   317.40459   109.11643   214.93048
   500  H   1.0    0.12    1.00    1.43   320.82450   112.27068   214.54603
   501  H   1.0    0.29    1.00    1.43   355.50552   124.84151   205.80575
   502  H   1.0    0.14    1.00    1.43   325.31459    99.05796   226.97091
   503  H   1.0    0.29    1.00    1.43   333.23916   107.29916   234.70828
   504  H   1.0    0.14    1.00    1.43   339.34585   118.78969   198.92288
   505  H   1.0    0.29    1.00    1.43   331.55295   127.31174   194.98487
   506  H   1.0    0.14    1.00    1.43   319.06139   116.15036   226.29587
   507  H   1.0    0.31    1.00    1.43   318.01763   111.56934   225.43365
   508  H   1.0    0.16    1.00    1.43   317.45283   106.09983   228.62751

           ------------------------------------------------- 
          |        Self-Consistent Charge Iterations        |
           ------------------------------------------------- 

          ...................................................
          :                      SETUP                      :
          :.................................................:
          :  # basis functions                1261          :
          :  # atomic orbitals                1261          :
          :  # shells                          759          :
          :  # electrons                      1406          :
          :  max. iterations                   250          :
          :  Hamiltonian                  GFN2-xTB          :
          :  restarted?                      false          :
          :  GBSA solvation                   true          :
          :  PC potential                    false          :
          :  electronic temp.          500.0000000     K    :
          :  accuracy                    0.1000000          :
          :  -> integral cutoff          0.3500000E+02      :
          :  -> integral neglect         0.1000000E-08      :
          :  -> SCF convergence          0.1000000E-06 Eh   :
          :  -> wf. convergence          0.1000000E-04 e    :
          :  Broyden damping             0.4000000          :
          ...................................................

 iter      E             dE          RMSdq      gap      omega  full diag
   1   -808.9880567 -0.808988E+03  0.430E+00    2.12       0.0  T
   2   -811.3372080 -0.234915E+01  0.224E+00    1.52       1.0  T
   3   -811.4095908 -0.723829E-01  0.119E+00    1.97       1.0  T
   4   -811.4206689 -0.110780E-01  0.307E-01    1.09       1.0  T
   5   -811.4465462 -0.258773E-01  0.125E-01    1.30       1.0  T
   6   -811.4478416 -0.129539E-02  0.650E-02    1.35       1.0  T
   7   -811.4481194 -0.277801E-03  0.324E-02    1.34       1.0  T
   8   -811.4482864 -0.167064E-03  0.120E-02    1.35       1.0  T
   9   -811.4483002 -0.137325E-04  0.702E-03    1.33       1.0  T
  10   -811.4483065 -0.635706E-05  0.293E-03    1.32       1.5  T
  11   -811.4483078 -0.124599E-05  0.142E-03    1.32       3.1  T
  12   -811.4483081 -0.307439E-06  0.775E-04    1.32       5.7  T
  13   -811.4483082 -0.926412E-07  0.375E-04    1.32      11.8  T
  14   -811.4483082 -0.197815E-07  0.161E-04    1.32      27.5  T
  15   -811.4483082 -0.385319E-08  0.789E-05    1.32      56.2  T
  16   -811.4483082 -0.708951E-09  0.394E-05    1.32     112.6  T

   *** convergence criteria satisfied after 16 iterations ***

         #    Occupation            Energy/Eh            Energy/eV
      -------------------------------------------------------------
         1        2.0000           -0.7489420             -20.3797
       ...           ...                  ...                  ...
       697        2.0000           -0.3766159             -10.2482
       698        2.0000           -0.3747472             -10.1974
       699        2.0000           -0.3732624             -10.1570
       700        2.0000           -0.3653306              -9.9412
       701        2.0000           -0.3626875              -9.8692
       702        2.0000           -0.3616438              -9.8408
       703        2.0000           -0.3583155              -9.7503 (HOMO)
       704        0.0000           -0.3098483              -8.4314 (LUMO)
       705                         -0.2976073              -8.0983
       706                         -0.2942090              -8.0058
       707                         -0.2791223              -7.5953
       708                         -0.2536233              -6.9014
       ...                                ...                  ...
      1261                          0.6667262              18.1425
      -------------------------------------------------------------
                  HL-Gap            0.0484672 Eh            1.3189 eV
             Fermi-level           -0.3339396 Eh           -9.0870 eV

 SCC (total)                   0 d,  0 h,  0 min, 11.857 sec
 SCC setup                      ...        0 min,  0.149 sec (  1.253%)
 Dispersion                     ...        0 min,  0.113 sec (  0.951%)
 integral evaluation            ...        0 min,  0.365 sec (  3.077%)
 zeroth order Hamiltonian       ...        0 min,  0.006 sec (  0.047%)
 iterations                     ...        0 min,  9.384 sec ( 79.147%)
 molecular gradient             ...        0 min,  1.777 sec ( 14.990%)
 printout                       ...        0 min,  0.063 sec (  0.533%)

         :::::::::::::::::::::::::::::::::::::::::::::::::::::
         ::                     SUMMARY                     ::
         :::::::::::::::::::::::::::::::::::::::::::::::::::::
         :: total energy             -802.005110733654 Eh   ::
         :: total w/o Gsasa/hb       -801.905982325625 Eh   ::
         :: gradient norm               0.449491560532 Eh/α ::
         :: HOMO-LUMO gap               1.318858924885 eV   ::
         ::.................................................::
         :: SCC energy               -811.464921919184 Eh   ::
         :: -> isotropic ES             2.771994248147 Eh   ::
         :: -> anisotropic ES          -0.143707786268 Eh   ::
         :: -> anisotropic XC           0.222594519654 Eh   ::
         :: -> dispersion              -0.692740387358 Eh   ::
         :: -> Gsolv                   -0.763595213347 Eh   ::
         ::    -> Gborn                -0.664466805317 Eh   ::
         ::    -> Gsasa                -0.018471155163 Eh   ::
         ::    -> Ghb                  -0.082514695993 Eh   ::
         ::    -> Gshift                0.001857443127 Eh   ::
         :: repulsion energy            9.382496983648 Eh   ::
         :: add. restraining            0.000000000000 Eh   ::
         :::::::::::::::::::::::::::::::::::::::::::::::::::::

           -------------------------------------------------
          |                Property Printout                |
           -------------------------------------------------

    * Orbital Energies and Occupations

         #    Occupation            Energy/Eh            Energy/eV
      -------------------------------------------------------------
         1        2.0000           -0.7489420             -20.3797
       ...           ...                  ...                  ...
       691        2.0000           -0.3876853             -10.5495
       692        2.0000           -0.3845925             -10.4653
       693        2.0000           -0.3843603             -10.4590
       694        2.0000           -0.3808171             -10.3626
       695        2.0000           -0.3791917             -10.3183
       696        2.0000           -0.3783372             -10.2951
       697        2.0000           -0.3766159             -10.2482
       698        2.0000           -0.3747472             -10.1974
       699        2.0000           -0.3732624             -10.1570
       700        2.0000           -0.3653306              -9.9412
       701        2.0000           -0.3626875              -9.8692
       702        2.0000           -0.3616438              -9.8408
       703        2.0000           -0.3583155              -9.7503 (HOMO)
       704        0.0000           -0.3098483              -8.4314 (LUMO)
       705                         -0.2976073              -8.0983
       706                         -0.2942090              -8.0058
       707                         -0.2791223              -7.5953
       708                         -0.2536233              -6.9014
       709                         -0.2482439              -6.7551
       710                         -0.2427112              -6.6045
       711                         -0.2416120              -6.5746
       712                         -0.2395089              -6.5174
       713                         -0.2376136              -6.4658
       714                         -0.2361318              -6.4255
       ...                                ...                  ...
      1261                          0.6667262              18.1425
      -------------------------------------------------------------
                  HL-Gap            0.0484672 Eh            1.3189 eV
             Fermi-level           -0.3339396 Eh           -9.0870 eV

   #   Z        covCN         q      C6AA      α(0)
   1   7 N      2.637    -0.395    30.228     8.165
   2   6 C      3.794     0.029    20.088     6.382
   3   6 C      2.760     0.277    22.313     7.736
   4   8 O      0.858    -0.483    23.410     6.487
   5   6 C      3.853    -0.023    20.943     6.509
   6   6 C      3.804    -0.060    21.646     6.623
   7   6 C      3.756    -0.116    22.776     6.805
   8   6 C      3.752    -0.109    22.652     6.787
   9   1 H      0.860     0.167     1.292     1.781
  10   1 H      0.924     0.029     2.595     2.519
  11   1 H      0.924     0.038     2.477     2.461
  12   1 H      0.924     0.032     2.559     2.502
  13   1 H      0.924     0.035     2.523     2.484
  14   1 H      0.925     0.053     2.289     2.366
  15   1 H      0.925     0.041     2.439     2.442
  16   1 H      0.925     0.025     2.654     2.547
  17   1 H      0.925     0.043     2.412     2.429
  18   1 H      0.925     0.046     2.372     2.409
  19   1 H      0.925     0.040     2.454     2.450
  20   7 N      2.693    -0.160    24.457     7.345
  21   6 C      3.798     0.031    20.062     6.378
  22   6 C      2.753     0.273    22.393     7.749
  23   8 O      0.858    -0.468    23.089     6.442
  24   6 C      3.813    -0.102    22.430     6.741
  25   6 C      2.743     0.291    22.071     7.692
  26   8 O      0.859    -0.487    23.492     6.498
  27   7 N      2.640    -0.284    27.326     7.764
  28   1 H      0.860     0.192     1.146     1.677
  29   1 H      0.923     0.079     1.993     2.208
  30   1 H      0.924     0.071     2.077     2.254
  31   1 H      0.925     0.072     2.067     2.248
  32   1 H      0.860     0.240     0.923     1.505
  33   1 H      0.860     0.219     1.015     1.578
  34   7 N      2.688    -0.163    24.531     7.356
  35   6 C      3.794    -0.003    20.634     6.468
  36   6 C      2.752     0.289    22.100     7.698
  37   8 O      0.858    -0.495    23.679     6.524
  38   6 C      3.724     0.088    19.222     6.261
  39   8 O      1.655    -0.471    22.285     6.373
  40   6 C      3.752    -0.139    23.232     6.873
  41   1 H      0.860     0.200     1.109     1.649
  42   1 H      0.924     0.108     1.710     2.045
  43   1 H      0.924     0.084     1.939     2.177
  44   1 H      0.805     0.336     0.623     1.240
  45   1 H      0.925     0.091     1.870     2.138
  46   1 H      0.925     0.052     2.292     2.367
  47   1 H      0.925     0.056     2.250     2.346
  48   7 N      2.688    -0.184    24.983     7.423
  49   6 C      3.793     0.025    20.156     6.393
  50   6 C      2.757     0.284    22.184     7.713
  51   8 O      0.858    -0.496    23.697     6.527
  52   6 C      3.735     0.121    18.689     6.170
  53   8 O      1.656    -0.456    21.960     6.326
  54   6 C      3.752    -0.130    23.048     6.846
  55   1 H      0.860     0.237     0.935     1.515
  56   1 H      0.924     0.063     2.169     2.303
  57   1 H      0.923     0.019     2.749     2.593
  58   1 H      0.805     0.321     0.662     1.278
  59   1 H      0.925     0.057     2.234     2.337
  60   1 H      0.925     0.023     2.690     2.565
  61   1 H      0.925     0.076     2.017     2.221
  62   7 N      2.687    -0.182    24.940     7.417
  63   6 C      3.790     0.005    20.501     6.448
  64   6 C      2.751     0.299    21.924     7.667
  65   8 O      0.858    -0.501    23.811     6.542
  66   6 C      3.802    -0.073    21.888     6.661
  67   6 C      3.800    -0.074    21.922     6.666
  68   6 C      3.800    -0.100    22.414     6.741
  69   6 C      3.729    -0.055    21.668     6.645
  70   7 N      3.480    -0.149    24.203     7.307
  71   1 H      0.860     0.225     0.985     1.555
  72   1 H      0.924     0.098     1.805     2.101
  73   1 H      0.924     0.063     2.167     2.302
  74   1 H      0.924     0.040     2.454     2.450
  75   1 H      0.924     0.062     2.176     2.307
  76   1 H      0.924     0.047     2.361     2.403
  77   1 H      0.925     0.095     1.831     2.116
  78   1 H      0.925     0.086     1.921     2.168
  79   1 H      0.925     0.114     1.666     2.019
  80   1 H      0.925     0.131     1.530     1.934
  81   1 H      0.859     0.291     0.741     1.348
  82   1 H      0.857     0.303     0.706     1.316
  83   1 H      0.859     0.260     0.845     1.440
  84   7 N      2.691    -0.167    24.621     7.370
  85   6 C      3.793     0.028    20.116     6.387
  86   6 C      2.757     0.274    22.371     7.745
  87   8 O      0.858    -0.458    22.872     6.412
  88   6 C      3.809    -0.070    21.834     6.651
  89   6 C      2.967    -0.001    28.059     8.689
  90   6 C      2.925    -0.037    28.924     8.820
  91   6 C      2.925    -0.044    29.096     8.846
  92   6 C      2.918    -0.058    29.451     8.899
  93   6 C      2.917    -0.075    29.874     8.963
  94   6 C      2.847     0.142    24.900     8.178
  95   8 O      1.660    -0.400    20.847     6.164
  96   1 H      0.860     0.214     1.036     1.594
  97   1 H      0.924     0.056     2.245     2.343
  98   1 H      0.924     0.053     2.281     2.362
  99   1 H      0.924     0.052     2.296     2.370
 100   1 H      0.926     0.028     2.611     2.527
 101   1 H      0.925     0.040     2.454     2.450
 102   1 H      0.926     0.054     2.272     2.357
 103   1 H      0.926     0.053     2.281     2.362
 104   1 H      0.805     0.339     0.616     1.232
 105   7 N      2.690    -0.183    24.964     7.421
 106   6 C      3.801     0.009    20.422     6.434
 107   6 C      2.748     0.277    22.312     7.735
 108   8 O      0.858    -0.456    22.832     6.406
 109   6 C      3.725     0.125    18.641     6.165
 110   8 O      1.656    -0.492    22.717     6.434
 111   6 C      3.753    -0.138    23.210     6.870
 112   1 H      0.860     0.201     1.101     1.644
 113   1 H      0.924     0.093     1.846     2.125
 114   1 H      0.923     0.012     2.862     2.645
 115   1 H      0.805     0.325     0.650     1.267
 116   1 H      0.925     0.058     2.226     2.333
 117   1 H      0.925     0.064     2.148     2.292
 118   1 H      0.925     0.065     2.142     2.289
 119   7 N      2.689    -0.166    24.600     7.366
 120   6 C      3.790     0.019    20.267     6.411
 121   6 C      2.754     0.279    22.277     7.729
 122   8 O      0.858    -0.459    22.894     6.415
 123   6 C      3.757    -0.129    23.026     6.842
 124   1 H      0.860     0.204     1.084     1.631
 125   1 H      0.924     0.076     2.023     2.224
 126   1 H      0.925     0.070     2.081     2.256
 127   1 H      0.925     0.075     2.031     2.228
 128   1 H      0.925     0.073     2.053     2.240
 129   7 N      2.693    -0.185    25.009     7.427
 130   6 C      3.792     0.040    19.910     6.354
 131   6 C      2.769     0.202    23.697     7.972
 132   8 O      0.856    -0.382    21.325     6.191
 133   6 C      3.797    -0.120    22.804     6.800
 134   6 C      2.682     0.370    20.727     7.450
 135   8 O      0.856    -0.645    27.244     6.998
 136   8 O      0.856    -0.617    26.544     6.908
 137   1 H      0.860     0.209     1.061     1.614
 138   1 H      0.924     0.081     1.971     2.195
 139   1 H      0.925     0.057     2.237     2.339
 140   1 H      0.925     0.058     2.222     2.331
 141   7 N      2.634    -0.376    29.704     8.094
 142   6 C      3.787     0.018    20.289     6.415
 143   6 C      2.753     0.272    22.396     7.749
 144   8 O      0.858    -0.467    23.073     6.440
 145   6 C      3.675     0.071    19.609     6.345
 146   8 O      1.656    -0.482    22.502     6.404
 147   1 H      0.860     0.165     1.306     1.790
 148   1 H      0.924     0.053     2.286     2.364
 149   1 H      0.923     0.032     2.561     2.503
 150   1 H      0.924     0.025     2.654     2.548
 151   1 H      0.805     0.329     0.639     1.255
 152   7 N      2.693    -0.163    24.519     7.354
 153   6 C      3.795     0.005    20.501     6.447
 154   6 C      2.756     0.265    22.520     7.771
 155   8 O      0.858    -0.470    23.135     6.449
 156   6 C      3.805    -0.085    22.125     6.696
 157   6 C      3.803    -0.082    22.065     6.687
 158   6 C      3.802    -0.093    22.271     6.719
 159   6 C      3.733    -0.055    21.647     6.640
 160   7 N      3.482    -0.138    23.984     7.274
 161   1 H      0.860     0.201     1.103     1.645
 162   1 H      0.924     0.087     1.910     2.161
 163   1 H      0.925     0.071     2.069     2.249
 164   1 H      0.925     0.060     2.195     2.317
 165   1 H      0.925     0.068     2.106     2.270
 166   1 H      0.925     0.072     2.059     2.244
 167   1 H      0.924     0.062     2.174     2.306
 168   1 H      0.924     0.077     2.005     2.215
 169   1 H      0.924     0.125     1.576     1.963
 170   1 H      0.924     0.125     1.577     1.964
 171   1 H      0.858     0.289     0.748     1.355
 172   1 H      0.859     0.280     0.776     1.380
 173   1 H      0.859     0.306     0.697     1.307
 174   7 N      2.695    -0.181    24.923     7.415
 175   6 C      3.790    -0.011    20.780     6.492
 176   6 C      2.755     0.267    22.490     7.766
 177   8 O      0.858    -0.463    22.987     6.428
 178   6 C      3.725     0.097    19.078     6.237
 179   8 O      1.655    -0.451    21.861     6.312
 180   6 C      3.753    -0.148    23.423     6.901
 181   1 H      0.860     0.220     1.009     1.573
 182   1 H      0.924     0.084     1.940     2.178
 183   1 H      0.924     0.062     2.180     2.309
 184   1 H      0.805     0.337     0.618     1.235
 185   1 H      0.925     0.090     1.881     2.145
 186   1 H      0.925     0.058     2.228     2.334
 187   1 H      0.925     0.066     2.132     2.283
 188   7 N      2.691    -0.159    24.442     7.343
 189   6 C      3.793     0.009    20.436     6.438
 190   6 C      2.752     0.266    22.508     7.769
 191   8 O      0.858    -0.481    23.375     6.482
 192   6 C      3.755    -0.130    23.061     6.847
 193   1 H      0.860     0.206     1.077     1.626
 194   1 H      0.924     0.093     1.849     2.127
 195   1 H      0.925     0.063     2.158     2.297
 196   1 H      0.925     0.079     1.992     2.207
 197   1 H      0.925     0.060     2.198     2.318
 198   7 N      2.691    -0.159    24.432     7.341
 199   6 C      3.793     0.016    20.319     6.419
 200   6 C      2.756     0.275    22.349     7.741
 201   8 O      0.858    -0.472    23.167     6.453
 202   6 C      3.811    -0.079    21.997     6.676
 203   6 C      3.849    -0.013    20.781     6.484
 204   6 C      3.757    -0.120    22.843     6.814
 205   6 C      3.755    -0.118    22.811     6.810
 206   1 H      0.860     0.212     1.047     1.603
 207   1 H      0.924     0.081     1.966     2.193
 208   1 H      0.924     0.052     2.296     2.370
 209   1 H      0.925     0.056     2.242     2.342
 210   1 H      0.924     0.044     2.391     2.418
 211   1 H      0.925     0.053     2.282     2.362
 212   1 H      0.925     0.042     2.419     2.432
 213   1 H      0.925     0.042     2.418     2.432
 214   1 H      0.925     0.055     2.261     2.352
 215   1 H      0.925     0.039     2.460     2.453
 216   1 H      0.925     0.034     2.525     2.485
 217   7 N      2.691    -0.173    24.742     7.388
 218   6 C      3.792     0.039    19.936     6.359
 219   6 C      2.767     0.199    23.762     7.983
 220   8 O      0.856    -0.346    20.635     6.090
 221   6 C      3.813    -0.087    22.141     6.697
 222   6 C      2.743     0.291    22.059     7.690
 223   8 O      0.859    -0.488    23.514     6.501
 224   7 N      2.639    -0.302    27.769     7.826
 225   1 H      0.860     0.217     1.023     1.585
 226   1 H      0.924     0.087     1.908     2.160
 227   1 H      0.924     0.076     2.020     2.223
 228   1 H      0.924     0.058     2.226     2.333
 229   1 H      0.860     0.212     1.049     1.604
 230   1 H      0.860     0.222     1.001     1.567
 231   7 N      2.638    -0.380    29.828     8.111
 232   6 C      3.787     0.033    20.026     6.374
 233   6 C      2.759     0.265    22.537     7.774
 234   8 O      0.858    -0.487    23.489     6.498
 235   6 C      3.807    -0.041    21.309     6.571
 236   6 C      3.799    -0.091    22.232     6.714
 237   6 C      2.686     0.365    20.806     7.465
 238   8 O      0.856    -0.624    26.715     6.930
 239   8 O      0.856    -0.649    27.343     7.011
 240   1 H      0.860     0.165     1.305     1.789
 241   1 H      0.924     0.029     2.608     2.525
 242   1 H      0.924     0.041     2.436     2.441
 243   1 H      0.924    -0.002     3.097     2.752
 244   1 H      0.924     0.016     2.792     2.613
 245   1 H      0.924     0.028     2.617     2.530
 246   7 N      2.692    -0.149    24.227     7.310
 247   6 C      3.799     0.009    20.427     6.435
 248   6 C      2.763     0.270    22.447     7.759
 249   8 O      0.859    -0.500    23.782     6.538
 250   6 C      3.850    -0.020    20.901     6.503
 251   6 C      3.756    -0.120    22.858     6.817
 252   6 C      3.755    -0.120    22.859     6.817
 253   1 H      0.860     0.197     1.121     1.659
 254   1 H      0.924     0.087     1.907     2.159
 255   1 H      0.924     0.061     2.191     2.315
 256   1 H      0.925     0.063     2.161     2.299
 257   1 H      0.925     0.047     2.357     2.401
 258   1 H      0.925     0.045     2.380     2.413
 259   1 H      0.925     0.063     2.169     2.303
 260   1 H      0.925     0.043     2.410     2.428
 261   1 H      0.925     0.038     2.471     2.458
 262   7 N      2.689    -0.178    24.856     7.405
 263   6 C      3.804     0.015    20.327     6.418
 264   6 C      2.755     0.275    22.356     7.743
 265   8 O      0.858    -0.457    22.855     6.410
 266   6 C      3.851    -0.012    20.762     6.481
 267   6 C      3.754    -0.111    22.679     6.791
 268   6 C      3.755    -0.125    22.946     6.830
 269   1 H      0.860     0.227     0.977     1.548
 270   1 H      0.924     0.075     2.034     2.230
 271   1 H      0.924     0.027     2.623     2.533
 272   1 H      0.925     0.034     2.530     2.487
 273   1 H      0.925     0.041     2.440     2.443
 274   1 H      0.925     0.057     2.240     2.341
 275   1 H      0.925     0.046     2.376     2.410
 276   1 H      0.925     0.051     2.306     2.375
 277   1 H      0.925     0.061     2.188     2.313
 278   7 N      2.691    -0.176    24.819     7.399
 279   6 C      3.795     0.012    20.388     6.430
 280   6 C      2.755     0.274    22.369     7.745
 281   8 O      0.858    -0.479    23.329     6.476
 282   6 C      3.679     0.077    19.504     6.326
 283   8 O      1.656    -0.487    22.608     6.419
 284   1 H      0.860     0.206     1.075     1.624
 285   1 H      0.924     0.093     1.847     2.125
 286   1 H      0.923     0.041     2.439     2.442
 287   1 H      0.923     0.044     2.392     2.418
 288   1 H      0.805     0.355     0.577     1.193
 289   7 N      2.695    -0.173    24.740     7.387
 290   6 C      3.797     0.014    20.347     6.423
 291   6 C      2.762     0.268    22.469     7.763
 292   8 O      0.859    -0.471    23.142     6.450
 293   6 C      3.852    -0.017    20.844     6.494
 294   6 C      3.803    -0.057    21.588     6.615
 295   6 C      3.755    -0.118    22.808     6.810
 296   6 C      3.751    -0.107    22.600     6.780
 297   1 H      0.860     0.229     0.969     1.542
 298   1 H      0.924     0.069     2.092     2.262
 299   1 H      0.924     0.049     2.337     2.391
 300   1 H      0.924     0.044     2.401     2.423
 301   1 H      0.924     0.025     2.658     2.550
 302   1 H      0.925     0.045     2.383     2.414
 303   1 H      0.925     0.045     2.381     2.413
 304   1 H      0.925     0.057     2.233     2.337
 305   1 H      0.925     0.028     2.615     2.529
 306   1 H      0.925     0.042     2.423     2.434
 307   1 H      0.925     0.040     2.453     2.449
 308   7 N      2.688    -0.163    24.533     7.356
 309   6 C      3.746    -0.038    21.325     6.587
 310   6 C      2.753     0.278    22.299     7.733
 311   8 O      0.858    -0.483    23.403     6.486
 312   1 H      0.860     0.219     1.013     1.577
 313   1 H      0.925     0.101     1.773     2.082
 314   1 H      0.924     0.088     1.897     2.154
 315   7 N      2.685    -0.168    24.643     7.373
 316   6 C      3.744    -0.042    21.399     6.599
 317   6 C      2.752     0.272    22.404     7.751
 318   8 O      0.859    -0.493    23.640     6.519
 319   1 H      0.860     0.224     0.990     1.559
 320   1 H      0.924     0.098     1.801     2.099
 321   1 H      0.924     0.100     1.782     2.087
 322   7 N      2.689    -0.163    24.519     7.354
 323   6 C      3.799     0.010    20.411     6.433
 324   6 C      2.757     0.270    22.445     7.758
 325   8 O      0.858    -0.479    23.331     6.476
 326   6 C      3.808    -0.079    22.000     6.677
 327   6 C      3.802    -0.080    22.021     6.681
 328   6 C      3.804    -0.099    22.390     6.737
 329   6 C      3.731    -0.053    21.623     6.638
 330   7 N      3.482    -0.147    24.166     7.301
 331   1 H      0.860     0.221     1.006     1.571
 332   1 H      0.924     0.083     1.946     2.182
 333   1 H      0.924     0.068     2.105     2.269
 334   1 H      0.924     0.057     2.229     2.335
 335   1 H      0.924     0.062     2.171     2.304
 336   1 H      0.924     0.056     2.244     2.343
 337   1 H      0.925     0.092     1.857     2.131
 338   1 H      0.924     0.084     1.935     2.176
 339   1 H      0.925     0.123     1.588     1.970
 340   1 H      0.924     0.120     1.613     1.986
 341   1 H      0.859     0.302     0.708     1.319
 342   1 H      0.859     0.289     0.747     1.354
 343   1 H      0.859     0.297     0.723     1.332
 344   7 N      2.689    -0.175    24.792     7.395
 345   6 C      3.798     0.003    20.526     6.451
 346   6 C      2.754     0.275    22.351     7.742
 347   8 O      0.859    -0.475    23.234     6.463
 348   6 C      3.724     0.120    18.729     6.180
 349   8 O      1.656    -0.488    22.627     6.421
 350   6 C      3.751    -0.137    23.202     6.869
 351   1 H      0.859     0.212     1.047     1.603
 352   1 H      0.924     0.099     1.794     2.095
 353   1 H      0.922     0.017     2.773     2.604
 354   1 H      0.805     0.329     0.639     1.255
 355   1 H      0.925     0.055     2.258     2.350
 356   1 H      0.925     0.057     2.234     2.337
 357   1 H      0.925     0.072     2.058     2.244
 358   7 N      2.692    -0.165    24.575     7.363
 359   6 C      3.794     0.015    20.327     6.420
 360   6 C      2.758     0.270    22.440     7.757
 361   8 O      0.859    -0.487    23.488     6.498
 362   6 C      3.812    -0.074    21.898     6.661
 363   6 C      2.968    -0.003    28.086     8.693
 364   6 C      2.925    -0.045    29.113     8.848
 365   6 C      2.926    -0.040    28.986     8.829
 366   6 C      2.918    -0.064    29.589     8.920
 367   6 C      2.918    -0.071    29.766     8.947
 368   6 C      2.847     0.141    24.929     8.183
 369   8 O      1.659    -0.403    20.911     6.173
 370   1 H      0.860     0.216     1.028     1.588
 371   1 H      0.924     0.097     1.809     2.103
 372   1 H      0.924     0.042     2.419     2.432
 373   1 H      0.924     0.067     2.121     2.277
 374   1 H      0.926     0.057     2.237     2.339
 375   1 H      0.926     0.028     2.614     2.528
 376   1 H      0.926     0.074     2.040     2.233
 377   1 H      0.926     0.033     2.545     2.495
 378   1 H      0.805     0.334     0.628     1.245
 379   7 N      2.690    -0.174    24.773     7.392
 380   6 C      3.795     0.021    20.233     6.405
 381   6 C      2.761     0.267    22.497     7.767
 382   8 O      0.859    -0.485    23.459     6.494
 383   6 C      3.757    -0.145    23.349     6.889
 384   1 H      0.860     0.225     0.986     1.556
 385   1 H      0.924     0.074     2.041     2.234
 386   1 H      0.925     0.073     2.049     2.239
 387   1 H      0.925     0.098     1.801     2.099
 388   1 H      0.925     0.086     1.922     2.168
 389   7 N      2.688    -0.193    25.190     7.454
 390   6 C      3.798     0.034    20.011     6.369
 391   6 C      2.758     0.282    22.225     7.720
 392   8 O      0.859    -0.507    23.931     6.559
 393   6 C      3.758    -0.112    22.688     6.791
 394   1 H      0.860     0.237     0.934     1.514
 395   1 H      0.923     0.060     2.198     2.318
 396   1 H      0.925     0.039     2.462     2.454
 397   1 H      0.925     0.056     2.250     2.346
 398   1 H      0.925     0.064     2.156     2.296
 399   7 N      2.690    -0.173    24.739     7.387
 400   6 C      3.794     0.022    20.219     6.403
 401   6 C      2.754     0.279    22.271     7.728
 402   8 O      0.858    -0.500    23.775     6.537
 403   6 C      3.680     0.068    19.650     6.349
 404   8 O      1.656    -0.464    22.141     6.352
 405   1 H      0.860     0.225     0.985     1.555
 406   1 H      0.923     0.048     2.351     2.398
 407   1 H      0.924     0.054     2.267     2.355
 408   1 H      0.923     0.042     2.423     2.434
 409   1 H      0.805     0.373     0.537     1.151
 410   7 N      2.688    -0.170    24.669     7.377
 411   6 C      3.794     0.011    20.404     6.432
 412   6 C      2.753     0.270    22.439     7.757
 413   8 O      0.858    -0.477    23.282     6.469
 414   6 C      3.807    -0.080    22.031     6.682
 415   6 C      3.800    -0.093    22.267     6.719
 416   6 C      3.801    -0.095    22.314     6.725
 417   6 C      3.729    -0.053    21.628     6.639
 418   7 N      3.481    -0.148    24.197     7.306
 419   1 H      0.860     0.224     0.993     1.561
 420   1 H      0.924     0.093     1.848     2.126
 421   1 H      0.924     0.061     2.183     2.311
 422   1 H      0.924     0.076     2.022     2.224
 423   1 H      0.924     0.071     2.074     2.252
 424   1 H      0.924     0.090     1.879     2.143
 425   1 H      0.924     0.084     1.935     2.175
 426   1 H      0.924     0.064     2.155     2.296
 427   1 H      0.925     0.129     1.542     1.942
 428   1 H      0.925     0.120     1.616     1.988
 429   1 H      0.858     0.305     0.699     1.310
 430   1 H      0.859     0.291     0.741     1.349
 431   1 H      0.859     0.301     0.712     1.322
 432   7 N      2.689    -0.191    25.141     7.447
 433   6 C      3.793     0.028    20.112     6.386
 434   6 C      2.754     0.272    22.410     7.752
 435   8 O      0.858    -0.495    23.665     6.522
 436   6 C      3.758    -0.117    22.793     6.807
 437   1 H      0.860     0.201     1.098     1.642
 438   1 H      0.924     0.089     1.892     2.151
 439   1 H      0.925     0.060     2.203     2.321
 440   1 H      0.925     0.081     1.972     2.196
 441   1 H      0.925     0.044     2.392     2.419
 442   7 N      2.690    -0.181    24.923     7.415
 443   6 C      3.795     0.044    19.837     6.342
 444   6 C      2.759     0.287    22.139     7.705
 445   8 O      0.858    -0.494    23.652     6.520
 446   6 C      3.809    -0.046    21.395     6.584
 447   6 C      3.798    -0.088    22.185     6.707
 448   6 C      2.683     0.371    20.713     7.448
 449   8 O      0.856    -0.642    27.185     6.990
 450   8 O      0.856    -0.647    27.302     7.005
 451   1 H      0.860     0.221     1.005     1.571
 452   1 H      0.923     0.039     2.456     2.451
 453   1 H      0.924     0.050     2.322     2.383
 454   1 H      0.924     0.038     2.472     2.459
 455   1 H      0.924     0.010     2.896     2.661
 456   1 H      0.924     0.018     2.767     2.601
 457   7 N      2.685    -0.183    24.968     7.421
 458   6 C      3.744    -0.020    21.007     6.538
 459   6 C      2.757     0.283    22.216     7.718
 460   8 O      0.859    -0.503    23.855     6.548
 461   1 H      0.860     0.212     1.045     1.601
 462   1 H      0.924     0.093     1.847     2.125
 463   1 H      0.924     0.078     2.003     2.213
 464   7 N      2.691    -0.175    24.786     7.394
 465   6 C      3.803     0.039    19.910     6.353
 466   6 C      2.770     0.207    23.606     7.957
 467   8 O      0.856    -0.357    20.842     6.121
 468   6 C      3.810    -0.060    21.654     6.624
 469   6 C      3.195     0.055    26.266     8.356
 470   7 N      1.917    -0.297    28.551     7.922
 471   6 C      3.047    -0.035    28.832     8.807
 472   6 C      3.157     0.086    25.803     8.306
 473   7 N      2.805    -0.093    23.056     7.131
 474   1 H      0.860     0.223     0.994     1.562
 475   1 H      0.924     0.083     1.953     2.185
 476   1 H      0.925     0.072     2.063     2.246
 477   1 H      0.924     0.053     2.279     2.361
 478   1 H      0.927     0.042     2.425     2.435
 479   1 H      0.926     0.062     2.170     2.304
 480   1 H      0.860     0.210     1.057     1.610
 481   7 N      2.634    -0.380    29.829     8.111
 482   6 C      3.782     0.048    19.781     6.336
 483   6 C      2.766     0.200    23.737     7.979
 484   8 O      0.856    -0.382    21.329     6.192
 485   6 C      3.814    -0.062    21.679     6.627
 486   6 C      2.969     0.013    27.723     8.637
 487   6 C      2.924    -0.038    28.938     8.822
 488   6 C      2.922    -0.045    29.112     8.848
 489   6 C      2.918    -0.033    28.817     8.803
 490   6 C      2.920    -0.036    28.889     8.814
 491   6 C      2.919    -0.035    28.881     8.813
 492   1 H      0.860     0.165     1.303     1.788
 493   1 H      0.923     0.058     2.219     2.330
 494   1 H      0.924     0.057     2.229     2.335
 495   1 H      0.924     0.041     2.430     2.438
 496   1 H      0.926     0.031     2.569     2.506
 497   1 H      0.925     0.044     2.397     2.421
 498   1 H      0.926     0.021     2.724     2.581
 499   1 H      0.926     0.055     2.259     2.351
 500   1 H      0.926     0.036     2.503     2.474
 501   1 H      0.862     0.184     1.191     1.710
 502   1 H      0.930     0.086     1.918     2.166
 503   1 H      0.862     0.183     1.199     1.715
 504   1 H      0.930     0.088     1.897     2.154
 505   1 H      0.862     0.182     1.202     1.717
 506   1 H      0.930     0.078     2.002     2.212
 507   1 H      0.862     0.167     1.291     1.780
 508   1 H      0.930     0.073     2.055     2.242

 Mol. C6AA /au·bohr⁶  :    2400994.287705
 Mol. C8AA /au·bohr⁸  :   53443452.736357
 Mol. α(0) /au        :       2316.918626


Wiberg/Mayer (AO) data.
largest (>0.10) Wiberg bond orders for each atom
          total WBO             WBO to atom ...
     1  N   2.995        C    2 1.020    H    9 0.955    H  501 0.945
     2  C   3.985        N    1 1.020    H   10 0.959    C    5 0.954    C    3 0.946
     3  C   3.941        O    4 1.645    N   20 1.282    C    2 0.946
[...]
   179  O   2.002        C  178 0.981    H  184 0.865
   180  C   3.985        C  178 1.009    H  186 0.980    H  185 0.976    H  187 0.972
   181  H   0.952        N  174 0.913
   182  H   0.993        C  175 0.952
   183  H   0.996        C  178 0.958
   184  H   0.886        O  179 0.865
   185  H   0.991        C  180 0.976
   186  H   0.997        C  180 0.980
   187  H   0.996        C  180 0.972
   188  N   3.480        C  176 1.297    C  189 0.987    H  193 0.920    O  177 0.203
   189  C   3.967        N  188 0.987    C  192 0.984    H  194 0.945    C  190 0.937
   190  C   3.946        O  191 1.634    N  198 1.301    C  189 0.937
   191  O   1.970        C  190 1.634    N  198 0.195
   192  C   3.984        C  189 0.984    H  197 0.981    H  196 0.980    H  195 0.978
   193  H   0.958        N  188 0.920
   194  H   0.991        C  189 0.945
   195  H   0.995        C  192 0.978
   196  H   0.993        C  192 0.980
   197  H   0.996        C  192 0.981
   198  N   3.480        C  190 1.301    C  199 0.991    H  206 0.921    O  191 0.195
   199  C   3.967        N  198 0.991    C  202 0.969    H  207 0.946    C  200 0.930
   200  C   3.942        O  201 1.653    N  217 1.275    C  199 0.930
   201  O   1.969        C  200 1.653    N  217 0.187
   202  C   3.984        C  203 0.990    H  208 0.973    C  199 0.969    H  209 0.968
   203  C   3.993        C  205 1.010    C  204 1.007    C  202 0.990    H  210 0.967
   204  C   3.993        C  203 1.007    H  212 0.986    H  211 0.985    H  213 0.984
   205  C   3.995        C  203 1.010    H  214 0.984    H  215 0.984    H  216 0.983
   206  H   0.955        N  198 0.921
   207  H   0.993        C  199 0.946
   208  H   0.997        C  202 0.973
   209  H   0.996        C  202 0.968
   210  H   0.998        C  203 0.967
   211  H   0.996        C  204 0.985
   212  H   0.998        C  204 0.986
   213  H   0.998        C  204 0.984
   214  H   0.997        C  205 0.984
   215  H   0.998        C  205 0.984
   216  H   0.999        C  205 0.983
   217  N   3.452        C  200 1.275    C  218 0.979    H  225 0.905    O  201 0.187
   218  C   3.972        C  221 0.983    N  217 0.979    C  219 0.957    H  226 0.955
   219  C   3.896        O  220 1.920    C  218 0.957    H  504 0.952
   220  O   2.053        C  219 1.920
   221  C   3.993        C  218 0.983    C  222 0.964    H  228 0.952    H  227 0.951
   222  C   3.949        O  223 1.630    N  224 1.318    C  221 0.964
   223  O   1.949        C  222 1.630    N  224 0.199
   224  N   3.399        C  222 1.318    H  229 0.917    H  230 0.887    O  223 0.199
   225  H   0.953        N  217 0.905
   226  H   0.992        C  218 0.955
   227  H   0.994        C  221 0.951
   228  H   0.996        C  221 0.952
   229  H   0.954        N  224 0.917
   230  H   0.951        N  224 0.887
   231  N   2.999        C  232 1.015    H  240 0.955    H  505 0.954
   232  C   3.988        N  231 1.015    C  235 0.974    H  241 0.964    C  233 0.938
   233  C   3.948        O  234 1.593    N  246 1.333    C  232 0.938
   234  O   1.950        C  233 1.593    N  246 0.194
   235  C   3.994        C  236 1.000    C  232 0.974    H  242 0.971    H  243 0.970
   236  C   3.992        C  235 1.000    H  244 0.981    H  245 0.969    C  237 0.920
   237  C   3.931        O  238 1.541    O  239 1.439    C  236 0.920
   238  O   1.829        C  237 1.541    O  239 0.208
   239  O   1.781        C  237 1.439    O  238 0.208
   240  H   0.973        N  231 0.955
   241  H   0.999        C  232 0.964
   242  H   0.998        C  235 0.971
   243  H   1.000        C  235 0.970
   244  H   1.000        C  236 0.981
   245  H   0.999        C  236 0.969
   246  N   3.501        C  233 1.333    C  247 0.979    H  253 0.922    O  234 0.194
   247  C   3.954        N  246 0.979    C  250 0.950    H  254 0.941    C  248 0.941
   248  C   3.949        O  249 1.625    N  262 1.305    C  247 0.941
   249  O   1.946        C  248 1.625    N  262 0.197
   250  C   3.985        C  252 1.010    C  251 1.008    H  255 0.963    C  247 0.950
   251  C   3.992        C  250 1.008    H  258 0.986    H  257 0.985    H  256 0.983
   252  C   3.994        C  250 1.010    H  261 0.985    H  260 0.983    H  259 0.983
   253  H   0.961        N  246 0.922
   254  H   0.992        C  247 0.941
   255  H   0.996        C  250 0.963
   256  H   0.995        C  251 0.983
   257  H   0.998        C  251 0.985
   258  H   0.998        C  251 0.986
   259  H   0.996        C  252 0.983
   260  H   0.998        C  252 0.983
   261  H   0.999        C  252 0.985
   262  N   3.470        C  248 1.305    C  263 0.985    H  269 0.893    O  249 0.197
   263  C   3.964        N  262 0.985    H  270 0.952    C  264 0.949    C  266 0.945
   264  C   3.951        O  265 1.629    N  278 1.291    C  263 0.949
   265  O   1.991        C  264 1.629    N  278 0.194
   266  C   3.990        C  267 1.010    C  268 1.008    H  271 0.964    C  263 0.945
   267  C   3.994        C  266 1.010    H  273 0.981    H  274 0.980    H  272 0.979
   268  C   3.991        C  266 1.008    H  276 0.982    H  277 0.978    H  275 0.974
   269  H   0.948        N  262 0.893
   270  H   0.994        C  263 0.952
   271  H   0.999        C  266 0.964
   272  H   0.999        C  267 0.979
   273  H   0.998        C  267 0.981
   274  H   0.997        C  267 0.980
   275  H   0.998        C  268 0.974
   276  H   0.997        C  268 0.982
   277  H   0.996        C  268 0.978
   278  N   3.468        C  264 1.291    C  279 0.980    H  284 0.924    O  265 0.194
   279  C   3.957        N  278 0.980    C  282 0.977    H  285 0.947    C  280 0.921
   280  C   3.955        O  281 1.633    N  289 1.322    C  279 0.921
   281  O   1.955        C  280 1.633    N  289 0.206
   282  C   3.959        O  283 1.005    C  279 0.977    H  286 0.968    H  287 0.967
   283  O   1.920        C  282 1.005    H  288 0.861
   284  H   0.957        N  278 0.924
   285  H   0.991        C  279 0.947
   286  H   0.998        C  282 0.968
   287  H   0.998        C  282 0.967
   288  H   0.874        O  283 0.861
   289  N   3.491        C  280 1.322    C  290 0.976    H  297 0.892    O  281 0.206
   290  C   3.961        N  289 0.976    H  298 0.956    C  293 0.955    C  291 0.937
   291  C   3.951        O  292 1.625    N  308 1.306    C  290 0.937
   292  O   1.965        C  291 1.625    N  308 0.196
   293  C   3.988        C  295 1.008    C  294 0.995    H  299 0.960    C  290 0.955
   294  C   3.996        C  296 1.018    C  293 0.995    H  300 0.976    H  301 0.974
   295  C   3.992        C  293 1.008    H  304 0.982    H  303 0.982    H  302 0.982
   296  C   3.994        C  294 1.018    H  305 0.986    H  307 0.984    H  306 0.982
   297  H   0.948        N  289 0.892
   298  H   0.995        C  290 0.956
   299  H   0.998        C  293 0.960
   300  H   0.998        C  294 0.976
   301  H   0.999        C  294 0.974
   302  H   0.997        C  295 0.982
   303  H   0.998        C  295 0.982
   304  H   0.997        C  295 0.982
   305  H   0.999        C  296 0.986
   306  H   0.998        C  296 0.982
   307  H   0.998        C  296 0.984
   308  N   3.479        C  291 1.306    C  309 0.985    H  312 0.924    O  292 0.196
   309  C   3.957        N  308 0.985    H  313 0.963    H  314 0.962    C  310 0.939
   310  C   3.950        O  311 1.654    N  315 1.294    C  309 0.939
   311  O   1.972        C  310 1.654    N  315 0.202
   312  H   0.952        N  308 0.924
   313  H   0.989        C  309 0.963
   314  H   0.992        C  309 0.962
   315  N   3.473        C  310 1.294    C  316 0.999    H  319 0.917    O  311 0.202
   316  C   3.960        N  315 0.999    C  317 0.954    H  321 0.947    H  320 0.943
   317  C   3.955        O  318 1.627    N  322 1.306    C  316 0.954
   318  O   1.948        C  317 1.627    N  322 0.199
   319  H   0.950        N  315 0.917
   320  H   0.990        C  316 0.943
   321  H   0.990        C  316 0.947
   322  N   3.480        C  317 1.306    C  323 0.991    H  331 0.896    O  318 0.199
   323  C   3.965        N  322 0.991    C  326 0.961    H  332 0.945    C  324 0.941
   324  C   3.942        O  325 1.626    N  344 1.290    C  323 0.941
   325  O   1.981        C  324 1.626    N  344 0.190
   326  C   3.982        C  327 1.004    H  333 0.972    H  334 0.971    C  323 0.961
   327  C   3.991        C  328 1.006    C  326 1.004    H  335 0.973    H  336 0.971
   328  C   3.982        C  329 1.014    C  327 1.006    H  338 0.964    H  337 0.961
   329  C   3.911        C  328 1.014    H  339 0.964    H  340 0.963    N  330 0.950
   330  N   3.665        C  329 0.950    H  342 0.898    H  343 0.896    H  341 0.896
   331  H   0.951        N  322 0.896
   332  H   0.993        C  323 0.945
   333  H   0.995        C  326 0.972
   334  H   0.996        C  326 0.971
   335  H   0.996        C  327 0.973
   336  H   0.997        C  327 0.971
   337  H   0.991        C  328 0.961
   338  H   0.993        C  328 0.964
   339  H   0.984        C  329 0.964
   340  H   0.985        C  329 0.963
   341  H   0.909        N  330 0.896
   342  H   0.917        N  330 0.898
   343  H   0.912        N  330 0.896
   344  N   3.463        C  324 1.290    C  345 0.984    H  351 0.917    O  325 0.190
   345  C   3.959        N  344 0.984    C  348 0.956    H  352 0.936    C  346 0.933
   346  C   3.952        O  347 1.638    N  358 1.310    C  345 0.933
   347  O   1.958        C  346 1.638    N  358 0.204
   348  C   3.952        C  350 1.004    O  349 0.985    H  353 0.959    C  345 0.956
   349  O   1.930        C  348 0.985    H  354 0.875
   350  C   3.990        C  348 1.004    H  355 0.982    H  357 0.980    H  356 0.979
   351  H   0.955        N  344 0.917
   352  H   0.990        C  345 0.936
   353  H   0.999        C  348 0.959
   354  H   0.891        O  349 0.875
   355  H   0.997        C  350 0.982
   356  H   0.997        C  350 0.979
   357  H   0.995        C  350 0.980
   358  N   3.487        C  346 1.310    C  359 0.992    H  370 0.902    O  347 0.204
   359  C   3.964        N  358 0.992    C  362 0.956    H  371 0.944    C  360 0.940
   360  C   3.942        O  361 1.633    N  379 1.285    C  359 0.940
   361  O   1.977        C  360 1.633    N  379 0.186
   362  C   3.988        C  363 1.005    H  372 0.972    H  373 0.961    C  359 0.956
   363  C   3.986        C  365 1.413    C  364 1.402    C  362 1.005
   364  C   3.989        C  366 1.462    C  363 1.402    H  374 0.967    C  367 0.106
   365  C   3.991        C  367 1.448    C  363 1.413    H  375 0.965    C  366 0.106
   366  C   3.985        C  364 1.462    C  368 1.362    H  376 0.965    C  365 0.106
   367  C   3.988        C  365 1.448    C  368 1.374    H  377 0.960    C  364 0.106
   368  C   3.946        C  367 1.374    C  366 1.362    O  369 1.078
   369  O   2.112        C  368 1.078    H  378 0.867
   370  H   0.953        N  358 0.902
   371  H   0.990        C  359 0.944
   372  H   0.998        C  362 0.972
   373  H   0.994        C  362 0.961
   374  H   0.997        C  364 0.967
   375  H   0.999        C  365 0.965
   376  H   0.994        C  366 0.965
   377  H   0.999        C  367 0.960
   378  H   0.889        O  369 0.867
   379  N   3.445        C  360 1.285    C  380 0.977    H  384 0.916    O  361 0.186
   380  C   3.963        C  383 0.988    N  379 0.977    H  385 0.955    C  381 0.936
   381  C   3.938        O  382 1.604    N  389 1.310    C  380 0.936
   382  O   1.962        C  381 1.604    N  389 0.190
   383  C   3.974        C  380 0.988    H  386 0.981    H  388 0.979    H  387 0.975
   384  H   0.949        N  379 0.916
   385  H   0.994        C  380 0.955
   386  H   0.994        C  383 0.981
   387  H   0.990        C  383 0.975
   388  H   0.993        C  383 0.979
   389  N   3.464        C  381 1.310    C  390 0.985    H  394 0.875    O  382 0.190
   390  C   3.977        C  393 0.993    N  389 0.985    H  395 0.951    C  391 0.942
   391  C   3.945        O  392 1.592    N  399 1.311    C  390 0.942
   392  O   1.955        C  391 1.592    N  399 0.188
   393  C   3.989        C  390 0.993    H  396 0.982    H  398 0.981    H  397 0.978
   394  H   0.943        N  389 0.875
   395  H   0.996        C  390 0.951
   396  H   0.998        C  393 0.982
   397  H   0.996        C  393 0.978
   398  H   0.996        C  393 0.981
   399  N   3.474        C  391 1.311    C  400 0.981    H  405 0.915    O  392 0.188
   400  C   3.962        N  399 0.981    C  403 0.975    H  406 0.952    C  401 0.927
   401  C   3.954        O  402 1.637    N  410 1.308    C  400 0.927
   402  O   1.955        C  401 1.637    N  410 0.198
   403  C   3.966        O  404 1.017    C  400 0.975    H  408 0.965    H  407 0.965
   404  O   1.926        C  403 1.017    H  409 0.848
   405  H   0.949        N  399 0.915
   406  H   0.997        C  400 0.952
   407  H   0.996        C  403 0.965
   408  H   0.998        C  403 0.965
   409  H   0.861        O  404 0.848
   410  N   3.471        C  401 1.308    C  411 0.982    H  419 0.886    O  402 0.198
   411  C   3.952        N  410 0.982    C  414 0.970    H  420 0.940    C  412 0.931
   412  C   3.940        O  413 1.652    N  432 1.275    C  411 0.931
   413  O   1.967        C  412 1.652    N  432 0.190
   414  C   3.976        C  415 1.004    C  411 0.970    H  421 0.969    H  422 0.968
   415  C   3.986        C  416 1.006    C  414 1.004    H  423 0.974    H  424 0.969
   416  C   3.987        C  417 1.015    C  415 1.006    H  426 0.969    H  425 0.962
   417  C   3.914        C  416 1.015    H  428 0.965    H  427 0.961    N  418 0.952
   418  N   3.664        C  417 0.952    H  430 0.898    H  431 0.897    H  429 0.894
   419  H   0.950        N  410 0.886
   420  H   0.991        C  411 0.940
   421  H   0.996        C  414 0.969
   422  H   0.994        C  414 0.968
   423  H   0.995        C  415 0.974
   424  H   0.991        C  415 0.969
   425  H   0.993        C  416 0.962
   426  H   0.996        C  416 0.969
   427  H   0.983        C  417 0.961
   428  H   0.985        C  417 0.965
   429  H   0.907        N  418 0.894
   430  H   0.915        N  418 0.898
   431  H   0.910        N  418 0.897
   432  N   3.452        C  412 1.275    C  433 0.992    H  437 0.902    O  413 0.190
   433  C   3.969        N  432 0.992    C  436 0.987    H  438 0.950    C  434 0.931
   434  C   3.938        O  435 1.585    N  442 1.329    C  433 0.931
   435  O   1.960        C  434 1.585    N  442 0.190
   436  C   3.987        C  433 0.987    H  441 0.982    H  439 0.982    H  440 0.978
   437  H   0.959        N  432 0.902
   438  H   0.991        C  433 0.950
   439  H   0.996        C  436 0.982
   440  H   0.993        C  436 0.978
   441  H   0.998        C  436 0.982
   442  N   3.482        C  434 1.329    C  443 0.977    H  451 0.893    O  435 0.190
   443  C   3.971        C  446 0.981    N  442 0.977    H  452 0.949    C  444 0.939
   444  C   3.950        O  445 1.633    N  457 1.297    C  443 0.939
   445  O   1.941        C  444 1.633    N  457 0.195
   446  C   3.993        C  447 1.010    C  443 0.981    H  454 0.971    H  453 0.970
   447  C   3.988        C  446 1.010    H  455 0.980    H  456 0.968    C  448 0.908
   448  C   3.934        O  449 1.506    O  450 1.499    C  447 0.908
   449  O   1.799        C  448 1.506    O  450 0.217
   450  O   1.791        C  448 1.499    O  449 0.217
   451  H   0.951        N  442 0.893
   452  H   0.998        C  443 0.949
   453  H   0.997        C  446 0.970
   454  H   0.998        C  446 0.971
   455  H   1.000        C  447 0.980
   456  H   0.999        C  447 0.968
   457  N   3.465        C  444 1.297    C  458 0.994    H  461 0.899    O  445 0.195
   458  C   3.963        N  457 0.994    C  459 0.955    H  463 0.950    H  462 0.950
   459  C   3.955        O  460 1.612    N  464 1.323    C  458 0.955
   460  O   1.925        C  459 1.612    N  464 0.197
   461  H   0.955        N  457 0.899
   462  H   0.991        C  458 0.950
   463  H   0.993        C  458 0.950
   464  N   3.482        C  459 1.323    C  465 0.978    H  474 0.875    O  460 0.197
   465  C   3.965        C  466 0.979    N  464 0.978    H  475 0.949    C  468 0.945
   466  C   3.898        O  467 1.878    C  465 0.979    H  506 0.952
   467  O   2.058        C  466 1.878
   468  C   3.983        C  469 1.008    H  477 0.971    H  476 0.960    C  465 0.945
   469  C   3.975        C  471 1.554    N  470 1.280    C  468 1.008
   470  N   3.018        C  472 1.544    C  469 1.280    N  473 0.104
   471  C   3.944        C  469 1.554    N  473 1.218    H  478 0.961    C  472 0.119
   472  C   3.954        N  470 1.544    N  473 1.271    H  479 0.963    C  471 0.119
   473  N   3.597        C  472 1.271    C  471 1.218    H  480 0.926    N  470 0.104
   474  H   0.950        N  464 0.875
   475  H   0.993        C  465 0.949
   476  H   0.995        C  468 0.960
   477  H   0.997        C  468 0.971
   478  H   0.998        C  471 0.961
   479  H   0.996        C  472 0.963
   480  H   0.956        N  473 0.926
   481  N   3.005        C  482 1.027    H  507 0.957    H  492 0.950
   482  C   3.987        N  481 1.027    C  483 0.979    C  485 0.943    H  493 0.939
   483  C   3.890        O  484 1.886    C  482 0.979    H  508 0.953
   484  O   2.028        C  483 1.886
   485  C   3.989        C  486 1.011    H  495 0.966    H  494 0.952    C  482 0.943
   486  C   3.988        C  487 1.410    C  488 1.403    C  485 1.011    C  491 0.109
   487  C   3.990        C  489 1.440    C  486 1.410    H  496 0.965    C  490 0.110
   488  C   3.990        C  490 1.450    C  486 1.403    H  497 0.968    C  489 0.111
   489  C   3.992        C  491 1.441    C  487 1.440    H  498 0.970    C  488 0.111
   490  C   3.990        C  488 1.450    C  491 1.432    H  499 0.968    C  487 0.110
   491  C   3.989        C  489 1.441    C  490 1.432    H  500 0.970    C  486 0.109
   492  H   0.973        N  481 0.950
   493  H   0.996        C  482 0.939
   494  H   0.996        C  485 0.952
   495  H   0.998        C  485 0.966
   496  H   0.999        C  487 0.965
   497  H   0.998        C  488 0.968
   498  H   0.999        C  489 0.970
   499  H   0.997        C  490 0.968
   500  H   0.998        C  491 0.970
   501  H   0.966        N    1 0.945
   502  H   0.993        C  131 0.950
   503  H   0.966        N  141 0.953
   504  H   0.992        C  219 0.952
   505  H   0.966        N  231 0.954
   506  H   0.994        C  466 0.952
   507  H   0.972        N  481 0.957
   508  H   0.994        C  483 0.953
 
molecular dipole:
                 x           y           z       tot (Debye)
 q only:      314.188      82.350     211.305
   full:      316.101      85.398     209.013     987.380
molecular quadrupole (traceless):
                xx          xy          yy          xz          yz          zz
 q only:    73807.047   37836.240  -66113.941  100398.991   25845.354   -7693.106
  q+dip:    75135.753   39672.514  -65507.467   99828.935   26390.037   -9628.286
   full:    75130.849   39671.698  -65504.639   99827.896   26393.164   -9626.210


           -------------------------------------------------
          | TOTAL ENERGY             -802.005110733654 Eh   |
          | GRADIENT NORM               0.449491560532 Eh/α |
          | HOMO-LUMO GAP               1.318858924885 eV   |
           -------------------------------------------------

------------------------------------------------------------------------
 * finished run on 2019/05/31 at 05:35:03.961     
------------------------------------------------------------------------
 total:
 * wall-time:     0 d,  0 h,  0 min, 12.524 sec
 *  cpu-time:     0 d,  0 h,  0 min, 24.794 sec
 * ratio c/w:     1.980 speedup
 SCF:
 * wall-time:     0 d,  0 h,  0 min, 11.858 sec
 *  cpu-time:     0 d,  0 h,  0 min, 23.680 sec
 * ratio c/w:     1.997 speedup

