      -----------------------------------------------------------      
     |                   =====================                   |     
     |                           x T B                           |     
     |                   =====================                   |     
     |                         S. Grimme                         |     
     |          Mulliken Center for Theoretical Chemistry        |     
     |                    University of Bonn                     |     
     |                 Version 6.0.1 (SAW181210)                 |     
      -----------------------------------------------------------      

   This program is distributed in the hope that it will be useful,
   but WITHOUT ANY WARRANTY; without even the implied warranty of
   MERCHANTABILITY or FITNESS FOR A PARTICULAR PURPOSE.
   
   FOR NON-COMMERCIAL, ACADEMIA USE ONLY.
   
   Cite this work as:
   S. Grimme, C. Bannwarth, P. Shushkov, J. Comput. Theory Chem., 2017,
   13, 1989-2009.
   C. Bannwarth, S. Ehlert and S. Grimme., ChemRxiv, 2018, preprint.
   http://doi.org/10.26434/chemrxiv.7246238.v1
   
   for sTDA-xTB:
   S. Grimme and C. Bannwarth, J. Chem. Phys., 2016, 145, 054103.
   
   in the mass-spec context:
   V. Asgeirsson, C. Bauer and S. Grimme, Chem. Sci., 2017, 8, 4879.
   
   if GBSA is used:
   P. Shushkov, F. März and S. Grimme, unpublished.
   
   for ANC optimizer:
   S. Grimme, unpublished.
   Rational Function algorithm used in ANCopt:
   F. Eckert, P. Pulay, H.-J. Werner, J. Comput. Chem., 1997, 18, 1473.
   
   with help from (in alphabetical order)
   C. Bannwarth, F. Bohle, G. Brandenburg, E. Caldeweyher, M. Checinski,
   S. Dohm, S. Ehlert, S. Ehrlich, F. März, H. Neugebauer, J. Pisarek,
   P. Pracht, P. Shushkov, and S. Spicher.
   
 * started run on 2019/02/13 at 00:17:02.134     
========================================================================
 # omp threads = 16
========================================================================
number of atoms            : 301
number of electrons        : 812
charge                     : 1
spin                       : .0
first test random number   : .9564

########################################################################
# WARNING! Please study the warnings concerning your input carefully
#  - Process number higher than OMP_NUM_THREADS, I hope you know what you are doing.
########################################################################

           ------------------------------------------------- 
          |                 G F N 2 - x T B                 |
          | Geometry, Frequencies, Noncovalent interactions |
          |            JCTC 2018 parametrisation            |
           ------------------------------------------------- 
 
      method parameters     
 k(s)        :  1.8500
 k(p)        :  2.2300
 k(d)        :  2.2300
 k(f)        :  2.0000
 kEN (H0ij)  : -2.0000
 D4 a1       :  0.5200
 D4 a2       :  5.0000
 D4 s6       :  1.0000
 D4 s8       :  2.7000
 D4 s9       :  5.0000
 alphaj      :  2.0000

 Solvent             : h2o
 Using internal parameter file: .param_gbsa2_h2o
 Gsolv ref. state (COSMO-RS): gsolv [1 M gas/solution]
 temperature (mdtemp)       :    298.150000000000     
 dielectric constant        :    80.2000000000000     
 rho                        :    1.00000000000000     
 mass                       :    18.0000000000000     
 surface tension            :    15.5689454083859     
 probe radius               :   0.975313790000000     
 vdW radii scaling          :    1.00000000000000     
 Gshift (Eh)                :   1.857443126794793E-003
 c1                         :    1.55243817000000     
 soset                      :   0.130326360000000     
 HB correction              :  T

            Z     q(EN)     CN     RAES       Cart. coordinates
     1  N   5.0   -0.11    4.14    3.26   183.81941   104.85731   385.44186
     2  C   4.0    0.00    4.25    4.10   182.03380   104.01674   383.43605
     3  C   4.0    0.14    3.43    3.09   183.42324   104.52158   380.91820
     4  O   6.0   -0.30    1.29    1.80   185.36483   105.78519   380.95536
     5  C   4.0   -0.07    4.10    3.80   179.58963   105.53970   383.55614
     6  H   1.0    0.06    1.02    1.43   182.97995   106.05699   386.72511
     7  H   1.0    0.07    1.02    1.43   184.64217   103.37882   386.39587
     8  H   1.0    0.09    1.08    1.44   185.23831   105.83457   384.42805
     9  H   1.0    0.05    1.04    1.43   181.61688   102.00322   383.60684
    10  H   1.0    0.05    1.00    1.43   178.30979   104.93466   382.07005
    11  H   1.0    0.05    1.00    1.43   178.64261   105.22634   385.35130
    12  H   1.0    0.05    1.00    1.43   179.96697   107.54819   383.33277
    13  N   5.0   -0.15    3.49    2.07   182.29984   103.60182   378.87336
    14  C   4.0    0.04    4.39    4.37   183.50770   103.59452   376.41945
    15  C   4.0    0.15    3.45    3.09   182.11986   105.23859   374.49236
    16  O   6.0   -0.31    1.34    1.80   182.26972   104.83918   372.21740
    17  C   4.0   -0.03    4.25    4.09   183.89233   100.88552   375.43784
    18  C   4.0   -0.03    4.21    4.03   181.53115    99.53239   374.43271
    19  C   4.0    0.16    3.21    3.04   179.61894    98.62818   376.37027
    20  O   6.0   -0.30    1.32    1.80   179.25543    99.64253   378.42837
    21  N   5.0   -0.18    3.19    1.95   178.26776    96.62792   375.65014
    22  H   1.0    0.12    1.15    1.45   180.87159   102.26955   379.03285
    23  H   1.0    0.06    1.06    1.44   185.38490   104.45964   376.65195
    24  H   1.0    0.06    1.03    1.43   185.23979   101.00204   373.88240
    25  H   1.0    0.06    1.03    1.43   184.74778    99.76817   376.94326
    26  H   1.0    0.06    1.03    1.43   180.53260   100.78554   373.12986
    27  H   1.0    0.04    1.03    1.43   182.16313    97.89883   373.34863
    28  H   1.0    0.09    1.03    1.43   178.52393    95.77801   373.97059
    29  H   1.0    0.11    1.03    1.43   176.91201    95.95706   376.81025
    30  N   5.0   -0.14    3.51    2.08   180.84792   107.21200   375.43139
    31  C   4.0    0.03    4.50    4.53   179.48714   108.96070   373.80326
    32  C   4.0    0.16    3.56    3.14   181.19090   109.69454   371.58607
    33  O   6.0   -0.32    1.34    1.80   180.42935   109.74172   369.39537
    34  C   4.0   -0.03    4.26    4.11   178.62464   111.31324   375.28959
    35  C   4.0   -0.07    4.13    3.86   177.44508   113.23784   373.48837
    36  C   4.0   -0.07    4.11    3.82   176.71525   110.59164   377.33224
    37  H   1.0    0.08    1.08    1.44   180.69268   107.43838   377.32027
    38  H   1.0    0.05    1.05    1.44   177.82430   108.01953   372.99396
    39  H   1.0    0.04    1.05    1.44   180.28324   112.17449   376.17716
    40  H   1.0    0.04    1.00    1.43   176.84595   114.90286   374.53049
    41  H   1.0    0.05    1.00    1.43   178.77969   113.82968   372.04190
    42  H   1.0    0.04    1.00    1.43   175.79909   112.43926   372.55236
    43  H   1.0    0.05    1.00    1.43   176.08550   112.28710   378.30435
    44  H   1.0    0.05    1.00    1.43   175.07181   109.69254   376.48941
    45  H   1.0    0.04    1.00    1.43   177.51357   109.31926   378.73076
    46  N   5.0   -0.14    3.53    2.10   183.55669   110.27541   372.23855
    47  C   4.0    0.03    4.48    4.51   185.51818   110.94101   370.44871
    48  C   4.0    0.17    3.53    3.13   185.08954   109.55914   367.94993
    49  O   6.0   -0.33    1.29    1.80   185.19941   110.66828   365.91219
    50  C   4.0   -0.02    4.34    4.28   188.20790   110.21900   371.36978
    51  C   4.0   -0.05    4.18    3.97   188.66234   110.86436   374.16006
    52  C   4.0   -0.07    4.14    3.88   190.11194   111.57660   369.66985
    53  C   4.0   -0.07    4.03    3.67   191.33493   110.17868   375.00411
    54  H   1.0    0.07    1.08    1.44   184.02656   110.37581   374.08586
    55  H   1.0    0.05    1.05    1.44   185.45264   112.98127   370.07066
    56  H   1.0    0.06    1.06    1.44   188.45135   108.17750   371.13559
    57  H   1.0    0.04    1.02    1.43   188.33363   112.87573   374.47768
    58  H   1.0    0.05    1.03    1.43   187.36873   109.78041   375.34822
    59  H   1.0    0.05    1.00    1.43   191.98668   110.78017   369.90182
    60  H   1.0    0.06    1.01    1.43   189.58775   111.38561   367.69261
    61  H   1.0    0.04    1.00    1.43   190.18447   113.58010   370.12542
    62  H   1.0    0.05    1.00    1.43   191.49114   110.35083   377.04464
    63  H   1.0    0.05    1.00    1.43   191.77084   108.24061   374.47681
    64  H   1.0    0.05    1.00    1.43   192.73294   111.41635   374.15459
    65  N   5.0   -0.12    3.59    2.15   184.79361   107.07016   368.16979
    66  C   4.0    0.04    4.42    4.41   184.87481   105.32448   366.07979
    67  C   4.0    0.15    3.44    3.09   182.63674   105.59887   364.26667
    68  O   6.0   -0.32    1.28    1.80   182.90571   105.19837   362.00172
    69  C   4.0   -0.03    4.32    4.24   184.93515   102.60917   367.08219
    70  C   4.0    0.16    3.22    3.04   187.28384   102.09938   368.68413
    71  O   6.0   -0.30    1.23    1.80   188.37466   103.74194   369.87642
    72  N   5.0   -0.19    3.18    1.95   187.97727    99.66690   368.76828
    73  H   1.0    0.12    1.12    1.45   184.54530   106.28043   369.89949
    74  H   1.0    0.06    1.05    1.44   186.58448   105.69585   364.96379
    75  H   1.0    0.06    1.03    1.43   183.28420   102.32071   368.28838
    76  H   1.0    0.05    1.03    1.43   184.84914   101.30442   365.49232
    77  H   1.0    0.10    1.03    1.43   189.53547    99.18815   369.75643
    78  H   1.0    0.09    1.03    1.43   187.13466    98.33935   367.70163
    79  N   5.0   -0.14    3.49    2.07   180.40522   106.15078   365.31915
    80  C   4.0    0.04    4.48    4.51   178.22034   106.53681   363.71408
    81  C   4.0    0.16    3.48    3.10   178.47172   109.02646   362.26512
    82  O   6.0   -0.30    1.27    1.80   178.00328   109.20618   360.00969
    83  C   4.0    0.05    4.21    4.01   175.71710   106.27012   365.18540
    84  O   6.0   -0.24    2.12    1.84   173.87317   105.68248   363.34989
    85  C   4.0   -0.07    4.07    3.75   175.00676   108.59944   366.72979
    86  H   1.0    0.11    1.09    1.44   180.34232   106.80056   367.12420
    87  H   1.0    0.07    1.07    1.44   178.21349   105.04693   362.27075
    88  H   1.0    0.05    1.04    1.43   175.95636   104.63937   366.46328
    89  H   1.0    0.12    1.03    1.43   172.22940   105.71466   364.14206
    90  H   1.0    0.05    1.00    1.43   173.33917   108.19472   367.86198
    91  H   1.0    0.06    1.01    1.43   176.54337   109.13282   367.98047
    92  H   1.0    0.05    1.00    1.43   174.57959   110.17271   365.47892
    93  N   5.0   -0.14    3.51    2.08   179.35446   110.98527   363.61333
    94  C   4.0    0.04    4.48    4.51   179.91766   113.31201   362.28868
    95  C   4.0    0.17    3.52    3.12   181.87534   112.78687   360.22056
    96  O   6.0   -0.31    1.29    1.80   181.69173   113.69175   358.09809
    97  C   4.0   -0.04    4.30    4.20   180.89449   115.37559   364.05342
    98  C   4.0    0.15    3.26    3.05   180.94707   117.82971   362.53376
    99  O   6.0   -0.30    1.21    1.80   179.01273   118.83072   361.78461
   100  N   5.0   -0.19    3.18    1.95   183.24792   118.78544   362.08452
   101  H   1.0    0.10    1.07    1.44   179.79578   110.82646   365.46745
   102  H   1.0    0.07    1.06    1.44   178.20092   113.98523   361.33451
   103  H   1.0    0.04    1.03    1.43   179.56274   115.60339   365.61038
   104  H   1.0    0.05    1.03    1.43   182.75183   114.87805   364.78797
   105  H   1.0    0.09    1.03    1.43   183.38868   120.33907   360.98991
   106  H   1.0    0.08    1.03    1.43   184.84594   117.89543   362.59916
   107  N   5.0   -0.14    3.52    2.09   183.78229   111.30523   360.94555
   108  C   4.0    0.05    4.41    4.40   185.77640   110.63389   359.20609
   109  C   4.0    0.17    3.50    3.12   184.65792   109.43626   356.82648
   110  O   6.0   -0.31    1.36    1.80   185.29692   110.16970   354.73057
   111  C   4.0    0.04    4.15    3.90   187.70024   108.86114   360.44139
   112  O   6.0   -0.25    2.06    1.83   189.81034   108.72283   358.83898
   113  H   1.0    0.12    1.12    1.45   184.03313   110.84106   362.80071
   114  H   1.0    0.06    1.05    1.44   186.79244   112.33156   358.57155
   115  H   1.0    0.05    1.01    1.43   188.21814   109.65469   362.28929
   116  H   1.0    0.06    1.01    1.43   186.83548   106.99353   360.70555
   117  H   1.0    0.12    1.02    1.43   191.10570   107.69429   359.62111
   118  N   5.0   -0.13    3.51    2.09   182.96395   107.60912   357.18343
   119  C   4.0    0.03    4.43    4.42   181.74977   106.37391   355.04616
   120  C   4.0    0.16    3.54    3.13   180.87463   108.38936   353.17379
   121  O   6.0   -0.31    1.27    1.80   181.46615   108.34204   350.93506
   122  C   4.0   -0.04    4.33    4.26   179.60929   104.70625   356.05044
   123  C   4.0   -0.02    4.16    3.93   178.07869   103.24005   354.06510
   124  C   4.0   -0.07    4.10    3.81   176.16333   104.90977   352.69535
   125  C   4.0   -0.07    4.11    3.81   179.77026   101.88415   352.15964
   126  H   1.0    0.11    1.10    1.44   182.62104   106.89422   358.93079
   127  H   1.0    0.05    1.05    1.44   183.15421   105.22324   354.04246
   128  H   1.0    0.05    1.03    1.43   180.48965   103.35076   357.33524
   129  H   1.0    0.06    1.03    1.43   178.32604   105.88797   357.15176
   130  H   1.0    0.05    1.06    1.44   177.01016   101.80918   355.11311
   131  H   1.0    0.05    1.00    1.43   174.91450   103.74873   351.54864
   132  H   1.0    0.05    1.00    1.43   175.02189   105.96301   354.04062
   133  H   1.0    0.06    1.01    1.43   177.10529   106.23926   351.44617
   134  H   1.0    0.05    1.00    1.43   178.64292   100.63445   350.98210
   135  H   1.0    0.05    1.00    1.43   180.69857   103.24179   350.92694
   136  H   1.0    0.04    1.00    1.43   181.19932   100.75924   353.11504
   137  N   5.0   -0.14    3.50    2.08   179.41505   110.21461   354.14527
   138  C   4.0    0.05    4.41    4.40   178.56600   112.27080   352.55309
   139  C   4.0    0.17    3.51    3.12   180.81714   113.53141   351.23564
   140  O   6.0   -0.32    1.30    1.80   180.87592   113.88457   348.93975
   141  C   4.0    0.04    4.16    3.92   177.10070   114.21503   354.11350
   142  O   6.0   -0.25    2.06    1.83   176.41831   116.22370   352.50619
   143  H   1.0    0.11    1.07    1.44   178.97298   110.22485   356.00448
   144  H   1.0    0.06    1.05    1.44   177.34227   111.54251   351.04182
   145  H   1.0    0.05    1.01    1.43   175.42042   113.29154   354.90462
   146  H   1.0    0.06    1.02    1.43   178.30181   114.88347   355.66479
   147  H   1.0    0.12    1.02    1.43   175.37707   117.39575   353.43482
   148  N   5.0   -0.13    3.53    2.10   182.69908   114.22453   352.74623
   149  C   4.0    0.04    4.45    4.46   184.89317   115.47784   351.71194
   150  C   4.0    0.16    3.48    3.10   186.26711   113.88126   349.74015
   151  O   6.0   -0.32    1.33    1.80   187.60292   114.92777   348.14188
   152  C   4.0   -0.04    4.36    4.31   186.76257   116.25961   353.76707
   153  C   4.0   -0.02    4.17    3.94   185.75960   118.29733   355.57278
   154  C   4.0   -0.07    4.11    3.82   187.89973   119.07850   357.34864
   155  C   4.0   -0.07    4.11    3.83   184.77868   120.59595   354.12572
   156  H   1.0    0.12    1.10    1.44   182.60017   113.95791   354.64226
   157  H   1.0    0.05    1.06    1.44   184.24910   117.16480   350.69100
   158  H   1.0    0.06    1.03    1.43   187.29705   114.56763   354.81690
   159  H   1.0    0.05    1.03    1.43   188.44275   116.98587   352.81405
   160  H   1.0    0.06    1.05    1.44   184.20561   117.50884   356.68770
   161  H   1.0    0.04    1.00    1.43   187.26825   120.55135   358.63106
   162  H   1.0    0.05    1.00    1.43   188.56972   117.47497   358.44356
   163  H   1.0    0.05    1.00    1.43   189.47408   119.81902   356.25777
   164  H   1.0    0.04    1.00    1.43   184.55907   122.21569   355.36878
   165  H   1.0    0.04    1.00    1.43   186.10443   121.12887   352.64741
   166  H   1.0    0.04    1.00    1.43   182.94736   120.21045   353.27676
   167  N   5.0   -0.13    3.56    2.12   185.98344   111.39375   349.80825
   168  C   4.0    0.04    4.45    4.47   187.17089   109.82600   347.91974
   169  C   4.0    0.16    3.47    3.10   185.92841   110.22170   345.34713
   170  O   6.0   -0.32    1.30    1.80   187.17939   110.10456   343.39505
   171  C   4.0   -0.04    4.35    4.29   187.11658   107.03948   348.66792
   172  C   4.0   -0.02    4.18    3.96   188.71586   106.44596   351.01527
   173  C   4.0   -0.07    4.11    3.81   188.46105   103.63893   351.63790
   174  C   4.0   -0.07    4.11    3.81   191.49572   107.12632   350.63592
   175  H   1.0    0.12    1.12    1.45   185.01125   110.55133   351.22441
   176  H   1.0    0.05    1.06    1.44   189.13201   110.45673   347.68167
   177  H   1.0    0.06    1.03    1.43   185.15078   106.52588   349.02182
   178  H   1.0    0.05    1.03    1.43   187.80463   105.93455   347.06740
   179  H   1.0    0.07    1.06    1.44   187.98736   107.55314   352.60013
   180  H   1.0    0.05    1.00    1.43   189.43347   103.20671   353.39341
   181  H   1.0    0.04    1.00    1.43   186.48381   103.11603   351.83623
   182  H   1.0    0.05    1.00    1.43   189.27894   102.49987   350.13599
   183  H   1.0    0.05    1.00    1.43   192.61142   106.39823   352.19751
   184  H   1.0    0.05    1.00    1.43   192.20632   106.31293   348.88656
   185  H   1.0    0.05    1.00    1.43   191.74619   109.16431   350.58476
   186  N   5.0   -0.14    3.50    2.08   183.44577   110.68985   345.34204
   187  C   4.0    0.05    4.49    4.52   182.24413   111.41089   342.99369
   188  C   4.0    0.16    3.50    3.11   183.23604   114.00454   342.16681
   189  O   6.0   -0.32    1.31    1.80   183.87198   114.39448   339.96954
   190  C   4.0    0.06    4.20    4.00   179.33823   111.18379   343.06063
   191  O   6.0   -0.24    2.12    1.84   178.64616   110.26014   340.65096
   192  C   4.0   -0.06    4.08    3.77   177.97247   113.63760   343.70120
   193  H   1.0    0.11    1.09    1.44   182.48987   110.93076   346.98468
   194  H   1.0    0.07    1.07    1.44   182.86388   110.07989   341.52534
   195  H   1.0    0.05    1.04    1.43   178.87839   109.74988   344.50195
   196  H   1.0    0.12    1.03    1.43   176.83917   110.41470   340.46186
   197  H   1.0    0.05    1.00    1.43   175.93999   113.32632   343.69909
   198  H   1.0    0.07    1.01    1.43   178.52047   114.27637   345.56975
   199  H   1.0    0.06    1.00    1.43   178.41835   115.09127   342.31888
   200  N   5.0   -0.14    3.50    2.08   183.51704   115.73292   343.98204
   201  C   4.0    0.05    4.44    4.45   184.75347   118.11505   343.40016
   202  C   4.0    0.17    3.50    3.12   187.30393   117.60693   342.13920
   203  O   6.0   -0.29    1.24    1.80   188.05140   118.92549   340.38580
   204  C   4.0   -0.04    4.29    4.17   185.18279   119.72793   345.75664
   205  C   4.0   -0.04    4.21    4.02   182.75663   121.04941   346.64632
   206  C   4.0    0.16    3.23    3.04   182.31840   123.37037   345.00252
   207  O   6.0   -0.28    1.20    1.80   181.71193   123.22393   342.78255
   208  N   5.0   -0.18    3.18    1.95   182.75434   125.57895   346.17339
   209  H   1.0    0.10    1.07    1.44   182.86151   115.40160   345.75161
   210  H   1.0    0.07    1.06    1.44   183.61161   119.19152   342.04001
   211  H   1.0    0.06    1.04    1.43   185.96350   118.52343   347.23299
   212  H   1.0    0.06    1.03    1.43   186.60044   121.15520   345.29400
   213  H   1.0    0.05    1.03    1.43   181.15017   119.77139   346.46327
   214  H   1.0    0.04    1.03    1.43   182.94452   121.61225   348.61626
   215  H   1.0    0.08    1.03    1.43   183.22687   125.64294   348.01179
   216  H   1.0    0.10    1.02    1.43   182.65580   127.24125   345.23716
   217  N   5.0   -0.13    3.53    2.10   188.64403   115.68088   343.07103
   218  C   4.0    0.06    4.46    4.48   191.14311   115.16799   342.08579
   219  C   4.0    0.16    3.43    3.09   191.09797   113.98277   339.44552
   220  O   6.0   -0.26    1.23    1.80   192.95159   114.14657   338.07322
   221  C   4.0   -0.02    4.30    4.20   192.70700   113.56633   343.90035
   222  C   4.0    0.16    3.22    3.04   193.88211   115.20224   345.96553
   223  O   6.0   -0.27    1.22    1.80   194.16774   117.48264   345.73352
   224  N   5.0   -0.18    3.18    1.95   194.66560   113.93426   348.00389
   225  H   1.0    0.12    1.11    1.45   188.17892   114.96335   344.79594
   226  H   1.0    0.09    1.07    1.44   192.11160   116.99230   341.85349
   227  H   1.0    0.06    1.03    1.43   191.53563   112.06583   344.68402
   228  H   1.0    0.06    1.03    1.43   194.25381   112.70510   342.83711
   229  H   1.0    0.10    1.03    1.43   195.51407   114.88525   349.41797
   230  H   1.0    0.08    1.03    1.43   194.47903   112.04736   348.14205
   231  N   5.0   -0.13    3.52    2.09   188.99262   112.76360   338.77687
   232  C   4.0    0.04    4.43    4.43   188.60341   111.98105   336.17920
   233  C   4.0    0.16    3.47    3.10   188.43246   114.35420   334.51677
   234  O   6.0   -0.25    1.24    1.80   189.67945   114.57000   332.57311
   235  C   4.0   -0.03    4.29    4.18   186.24872   110.32762   335.89760
   236  C   4.0    0.16    3.21    3.04   186.81939   107.56169   336.48515
   237  O   6.0   -0.26    1.20    1.80   186.76737   105.94066   334.84146
   238  N   5.0   -0.17    3.20    1.95   187.43151   107.04317   338.88332
   239  H   1.0    0.11    1.10    1.44   187.49218   112.71245   339.95962
   240  H   1.0    0.08    1.06    1.44   190.28125   110.94301   335.54008
   241  H   1.0    0.06    1.03    1.43   184.74572   111.04182   337.11440
   242  H   1.0    0.07    1.03    1.43   185.60091   110.39992   333.94249
   243  H   1.0    0.11    1.03    1.43   187.83111   105.23433   339.31996
   244  H   1.0    0.12    1.06    1.44   187.42172   108.34242   340.28739
   245  N   5.0   -0.14    3.48    2.07   186.96369   116.20080   335.39259
   246  C   4.0    0.05    4.35    4.29   186.92788   118.62547   334.11095
   247  C   4.0    0.12    3.26    3.05   189.60885   119.70537   334.01502
   248  O   6.0   -0.24    1.11    1.80   190.42599   120.73117   332.10019
   249  C   4.0   -0.04    4.33    4.25   185.12256   120.49029   335.37739
   250  C   4.0   -0.02    4.16    3.93   182.34910   120.24412   334.55630
   251  C   4.0   -0.06    4.10    3.80   181.97091   121.15133   331.84066
   252  C   4.0   -0.06    4.11    3.82   181.32565   117.56395   334.86547
   253  H   1.0    0.11    1.08    1.44   185.87222   115.95868   336.94557
   254  H   1.0    0.06    1.06    1.44   186.37612   118.33472   332.13282
   255  H   1.0    0.07    1.04    1.43   185.27910   120.25803   337.41819
   256  H   1.0    0.06    1.03    1.43   185.75625   122.40037   334.93022
   257  H   1.0    0.05    1.06    1.44   181.27258   121.49698   335.80355
   258  H   1.0    0.05    1.00    1.43   179.97019   121.18835   331.37711
   259  H   1.0    0.06    1.00    1.43   182.72492   123.04707   331.58917
   260  H   1.0    0.05    1.00    1.43   182.90520   119.90117   330.50352
   261  H   1.0    0.05    1.00    1.43   179.30706   117.54356   334.48442
   262  H   1.0    0.05    1.00    1.43   182.22983   116.27207   333.54852
   263  H   1.0    0.06    1.00    1.43   181.62560   116.87258   336.77561
   264  N   5.0   -0.15    3.42    2.03   175.40239   129.47046   358.96687
   265  C   4.0    0.03    4.39    4.36   175.30536   127.28548   360.64303
   266  C   4.0    0.09    3.19    3.03   177.31659   127.42810   362.69517
   267  O   6.0   -0.31    1.16    1.80   176.82616   126.80238   364.87554
   268  C   4.0   -0.04    4.32    4.23   175.64022   124.97089   358.92425
   269  C   4.0   -0.04    4.26    4.12   176.74843   126.07495   356.49965
   270  C   4.0   -0.01    4.32    4.24   175.50024   128.66797   356.35030
   271  H   1.0    0.05    1.05    1.44   173.48233   127.24598   361.62527
   272  H   1.0    0.06    1.02    1.43   176.84117   123.54431   359.79257
   273  H   1.0    0.05    1.02    1.43   173.79898   124.12973   358.55021
   274  H   1.0    0.04    1.02    1.43   178.78783   126.30880   356.65540
   275  H   1.0    0.04    1.02    1.43   176.32837   124.92894   354.84836
   276  H   1.0    0.05    1.02    1.43   176.57419   129.98117   355.20268
   277  H   1.0    0.04    1.02    1.43   173.57184   128.50700   355.61642
   278  N   5.0   -0.20    3.20    1.96   174.52846   126.33824   369.99698
   279  C   4.0    0.03    4.22    4.04   175.20321   124.33815   371.73427
   280  C   4.0    0.09    3.21    3.04   175.14218   125.21970   374.48614
   281  O   6.0   -0.27    1.11    1.80   174.39672   123.83383   376.18018
   282  C   4.0   -0.04    4.36    4.31   177.87310   123.36526   371.19866
   283  C   4.0   -0.02    4.18    3.96   178.19520   122.08053   368.62144
   284  C   4.0   -0.07    4.11    3.82   181.00059   121.53602   368.21807
   285  C   4.0   -0.07    4.10    3.79   176.64909   119.65861   368.38271
   286  H   1.0    0.11    1.05    1.44   175.51751   126.48800   368.36525
   287  H   1.0    0.05    1.05    1.44   173.82391   122.79320   371.59340
   288  H   1.0    0.05    1.03    1.43   179.16323   124.97497   371.30007
   289  H   1.0    0.05    1.03    1.43   178.37708   122.03730   372.69617
   290  H   1.0    0.07    1.07    1.44   177.58408   123.38653   367.14433
   291  H   1.0    0.05    1.01    1.43   181.29724   120.72632   366.35649
   292  H   1.0    0.05    1.00    1.43   182.07911   123.27819   368.37398
   293  H   1.0    0.04    1.00    1.43   181.68675   120.21406   369.63397
   294  H   1.0    0.05    1.00    1.43   176.84561   118.90595   366.48093
   295  H   1.0    0.04    1.00    1.43   177.28620   118.25308   369.74153
   296  H   1.0    0.05    1.00    1.43   174.65303   120.01235   368.70762
   297  H   1.0    0.08    1.05    1.44   190.73156   119.58299   335.53014
   298  H   1.0    0.09    1.15    1.45   173.91761   130.29779   359.02607
   299  H   1.0    0.06    1.04    1.44   179.05557   128.03554   362.27326
   300  H   1.0    0.10    1.07    1.44   172.90914   126.14771   369.51317
   301  H   1.0    0.07    1.05    1.44   175.71952   126.96272   374.93296

  Z AO/shell   Hii/eV     exponent
  1     Wed Apr 25 08:07:45 CEST 2018   EN: 2.200 GM2: 0.406  GM3: 0.0800  RAES: 1.40
     1s    -10.707211    1.230000
  6     Wed Apr 25 08:07:45 CEST 2018   EN: 2.550 GM2: 0.538  GM3: 0.1500  RAES: 3.00
     2s    -13.970922    2.096432
     2p    -10.063292    1.800000
  7     Wed Apr 25 08:07:45 CEST 2018   EN: 3.040 GM2: 0.461  GM3:-0.0640  RAES: 1.90
     2s    -16.686243    2.339881
     2p    -12.523956    2.014332
  8     Wed Apr 25 08:07:45 CEST 2018   EN: 3.440 GM2: 0.452  GM3:-0.0517  RAES: 1.80
     2s    -20.229985    2.439742
     2p    -15.503117    2.137023
 no old-style atom pair restraining (fixing) potential

molecular fragmentation (1/2 indicates fragments):
111111111111111111111111111111111111111111111111111111111111111111111111
111111111111111111111111111111111111111111111111111111111111111111111111
111111111111111111111111111111111111111111111111111111111111111111111111
111111111111111111111111111111111111111111111112222222222222222222222222
2222222212222
# atoms in fragment 1/2:   264    37
 fragment masses (1/2) :     1828.07      214.31
CMA distance (Bohr)    :  18.838
constraining FC (au)   :  0.0500
           ------------------------------------------------- 
          |        Self-Consistent Charge Iterations        |
           ------------------------------------------------- 

 Ncao       : 730
 Nao        : 730
 Nshell     : 444
 Nel        : 812
 T(el)      :   500.0
 intcut     :    35.0
 scfconv/Eh :  0.100E-06
   qconv/e  :  0.100E-04
 intneglect :  0.100E-08
 broydamp   :      0.400
 iter      E             dE          RMSdq      gap      omega  full diag
   1   -466.5203453 -0.466520E+03  0.459E+00    3.02       0.0  T
   2   -467.6438533 -0.112351E+01  0.211E+00    1.88       1.0  T
   3   -467.7093766 -0.655234E-01  0.119E+00    2.32       1.0  T
   4   -467.7756940 -0.663174E-01  0.230E-01    1.84       1.0  T
   5   -467.7794445 -0.375054E-02  0.103E-01    2.00       1.0  T
   6   -467.7798532 -0.408678E-03  0.360E-02    1.95       1.0  T
   7   -467.7799438 -0.906077E-04  0.151E-02    1.96       1.0  T
   8   -467.7799500 -0.615938E-05  0.636E-03    1.95       1.0  T
   9   -467.7799528 -0.285190E-05  0.225E-03    1.95       2.6  T
  10   -467.7799530 -0.201828E-06  0.900E-04    1.95       6.4  T
  11   -467.7799531 -0.388127E-07  0.384E-04    1.95      15.0  T
  12   -467.7799531 -0.582514E-08  0.126E-04    1.95      45.8  T
  13   -467.7799531 -0.860666E-09  0.609E-05    1.95      94.6  T
  14   -467.7799531 -0.160526E-09  0.267E-05    1.95     215.7  T
speedup 12.16
cpu  time for SCC   21.00 s
wall time for SCC    1.73 s

   *** convergence criteria satisfied after 14 iterations ***

          eigenvalues
 #    :         394        395        396        397        398        399        400        401
 occ. :        2.000      2.000      2.000      2.000      2.000      2.000      2.000      2.000
 eps  :       -11.121    -11.088    -11.067    -11.058    -11.024    -10.993    -10.911    -10.786
 #    :         402        403        404        405        406        407        408        409
 occ. :        2.000      2.000      2.000      2.000      2.000      0.000      0.000      0.000
 eps  :       -10.762    -10.728    -10.558     -9.868     -9.793     -7.839     -7.633     -7.583
 #    :         410        411        412        413        414        415        416        417
 occ. :        0.000      0.000      0.000      0.000      0.000      0.000      0.000      0.000
 eps  :        -7.027     -6.899     -6.786     -6.744     -6.727     -6.649     -6.635     -6.565


   #   Z            q   n(s)   n(p)   n(d)      C6AA      α(0)
   1   7 N     -0.166  1.236  3.931  0.000    24.585     7.364
   2   6 C     -0.019  1.072  2.947  0.000    20.928     6.517
   3   6 C      0.263  1.036  2.701  0.000    22.571     7.780
   4   8 O     -0.472  1.752  4.720  0.000    23.171     6.454
   5   6 C     -0.153  1.043  3.110  0.000    23.517     6.915
   6   1 H      0.301  0.699  0.000  0.000     0.709     1.319
   7   1 H      0.298  0.702  0.000  0.000     0.720     1.329
   8   1 H      0.306  0.694  0.000  0.000     0.695     1.306
   9   1 H      0.128  0.872  0.000  0.000     1.552     1.948
  10   1 H      0.089  0.911  0.000  0.000     1.888     2.149
  11   1 H      0.096  0.904  0.000  0.000     1.822     2.111
  12   1 H      0.083  0.917  0.000  0.000     1.952     2.185
  13   7 N     -0.194  1.263  3.931  0.000    25.213     7.458
  14   6 C      0.010  1.061  2.929  0.000    20.414     6.434
  15   6 C      0.266  1.045  2.689  0.000    22.515     7.770
  16   8 O     -0.482  1.742  4.740  0.000    23.386     6.484
  17   6 C     -0.070  1.050  3.020  0.000    21.836     6.653
  18   6 C     -0.110  1.057  3.052  0.000    22.590     6.766
  19   6 C      0.285  1.040  2.675  0.000    22.173     7.710
  20   8 O     -0.478  1.736  4.742  0.000    23.294     6.471
  21   7 N     -0.277  1.264  4.014  0.000    27.172     7.742
  22   1 H      0.257  0.743  0.000  0.000     0.857     1.450
  23   1 H      0.097  0.903  0.000  0.000     1.809     2.103
  24   1 H      0.073  0.927  0.000  0.000     2.055     2.242
  25   1 H      0.074  0.926  0.000  0.000     2.047     2.237
  26   1 H      0.087  0.913  0.000  0.000     1.910     2.161
  27   1 H      0.079  0.921  0.000  0.000     1.993     2.208
  28   1 H      0.230  0.770  0.000  0.000     0.965     1.539
  29   1 H      0.236  0.764  0.000  0.000     0.938     1.517
  30   7 N     -0.175  1.243  3.932  0.000    24.783     7.394
  31   6 C      0.008  1.070  2.923  0.000    20.448     6.438
  32   6 C      0.280  1.042  2.678  0.000    22.262     7.726
  33   8 O     -0.496  1.739  4.757  0.000    23.687     6.525
  34   6 C     -0.025  1.065  2.960  0.000    20.985     6.516
  35   6 C     -0.118  1.038  3.080  0.000    22.811     6.810
  36   6 C     -0.130  1.043  3.087  0.000    23.050     6.845
  37   1 H      0.219  0.781  0.000  0.000     1.015     1.578
  38   1 H      0.086  0.914  0.000  0.000     1.918     2.166
  39   1 H      0.057  0.943  0.000  0.000     2.236     2.338
  40   1 H      0.057  0.943  0.000  0.000     2.240     2.340
  41   1 H      0.034  0.966  0.000  0.000     2.537     2.491
  42   1 H      0.052  0.948  0.000  0.000     2.293     2.368
  43   1 H      0.063  0.937  0.000  0.000     2.162     2.299
  44   1 H      0.057  0.943  0.000  0.000     2.234     2.338
  45   1 H      0.058  0.942  0.000  0.000     2.226     2.333
  46   7 N     -0.175  1.241  3.934  0.000    24.784     7.394
  47   6 C      0.010  1.069  2.920  0.000    20.409     6.433
  48   6 C      0.283  1.040  2.677  0.000    22.210     7.718
  49   8 O     -0.504  1.737  4.767  0.000    23.880     6.552
  50   6 C     -0.033  1.071  2.962  0.000    21.122     6.537
  51   6 C     -0.065  1.052  3.013  0.000    21.747     6.639
  52   6 C     -0.118  1.039  3.080  0.000    22.819     6.811
  53   6 C     -0.116  1.037  3.078  0.000    22.778     6.806
  54   1 H      0.215  0.785  0.000  0.000     1.033     1.592
  55   1 H      0.076  0.924  0.000  0.000     2.016     2.220
  56   1 H      0.065  0.935  0.000  0.000     2.137     2.286
  57   1 H      0.049  0.951  0.000  0.000     2.329     2.386
  58   1 H      0.042  0.958  0.000  0.000     2.416     2.431
  59   1 H      0.057  0.943  0.000  0.000     2.234     2.338
  60   1 H      0.034  0.966  0.000  0.000     2.531     2.488
  61   1 H      0.052  0.948  0.000  0.000     2.299     2.371
  62   1 H      0.051  0.949  0.000  0.000     2.310     2.377
  63   1 H      0.045  0.955  0.000  0.000     2.377     2.411
  64   1 H      0.043  0.957  0.000  0.000     2.414     2.430
  65   7 N     -0.170  1.238  3.932  0.000    24.682     7.379
  66   6 C      0.028  1.055  2.917  0.000    20.113     6.386
  67   6 C      0.267  1.045  2.688  0.000    22.494     7.767
  68   8 O     -0.487  1.743  4.745  0.000    23.509     6.501
  69   6 C     -0.117  1.065  3.052  0.000    22.723     6.785
  70   6 C      0.289  1.034  2.677  0.000    22.099     7.697
  71   8 O     -0.481  1.744  4.737  0.000    23.373     6.482
  72   7 N     -0.285  1.264  4.020  0.000    27.352     7.767
  73   1 H      0.238  0.762  0.000  0.000     0.929     1.510
  74   1 H      0.072  0.928  0.000  0.000     2.059     2.244
  75   1 H      0.107  0.893  0.000  0.000     1.724     2.053
  76   1 H      0.084  0.916  0.000  0.000     1.934     2.175
  77   1 H      0.239  0.761  0.000  0.000     0.929     1.510
  78   1 H      0.232  0.768  0.000  0.000     0.955     1.530
  79   7 N     -0.181  1.254  3.928  0.000    24.928     7.415
  80   6 C      0.010  1.066  2.924  0.000    20.413     6.433
  81   6 C      0.277  1.042  2.681  0.000    22.320     7.737
  82   8 O     -0.485  1.747  4.738  0.000    23.450     6.493
  83   6 C      0.113  1.049  2.838  0.000    18.834     6.197
  84   8 O     -0.493  1.735  4.758  0.000    22.738     6.437
  85   6 C     -0.150  1.046  3.105  0.000    23.471     6.909
  86   1 H      0.230  0.770  0.000  0.000     0.964     1.538
  87   1 H      0.097  0.903  0.000  0.000     1.810     2.104
  88   1 H      0.047  0.953  0.000  0.000     2.362     2.404
  89   1 H      0.348  0.652  0.000  0.000     0.594     1.210
  90   1 H      0.068  0.932  0.000  0.000     2.104     2.268
  91   1 H      0.078  0.922  0.000  0.000     2.004     2.214
  92   1 H      0.051  0.949  0.000  0.000     2.306     2.375
  93   7 N     -0.185  1.247  3.938  0.000    25.003     7.426
  94   6 C      0.030  1.057  2.913  0.000    20.068     6.376
  95   6 C      0.276  1.041  2.683  0.000    22.332     7.739
  96   8 O     -0.490  1.739  4.752  0.000    23.574     6.510
  97   6 C     -0.113  1.063  3.049  0.000    22.645     6.774
  98   6 C      0.291  1.034  2.676  0.000    22.067     7.692
  99   8 O     -0.482  1.748  4.734  0.000    23.397     6.485
 100   7 N     -0.274  1.260  4.014  0.000    27.092     7.730
 101   1 H      0.228  0.772  0.000  0.000     0.972     1.544
 102   1 H      0.081  0.919  0.000  0.000     1.964     2.192
 103   1 H      0.099  0.901  0.000  0.000     1.790     2.092
 104   1 H      0.080  0.920  0.000  0.000     1.983     2.202
 105   1 H      0.225  0.775  0.000  0.000     0.985     1.555
 106   1 H      0.226  0.774  0.000  0.000     0.985     1.554
 107   7 N     -0.200  1.257  3.943  0.000    25.348     7.478
 108   6 C      0.024  1.060  2.916  0.000    20.173     6.395
 109   6 C      0.280  1.038  2.682  0.000    22.255     7.725
 110   8 O     -0.482  1.737  4.744  0.000    23.384     6.483
 111   6 C      0.073  1.039  2.888  0.000    19.572     6.338
 112   8 O     -0.482  1.727  4.756  0.000    22.512     6.405
 113   1 H      0.239  0.761  0.000  0.000     0.928     1.509
 114   1 H      0.077  0.923  0.000  0.000     2.006     2.215
 115   1 H      0.051  0.949  0.000  0.000     2.309     2.376
 116   1 H      0.045  0.955  0.000  0.000     2.384     2.415
 117   1 H      0.358  0.642  0.000  0.000     0.570     1.186
 118   7 N     -0.187  1.253  3.934  0.000    25.062     7.435
 119   6 C      0.026  1.062  2.913  0.000    20.148     6.391
 120   6 C      0.290  1.039  2.671  0.000    22.087     7.696
 121   8 O     -0.496  1.744  4.752  0.000    23.693     6.526
 122   6 C     -0.085  1.061  3.023  0.000    22.110     6.694
 123   6 C     -0.015  1.059  2.956  0.000    20.807     6.488
 124   6 C     -0.117  1.040  3.077  0.000    22.796     6.808
 125   6 C     -0.118  1.040  3.078  0.000    22.820     6.811
 126   1 H      0.228  0.772  0.000  0.000     0.974     1.546
 127   1 H      0.072  0.928  0.000  0.000     2.061     2.245
 128   1 H      0.065  0.935  0.000  0.000     2.137     2.286
 129   1 H      0.067  0.933  0.000  0.000     2.118     2.276
 130   1 H      0.051  0.949  0.000  0.000     2.310     2.377
 131   1 H      0.047  0.953  0.000  0.000     2.355     2.400
 132   1 H      0.040  0.960  0.000  0.000     2.442     2.444
 133   1 H      0.028  0.972  0.000  0.000     2.608     2.525
 134   1 H      0.047  0.953  0.000  0.000     2.363     2.404
 135   1 H      0.036  0.964  0.000  0.000     2.499     2.472
 136   1 H      0.045  0.955  0.000  0.000     2.381     2.413
 137   7 N     -0.182  1.243  3.939  0.000    24.944     7.418
 138   6 C      0.025  1.059  2.916  0.000    20.155     6.392
 139   6 C      0.283  1.041  2.676  0.000    22.210     7.718
 140   8 O     -0.505  1.738  4.768  0.000    23.904     6.555
 141   6 C      0.071  1.040  2.890  0.000    19.606     6.343
 142   8 O     -0.487  1.727  4.760  0.000    22.617     6.420
 143   1 H      0.213  0.787  0.000  0.000     1.040     1.598
 144   1 H      0.074  0.926  0.000  0.000     2.037     2.232
 145   1 H      0.046  0.954  0.000  0.000     2.368     2.406
 146   1 H      0.054  0.946  0.000  0.000     2.276     2.359
 147   1 H      0.358  0.642  0.000  0.000     0.571     1.187
 148   7 N     -0.173  1.246  3.927  0.000    24.750     7.389
 149   6 C      0.026  1.057  2.917  0.000    20.142     6.390
 150   6 C      0.270  1.044  2.686  0.000    22.449     7.759
 151   8 O     -0.514  1.743  4.771  0.000    24.105     6.583
 152   6 C     -0.075  1.058  3.018  0.000    21.926     6.665
 153   6 C     -0.017  1.058  2.959  0.000    20.842     6.494
 154   6 C     -0.124  1.044  3.080  0.000    22.937     6.828
 155   6 C     -0.123  1.041  3.082  0.000    22.916     6.826
 156   1 H      0.234  0.766  0.000  0.000     0.949     1.526
 157   1 H      0.074  0.926  0.000  0.000     2.042     2.235
 158   1 H      0.059  0.941  0.000  0.000     2.215     2.327
 159   1 H      0.062  0.938  0.000  0.000     2.181     2.310
 160   1 H      0.041  0.959  0.000  0.000     2.430     2.438
 161   1 H      0.053  0.947  0.000  0.000     2.277     2.360
 162   1 H      0.042  0.958  0.000  0.000     2.420     2.433
 163   1 H      0.051  0.949  0.000  0.000     2.311     2.377
 164   1 H      0.056  0.944  0.000  0.000     2.245     2.343
 165   1 H      0.042  0.958  0.000  0.000     2.424     2.435
 166   1 H      0.036  0.964  0.000  0.000     2.506     2.476
 167   7 N     -0.173  1.245  3.928  0.000    24.755     7.390
 168   6 C      0.025  1.058  2.917  0.000    20.154     6.391
 169   6 C      0.268  1.047  2.685  0.000    22.475     7.764
 170   8 O     -0.496  1.739  4.757  0.000    23.690     6.526
 171   6 C     -0.078  1.059  3.019  0.000    21.985     6.674
 172   6 C     -0.015  1.057  2.959  0.000    20.817     6.490
 173   6 C     -0.118  1.043  3.075  0.000    22.804     6.808
 174   6 C     -0.122  1.042  3.080  0.000    22.902     6.824
 175   1 H      0.239  0.761  0.000  0.000     0.929     1.510
 176   1 H      0.073  0.927  0.000  0.000     2.049     2.239
 177   1 H      0.063  0.937  0.000  0.000     2.168     2.303
 178   1 H      0.059  0.941  0.000  0.000     2.211     2.325
 179   1 H      0.049  0.951  0.000  0.000     2.334     2.389
 180   1 H      0.052  0.948  0.000  0.000     2.295     2.369
 181   1 H      0.035  0.965  0.000  0.000     2.514     2.479
 182   1 H      0.047  0.953  0.000  0.000     2.357     2.401
 183   1 H      0.058  0.942  0.000  0.000     2.221     2.330
 184   1 H      0.043  0.957  0.000  0.000     2.405     2.425
 185   1 H      0.032  0.968  0.000  0.000     2.561     2.503
 186   7 N     -0.181  1.251  3.930  0.000    24.927     7.415
 187   6 C      0.015  1.065  2.920  0.000    20.318     6.418
 188   6 C      0.274  1.044  2.682  0.000    22.375     7.746
 189   8 O     -0.495  1.742  4.752  0.000    23.664     6.522
 190   6 C      0.116  1.049  2.836  0.000    18.792     6.190
 191   8 O     -0.491  1.732  4.759  0.000    22.706     6.433
 192   6 C     -0.145  1.044  3.100  0.000    23.353     6.892
 193   1 H      0.222  0.778  0.000  0.000     1.000     1.566
 194   1 H      0.092  0.908  0.000  0.000     1.863     2.135
 195   1 H      0.041  0.959  0.000  0.000     2.439     2.442
 196   1 H      0.348  0.652  0.000  0.000     0.592     1.209
 197   1 H      0.067  0.933  0.000  0.000     2.118     2.276
 198   1 H      0.076  0.924  0.000  0.000     2.018     2.222
 199   1 H      0.048  0.952  0.000  0.000     2.348     2.396
 200   7 N     -0.177  1.248  3.930  0.000    24.841     7.402
 201   6 C      0.026  1.059  2.914  0.000    20.133     6.388
 202   6 C      0.279  1.041  2.680  0.000    22.276     7.729
 203   8 O     -0.503  1.752  4.751  0.000    23.851     6.548
 204   6 C     -0.069  1.053  3.017  0.000    21.822     6.650
 205   6 C     -0.103  1.060  3.043  0.000    22.463     6.747
 206   6 C      0.291  1.037  2.673  0.000    22.068     7.692
 207   8 O     -0.502  1.757  4.745  0.000    23.830     6.545
 208   7 N     -0.291  1.268  4.023  0.000    27.501     7.788
 209   1 H      0.221  0.779  0.000  0.000     1.004     1.569
 210   1 H      0.083  0.917  0.000  0.000     1.949     2.184
 211   1 H      0.080  0.920  0.000  0.000     1.977     2.199
 212   1 H      0.055  0.945  0.000  0.000     2.260     2.351
 213   1 H      0.074  0.926  0.000  0.000     2.044     2.236
 214   1 H      0.074  0.926  0.000  0.000     2.047     2.238
 215   1 H      0.234  0.766  0.000  0.000     0.949     1.526
 216   1 H      0.230  0.770  0.000  0.000     0.964     1.538
 217   7 N     -0.201  1.260  3.941  0.000    25.360     7.479
 218   6 C      0.035  1.053  2.912  0.000    19.985     6.365
 219   6 C      0.276  1.042  2.682  0.000    22.325     7.737
 220   8 O     -0.504  1.753  4.751  0.000    23.876     6.551
 221   6 C     -0.106  1.062  3.044  0.000    22.521     6.755
 222   6 C      0.294  1.033  2.672  0.000    22.004     7.681
 223   8 O     -0.496  1.754  4.742  0.000    23.705     6.528
 224   7 N     -0.281  1.260  4.021  0.000    27.252     7.753
 225   1 H      0.231  0.769  0.000  0.000     0.962     1.537
 226   1 H      0.081  0.919  0.000  0.000     1.970     2.195
 227   1 H      0.083  0.917  0.000  0.000     1.949     2.183
 228   1 H      0.088  0.912  0.000  0.000     1.896     2.153
 229   1 H      0.246  0.754  0.000  0.000     0.899     1.485
 230   1 H      0.224  0.776  0.000  0.000     0.991     1.559
 231   7 N     -0.180  1.247  3.934  0.000    24.906     7.412
 232   6 C      0.030  1.060  2.909  0.000    20.069     6.379
 233   6 C      0.275  1.041  2.683  0.000    22.343     7.741
 234   8 O     -0.504  1.755  4.749  0.000    23.872     6.551
 235   6 C     -0.109  1.062  3.047  0.000    22.583     6.765
 236   6 C      0.292  1.035  2.673  0.000    22.048     7.688
 237   8 O     -0.501  1.750  4.751  0.000    23.797     6.540
 238   7 N     -0.291  1.268  4.023  0.000    27.497     7.788
 239   1 H      0.218  0.782  0.000  0.000     1.020     1.582
 240   1 H      0.075  0.925  0.000  0.000     2.036     2.231
 241   1 H      0.089  0.911  0.000  0.000     1.887     2.148
 242   1 H      0.076  0.924  0.000  0.000     2.022     2.224
 243   1 H      0.234  0.766  0.000  0.000     0.948     1.525
 244   1 H      0.234  0.766  0.000  0.000     0.949     1.526
 245   7 N     -0.170  1.245  3.925  0.000    24.683     7.379
 246   6 C      0.037  1.057  2.906  0.000    19.954     6.360
 247   6 C      0.215  1.084  2.700  0.000    23.446     7.930
 248   8 O     -0.373  1.752  4.622  0.000    21.153     6.166
 249   6 C     -0.072  1.057  3.015  0.000    21.872     6.658
 250   6 C     -0.012  1.058  2.954  0.000    20.758     6.481
 251   6 C     -0.119  1.042  3.076  0.000    22.829     6.813
 252   6 C     -0.119  1.040  3.078  0.000    22.828     6.813
 253   1 H      0.226  0.774  0.000  0.000     0.982     1.553
 254   1 H      0.086  0.914  0.000  0.000     1.921     2.168
 255   1 H      0.069  0.931  0.000  0.000     2.091     2.261
 256   1 H      0.056  0.944  0.000  0.000     2.250     2.345
 257   1 H      0.051  0.949  0.000  0.000     2.309     2.376
 258   1 H      0.053  0.947  0.000  0.000     2.282     2.362
 259   1 H      0.041  0.959  0.000  0.000     2.431     2.438
 260   1 H      0.037  0.963  0.000  0.000     2.483     2.464
 261   1 H      0.053  0.947  0.000  0.000     2.286     2.364
 262   1 H      0.036  0.964  0.000  0.000     2.496     2.471
 263   1 H      0.042  0.958  0.000  0.000     2.421     2.433
 264   7 N     -0.304  1.330  3.973  0.000    27.811     7.832
 265   6 C      0.035  1.060  2.905  0.000    19.980     6.362
 266   6 C      0.200  1.093  2.707  0.000    23.734     7.978
 267   8 O     -0.379  1.749  4.629  0.000    21.257     6.181
 268   6 C     -0.060  1.054  3.006  0.000    21.628     6.617
 269   6 C     -0.069  1.053  3.016  0.000    21.796     6.643
 270   6 C      0.011  1.044  2.944  0.000    20.417     6.439
 271   1 H      0.041  0.959  0.000  0.000     2.442     2.444
 272   1 H      0.053  0.947  0.000  0.000     2.286     2.364
 273   1 H      0.053  0.947  0.000  0.000     2.288     2.366
 274   1 H      0.054  0.946  0.000  0.000     2.271     2.357
 275   1 H      0.050  0.950  0.000  0.000     2.317     2.380
 276   1 H      0.047  0.953  0.000  0.000     2.352     2.398
 277   1 H      0.014  0.986  0.000  0.000     2.827     2.629
 278   7 N     -0.403  1.312  4.091  0.000    30.445     8.195
 279   6 C      0.045  1.054  2.902  0.000    19.841     6.345
 280   6 C      0.200  1.093  2.707  0.000    23.748     7.981
 281   8 O     -0.389  1.755  4.634  0.000    21.462     6.211
 282   6 C     -0.067  1.060  3.007  0.000    21.777     6.642
 283   6 C     -0.011  1.056  2.955  0.000    20.744     6.478
 284   6 C     -0.119  1.043  3.076  0.000    22.831     6.812
 285   6 C     -0.114  1.039  3.075  0.000    22.742     6.800
 286   1 H      0.184  0.816  0.000  0.000     1.189     1.708
 287   1 H      0.039  0.961  0.000  0.000     2.464     2.455
 288   1 H      0.050  0.950  0.000  0.000     2.314     2.379
 289   1 H      0.046  0.954  0.000  0.000     2.366     2.405
 290   1 H      0.046  0.954  0.000  0.000     2.373     2.409
 291   1 H      0.038  0.962  0.000  0.000     2.478     2.462
 292   1 H      0.042  0.958  0.000  0.000     2.428     2.437
 293   1 H      0.047  0.953  0.000  0.000     2.359     2.402
 294   1 H      0.041  0.959  0.000  0.000     2.435     2.440
 295   1 H      0.043  0.957  0.000  0.000     2.404     2.425
 296   1 H      0.035  0.965  0.000  0.000     2.514     2.480
 297   1 H      0.059  0.941  0.000  0.000     2.215     2.327
 298   1 H      0.182  0.818  0.000  0.000     1.204     1.719
 299   1 H      0.078  0.922  0.000  0.000     1.997     2.210
 300   1 H      0.171  0.829  0.000  0.000     1.264     1.761
 301   1 H      0.067  0.933  0.000  0.000     2.114     2.273

 Mol. C6AA /au·bohr⁶  :     799256.893886
 Mol. C8AA /au·bohr⁸  :   17569838.602728
 Mol. α(0) /au        :       1327.994763

 
molecular dipole:
                 x           y           z       tot (Debye)
 q only:      176.834      96.622     411.148
   full:      175.810      95.481     414.470    1169.811
molecular quadrupole (traceless):
                xx          xy          yy          xz          yz          zz
 q only:   -56661.801   25457.960  -89586.343  109802.045   60449.918  146248.144
  q+dip:   -58063.661   24967.076  -90815.678  110185.191   60380.495  148879.339
   full:   -58060.893   24963.449  -90814.873  110185.857   60381.578  148875.766
speedup 12.42
cpu  time for grad   23.10 s
wall time for grad    1.86 s

SCC energy    :    -467.7940818
rep           :       5.3774676
ES            :       1.3845484
AES           :      -0.0387442
AXC           :       0.1296756
disp          :      -0.3884414
XB            :       0.0000000
fix           :       0.0000000
Gborn         :       0.0000000
Gsasa         :       0.0000000
Ghb           :       0.0000000
Gshift        :       0.0000000
Gsolv         :      -0.3224813     -202.36
Etot ala COSMO:    -467.7940818
grad norm     :       0.3363120
total E       :    -462.3862294
atomizationE  :      83.3047786    52274.54
(atE without considering molecular charge,
 total energy contains solvation terms)
H-L gap (eV)  :          1.9539

------------------------------------------------------------------------
 * finished run on 2019/02/13 at 00:17:04.172     
------------------------------------------------------------------------
 total:
 * wall-time:     0 d,  0 h,  0 min,  2.037 sec
 *  cpu-time:     0 d,  0 h,  0 min, 25.680 sec
 * ratio c/w:    12.605 speedup
 SCF:
 * wall-time:     0 d,  0 h,  0 min,  1.954 sec
 *  cpu-time:     0 d,  0 h,  0 min, 24.595 sec
 * ratio c/w:    12.588 speedup

