      -----------------------------------------------------------      
     |                   =====================                   |     
     |                           x T B                           |     
     |                   =====================                   |     
     |                         S. Grimme                         |     
     |          Mulliken Center for Theoretical Chemistry        |     
     |                    University of Bonn                     |     
     |                 Version 6.0.1 (SAW181210)                 |     
      -----------------------------------------------------------      

   This program is distributed in the hope that it will be useful,
   but WITHOUT ANY WARRANTY; without even the implied warranty of
   MERCHANTABILITY or FITNESS FOR A PARTICULAR PURPOSE.
   
   FOR NON-COMMERCIAL, ACADEMIA USE ONLY.
   
   Cite this work as:
   S. Grimme, C. Bannwarth, P. Shushkov, J. Comput. Theory Chem., 2017,
   13, 1989-2009.
   C. Bannwarth, S. Ehlert and S. Grimme., ChemRxiv, 2018, preprint.
   http://doi.org/10.26434/chemrxiv.7246238.v1
   
   for sTDA-xTB:
   S. Grimme and C. Bannwarth, J. Chem. Phys., 2016, 145, 054103.
   
   in the mass-spec context:
   V. Asgeirsson, C. Bauer and S. Grimme, Chem. Sci., 2017, 8, 4879.
   
   if GBSA is used:
   P. Shushkov, F. März and S. Grimme, unpublished.
   
   for ANC optimizer:
   S. Grimme, unpublished.
   Rational Function algorithm used in ANCopt:
   F. Eckert, P. Pulay, H.-J. Werner, J. Comput. Chem., 1997, 18, 1473.
   
   with help from (in alphabetical order)
   C. Bannwarth, F. Bohle, G. Brandenburg, E. Caldeweyher, M. Checinski,
   S. Dohm, S. Ehlert, S. Ehrlich, F. März, H. Neugebauer, J. Pisarek,
   P. Pracht, P. Shushkov, and S. Spicher.
   
 * started run on 2019/02/13 at 00:18:39.854     
========================================================================
 # omp threads = 16
========================================================================
number of atoms            : 318
number of electrons        : 832
charge                     : 1
spin                       : .0
first test random number   : .8439

########################################################################
# WARNING! Please study the warnings concerning your input carefully
#  - Process number higher than OMP_NUM_THREADS, I hope you know what you are doing.
########################################################################

           ------------------------------------------------- 
          |                 G F N 2 - x T B                 |
          | Geometry, Frequencies, Noncovalent interactions |
          |            JCTC 2018 parametrisation            |
           ------------------------------------------------- 
 
      method parameters     
 k(s)        :  1.8500
 k(p)        :  2.2300
 k(d)        :  2.2300
 k(f)        :  2.0000
 kEN (H0ij)  : -2.0000
 D4 a1       :  0.5200
 D4 a2       :  5.0000
 D4 s6       :  1.0000
 D4 s8       :  2.7000
 D4 s9       :  5.0000
 alphaj      :  2.0000

 Solvent             : h2o
 Using internal parameter file: .param_gbsa2_h2o
 Gsolv ref. state (COSMO-RS): gsolv [1 M gas/solution]
 temperature (mdtemp)       :    298.150000000000     
 dielectric constant        :    80.2000000000000     
 rho                        :    1.00000000000000     
 mass                       :    18.0000000000000     
 surface tension            :    15.5689454083859     
 probe radius               :   0.975313790000000     
 vdW radii scaling          :    1.00000000000000     
 Gshift (Eh)                :   1.857443126794793E-003
 c1                         :    1.55243817000000     
 soset                      :   0.130326360000000     
 HB correction              :  T

            Z     q(EN)     CN     RAES       Cart. coordinates
     1  N   5.0   -0.18    3.26    1.97   343.42054   127.22297   172.27645
     2  C   4.0    0.03    4.29    4.18   346.01288   127.38828   171.43152
     3  C   4.0    0.16    3.45    3.09   347.57339   128.55212   173.56060
     4  O   6.0   -0.31    1.31    1.80   346.56004   129.49102   175.42148
     5  C   4.0    0.04    4.16    3.93   346.15468   129.07340   169.05354
     6  O   6.0   -0.24    2.06    1.83   345.51106   131.59261   169.58208
     7  H   1.0    0.12    1.05    1.44   342.95774   128.43232   173.68726
     8  H   1.0    0.05    1.05    1.44   346.72476   125.49552   170.98658
     9  H   1.0    0.06    1.01    1.43   348.07429   129.09257   168.29617
    10  H   1.0    0.05    1.01    1.43   344.86697   128.26902   167.63877
    11  H   1.0    0.15    1.06    1.44   344.02983   131.60270   170.67543
    12  N   5.0   -0.13    3.51    2.08   350.06352   128.61023   173.16583
    13  C   4.0    0.04    4.45    4.46   351.79849   129.37265   175.12585
    14  C   4.0    0.15    3.43    3.09   354.37925   129.90360   173.94570
    15  O   6.0   -0.28    1.23    1.80   355.05466   128.93305   171.96323
    16  C   4.0   -0.03    4.29    4.17   352.05282   127.28415   177.12590
    17  C   4.0    0.25    3.19    3.03   353.03039   124.83825   175.91842
    18  O   6.0   -0.33    1.41    1.80   355.28495   124.23409   176.38319
    19  O   6.0   -0.31    1.26    1.80   351.57831   123.55090   174.59784
    20  H   1.0    0.10    1.08    1.44   350.84469   127.60571   171.74094
    21  H   1.0    0.06    1.06    1.44   351.06247   131.09030   176.01681
    22  H   1.0    0.04    1.03    1.43   353.34458   127.88170   178.60372
    23  H   1.0    0.05    1.03    1.43   350.19201   126.92365   177.94085
    24  N   5.0   -0.14    3.50    2.08   355.76423   131.51414   175.31604
    25  C   4.0    0.04    4.44    4.44   358.21665   132.46809   174.57498
    26  C   4.0    0.16    3.44    3.09   360.06478   132.10601   176.76149
    27  O   6.0   -0.31    1.33    1.80   359.50445   132.72225   178.91929
    28  C   4.0    0.06    4.22    4.04   358.00698   135.33171   173.91637
    29  O   6.0   -0.24    2.12    1.84   356.96668   136.74095   175.90348
    30  C   4.0   -0.06    4.07    3.74   356.49910   135.65708   171.47138
    31  H   1.0    0.10    1.10    1.44   355.01149   132.25942   176.91682
    32  H   1.0    0.06    1.06    1.44   358.81476   131.41569   172.90328
    33  H   1.0    0.06    1.04    1.43   359.92605   136.07235   173.66671
    34  H   1.0    0.14    1.05    1.44   355.39142   135.96737   176.47148
    35  H   1.0    0.05    1.00    1.43   356.38206   137.65064   171.00060
    36  H   1.0    0.05    1.00    1.43   357.42498   134.66614   169.93093
    37  H   1.0    0.06    1.00    1.43   354.60538   134.88919   171.69538
    38  N   5.0   -0.14    3.45    2.05   362.28181   131.04757   176.18566
    39  C   4.0    0.04    4.35    4.28   364.22538   130.70024   178.10269
    40  C   4.0    0.16    3.45    3.10   364.73015   133.26023   179.38543
    41  O   6.0   -0.28    1.23    1.80   365.16177   135.15587   178.13913
    42  C   4.0   -0.06    4.11    3.82   366.64061   129.71589   176.89023
    43  H   1.0    0.08    1.07    1.44   362.76277   130.70569   174.37343
    44  H   1.0    0.05    1.05    1.44   363.52942   129.36586   179.52544
    45  H   1.0    0.05    1.00    1.43   368.03286   129.32068   178.34627
    46  H   1.0    0.05    1.00    1.43   366.26164   127.98359   175.85389
    47  H   1.0    0.06    1.00    1.43   367.40780   131.13064   175.61154
    48  N   5.0   -0.14    3.46    2.05   364.70465   133.19268   181.91105
    49  C   4.0    0.04    4.34    4.27   365.03744   135.44082   183.44672
    50  C   4.0    0.15    3.41    3.08   367.28274   134.98052   185.21642
    51  O   6.0   -0.32    1.27    1.80   367.06617   133.85073   187.22768
    52  C   4.0   -0.06    4.11    3.81   362.64643   136.00287   184.95453
    53  H   1.0    0.11    1.10    1.44   364.25689   131.56965   182.84636
    54  H   1.0    0.06    1.06    1.44   365.46363   136.98696   182.14011
    55  H   1.0    0.04    1.00    1.43   362.85206   137.77815   185.96253
    56  H   1.0    0.05    1.00    1.43   361.04362   136.10660   183.67758
    57  H   1.0    0.05    1.00    1.43   362.33500   134.50064   186.32112
    58  N   5.0   -0.14    3.49    2.07   369.48761   135.85530   184.35659
    59  C   4.0    0.04    4.46    4.48   371.90068   135.50301   185.59781
    60  C   4.0    0.16    3.43    3.09   372.26046   137.40124   187.78600
    61  O   6.0   -0.27    1.25    1.80   373.94187   138.98009   187.82851
    62  C   4.0    0.06    4.25    4.10   374.00922   135.75930   183.60967
    63  O   6.0   -0.24    2.16    1.85   373.34743   137.80655   182.02147
    64  C   4.0   -0.07    4.06    3.73   374.31503   133.31908   182.09574
    65  H   1.0    0.10    1.09    1.44   369.60319   136.87686   182.74287
    66  H   1.0    0.05    1.05    1.44   371.94728   133.61167   186.44607
    67  H   1.0    0.06    1.04    1.43   375.76567   136.19174   184.63139
    68  H   1.0    0.13    1.02    1.43   374.71789   138.14516   180.87883
    69  H   1.0    0.05    1.00    1.43   375.78550   133.54619   180.67943
    70  H   1.0    0.05    1.00    1.43   374.84032   131.77541   183.34049
    71  H   1.0    0.05    1.00    1.43   372.55007   132.85793   181.15052
    72  N   5.0   -0.13    3.52    2.09   370.53910   137.13059   189.61219
    73  C   4.0    0.04    4.40    4.37   370.71563   138.53712   191.95961
    74  C   4.0    0.10    3.30    3.05   373.42181   138.22392   192.95926
    75  O   6.0   -0.27    1.14    1.80   374.47352   136.16515   192.96968
    76  C   4.0   -0.02    4.26    4.12   368.80700   137.52814   193.90351
    77  C   4.0   -0.07    4.12    3.84   368.99315   139.02246   196.36752
    78  C   4.0   -0.08    4.12    3.83   366.11100   137.67442   192.87996
    79  H   1.0    0.10    1.10    1.44   369.29409   135.67526   189.49560
    80  H   1.0    0.05    1.05    1.44   370.35389   140.54209   191.57434
    81  H   1.0    0.05    1.05    1.44   369.30622   135.55257   194.27582
    82  H   1.0    0.04    1.00    1.43   367.82066   138.14611   197.80820
    83  H   1.0    0.05    1.00    1.43   370.91814   139.07854   197.08329
    84  H   1.0    0.05    1.00    1.43   368.33776   140.95163   196.09630
    85  H   1.0    0.03    1.00    1.43   364.80304   137.05120   194.33475
    86  H   1.0    0.04    1.00    1.43   365.65029   139.61597   192.39314
    87  H   1.0    0.05    1.00    1.43   365.85097   136.49099   191.22107
    88  N   5.0   -0.21    3.18    1.95   372.97023   122.88617   201.48640
    89  C   4.0    0.03    4.23    4.07   370.35837   122.23555   202.01802
    90  C   4.0    0.08    3.21    3.04   370.03635   120.56980   204.34462
    91  O   6.0   -0.27    1.14    1.80   368.04435   119.44589   204.71777
    92  C   4.0   -0.03    4.36    4.31   369.00822   120.95542   199.78210
    93  C   4.0   -0.02    4.18    3.96   369.19859   122.39837   197.28509
    94  C   4.0   -0.07    4.11    3.82   367.52539   121.11231   195.31213
    95  C   4.0   -0.08    4.13    3.85   368.38400   125.14420   197.59222
    96  H   1.0    0.09    1.02    1.43   373.33794   124.76231   201.36654
    97  H   1.0    0.04    1.06    1.44   369.39756   124.01468   202.46311
    98  H   1.0    0.06    1.03    1.43   369.80114   119.07248   199.55188
    99  H   1.0    0.06    1.03    1.43   367.02551   120.77309   200.31308
   100  H   1.0    0.05    1.05    1.44   371.15555   122.36948   196.62098
   101  H   1.0    0.04    1.00    1.43   367.63676   122.13093   193.53448
   102  H   1.0    0.05    1.00    1.43   368.10956   119.17862   194.95420
   103  H   1.0    0.04    1.00    1.43   365.56460   121.10723   195.92758
   104  H   1.0    0.04    1.01    1.43   368.46300   126.08753   195.77614
   105  H   1.0    0.04    1.00    1.43   366.45946   125.23785   198.30438
   106  H   1.0    0.04    1.00    1.43   369.61358   126.17981   198.86995
   107  N   5.0   -0.19    3.24    1.96   363.82538   118.07354   188.93346
   108  C   4.0    0.03    4.28    4.16   364.85266   120.44670   188.04552
   109  C   4.0    0.16    3.42    3.09   363.08101   122.61043   188.83785
   110  O   6.0   -0.32    1.31    1.80   361.08603   122.16432   189.91682
   111  C   4.0    0.03    4.15    3.89   365.16591   120.45467   185.15374
   112  O   6.0   -0.25    2.08    1.84   362.76699   120.79185   184.03994
   113  H   1.0    0.13    1.05    1.44   361.98411   117.70307   188.53529
   114  H   1.0    0.04    1.05    1.44   366.71004   120.66132   188.93585
   115  H   1.0    0.04    1.01    1.43   366.44233   121.99148   184.59549
   116  H   1.0    0.04    1.01    1.43   366.00292   118.64547   184.58185
   117  H   1.0    0.12    1.02    1.43   362.95502   120.79366   182.22860
   118  N   5.0   -0.14    3.48    2.06   363.88296   124.95657   188.33257
   119  C   4.0    0.04    4.51    4.56   362.34425   127.16927   188.81844
   120  C   4.0    0.15    3.45    3.10   361.62688   128.40338   186.31658
   121  O   6.0   -0.31    1.28    1.80   363.20153   128.72545   184.63742
   122  C   4.0   -0.02    4.27    4.14   363.73458   129.17476   190.41576
   123  C   4.0   -0.08    4.12    3.85   361.85023   131.16301   191.31624
   124  C   4.0   -0.08    4.13    3.86   365.03903   127.93892   192.66252
   125  H   1.0    0.08    1.06    1.44   365.46628   125.25023   187.31209
   126  H   1.0    0.06    1.07    1.44   360.65430   126.51876   189.81333
   127  H   1.0    0.07    1.06    1.44   365.15978   130.09171   189.22662
   128  H   1.0    0.04    1.00    1.43   362.82497   132.58693   192.42646
   129  H   1.0    0.05    1.00    1.43   360.93587   132.08904   189.72770
   130  H   1.0    0.04    1.00    1.43   360.39731   130.29359   192.48101
   131  H   1.0    0.04    1.00    1.43   365.90767   129.38064   193.83751
   132  H   1.0    0.04    1.00    1.43   363.68087   126.88396   193.78805
   133  H   1.0    0.04    1.00    1.43   366.49583   126.63946   192.02710
   134  N   5.0   -0.14    3.49    2.07   359.23877   129.18366   186.18381
   135  C   4.0    0.04    4.51    4.56   358.19426   130.33320   183.94970
   136  C   4.0    0.14    3.42    3.08   356.35672   132.44704   184.63752
   137  O   6.0   -0.32    1.28    1.80   355.20430   132.50686   186.64121
   138  C   4.0   -0.01    4.27    4.15   356.79805   128.37212   182.28976
   139  C   4.0   -0.06    4.11    3.83   358.61040   126.33633   181.35254
   140  C   4.0   -0.07    4.13    3.86   354.57587   127.18508   183.69147
   141  H   1.0    0.11    1.09    1.44   358.00524   128.74328   187.58393
   142  H   1.0    0.07    1.07    1.44   359.75642   131.11409   182.84598
   143  H   1.0    0.05    1.06    1.44   356.10451   129.42258   180.64735
   144  H   1.0    0.06    1.01    1.43   357.70315   125.24715   179.86773
   145  H   1.0    0.06    1.00    1.43   360.30203   127.19460   180.57004
   146  H   1.0    0.05    1.00    1.43   359.16251   125.07762   182.88041
   147  H   1.0    0.04    1.00    1.43   353.65946   125.77796   182.50878
   148  H   1.0    0.06    1.00    1.43   355.21893   126.27149   185.41670
   149  H   1.0    0.05    1.01    1.43   353.17025   128.60188   184.18177
   150  N   5.0   -0.14    3.52    2.09   356.11042   134.18818   182.82380
   151  C   4.0    0.03    4.39    4.36   354.21686   136.17143   182.76230
   152  C   4.0    0.15    3.43    3.09   352.22540   135.24552   180.88047
   153  O   6.0   -0.32    1.30    1.80   352.79493   134.59710   178.71430
   154  C   4.0   -0.04    4.24    4.08   355.52802   138.65431   182.04069
   155  C   4.0   -0.05    4.16    3.92   353.86438   141.00181   182.28468
   156  C   4.0   -0.04    4.18    3.95   351.90901   141.33783   180.18972
   157  C   4.0   -0.03    4.12    3.84   353.08531   141.86728   177.61707
   158  N   5.0   -0.11    4.01    2.87   351.08335   142.05347   175.66882
   159  H   1.0    0.11    1.11    1.45   357.11669   133.96421   181.21000
   160  H   1.0    0.05    1.06    1.44   353.36832   136.30825   184.64202
   161  H   1.0    0.04    1.03    1.43   357.11914   138.85647   183.33796
   162  H   1.0    0.06    1.03    1.43   356.29255   138.47698   180.13651
   163  H   1.0    0.04    1.03    1.43   352.85979   140.93564   184.08397
   164  H   1.0    0.04    1.03    1.43   355.09041   142.65740   182.30990
   165  H   1.0    0.07    1.04    1.44   350.72349   139.66150   180.06386
   166  H   1.0    0.05    1.03    1.43   350.68952   142.91160   180.72161
   167  H   1.0    0.05    1.02    1.43   354.11688   143.64981   177.65895
   168  H   1.0    0.06    1.02    1.43   354.38259   140.35169   177.09541
   169  H   1.0    0.06    1.02    1.43   351.86714   142.06199   173.90288
   170  H   1.0    0.09    1.03    1.43   349.82470   140.57389   175.79902
   171  H   1.0    0.06    0.98    1.43   350.01777   143.78972   175.82006
   172  N   5.0   -0.14    3.47    2.06   349.89724   135.00718   181.80232
   173  C   4.0    0.04    4.45    4.47   347.84949   133.88454   180.37198
   174  C   4.0    0.16    3.41    3.08   346.77497   135.77718   178.45214
   175  O   6.0   -0.29    1.25    1.80   347.03529   138.05931   178.73921
   176  C   4.0   -0.04    4.34    4.26   345.71800   133.08781   182.15749
   177  C   4.0   -0.04    4.05    3.72   346.54592   131.13611   184.10929
   178  S   6.0   -0.05    2.55    3.10   347.85764   128.24520   182.73542
   179  C   4.0   -0.06    3.89    3.44   345.08079   127.07417   181.10365
   180  H   1.0    0.08    1.07    1.44   349.52086   135.64907   183.56744
   181  H   1.0    0.06    1.07    1.44   348.57964   132.22530   179.36880
   182  H   1.0    0.05    1.03    1.43   345.05304   134.76768   183.15711
   183  H   1.0    0.05    1.03    1.43   344.16814   132.33530   181.02474
   184  H   1.0    0.05    1.07    1.44   348.03924   131.87538   185.31792
   185  H   1.0    0.05    1.07    1.44   344.94661   130.56533   185.27338
   186  H   1.0    0.05    1.05    1.44   345.39036   125.07204   180.78051
   187  H   1.0    0.05    1.04    1.43   343.43012   127.35030   182.28825
   188  H   1.0    0.07    1.04    1.43   344.88576   128.03786   179.30173
   189  N   5.0   -0.13    3.46    2.05   345.45170   134.75745   176.56501
   190  C   4.0    0.05    4.29    4.17   343.98495   136.25802   174.80937
   191  C   4.0    0.08    3.22    3.04   341.69246   134.70731   173.95903
   192  O   6.0   -0.29    1.19    1.80   341.88820   132.44157   173.49816
   193  C   4.0    0.05    4.15    3.89   345.48737   136.98875   172.42839
   194  O   6.0   -0.24    2.06    1.83   347.38938   138.74846   173.05466
   195  H   1.0    0.12    1.10    1.44   345.51070   132.86541   176.22386
   196  H   1.0    0.06    1.05    1.44   343.38464   137.98472   175.77845
   197  H   1.0    0.06    1.02    1.43   346.31641   135.28081   171.59752
   198  H   1.0    0.05    1.01    1.43   344.15388   137.82116   171.07520
   199  H   1.0    0.12    1.03    1.43   348.14170   139.31944   171.49401
   200  N   5.0   -0.19    3.23    1.96   351.00912   137.09480   191.58914
   201  C   4.0    0.03    4.34    4.28   352.73099   134.98543   191.45559
   202  C   4.0    0.15    3.42    3.08   351.36993   132.50714   192.03000
   203  O   6.0   -0.28    1.22    1.80   349.56806   132.35033   193.48295
   204  C   4.0   -0.05    4.37    4.32   354.87350   135.27788   193.37973
   205  C   4.0   -0.02    4.18    3.96   356.40825   137.71782   193.07478
   206  C   4.0   -0.08    4.11    3.81   358.36139   137.86256   195.19583
   207  C   4.0   -0.08    4.10    3.81   357.71615   137.85020   190.50816
   208  H   1.0    0.09    1.03    1.43   350.63995   137.76114   193.33695
   209  H   1.0    0.06    1.07    1.44   353.47166   134.88542   189.53171
   210  H   1.0    0.05    1.03    1.43   354.04791   135.22570   195.27475
   211  H   1.0    0.04    1.03    1.43   356.14144   133.66065   193.18941
   212  H   1.0    0.04    1.05    1.44   355.12918   139.33251   193.25452
   213  H   1.0    0.04    1.00    1.43   359.38726   139.64190   195.13330
   214  H   1.0    0.04    1.00    1.43   357.45750   137.69236   197.03544
   215  H   1.0    0.03    1.00    1.43   359.71872   136.32955   195.01278
   216  H   1.0    0.04    1.00    1.43   358.89734   139.52688   190.41465
   217  H   1.0    0.04    1.00    1.43   358.90927   136.20032   190.23555
   218  H   1.0    0.04    1.00    1.43   356.34417   137.92728   188.98461
   219  N   5.0   -0.14    3.50    2.08   352.37854   130.52581   190.84337
   220  C   4.0    0.04    4.36    4.31   351.69031   127.95622   191.38839
   221  C   4.0    0.14    3.45    3.10   354.09583   126.37940   191.41633
   222  O   6.0   -0.32    1.28    1.80   355.91698   126.89961   190.08046
   223  C   4.0   -0.07    4.10    3.81   349.87569   126.85124   189.42018
   224  H   1.0    0.11    1.10    1.44   353.77893   130.77526   189.56000
   225  H   1.0    0.06    1.06    1.44   350.77543   127.90903   193.23975
   226  H   1.0    0.05    1.00    1.43   349.44964   124.90280   189.91013
   227  H   1.0    0.05    1.00    1.43   348.13067   127.93332   189.41766
   228  H   1.0    0.05    1.00    1.43   350.70342   126.91675   187.54166
   229  N   5.0   -0.14    3.49    2.07   354.02699   124.44013   193.02291
   230  C   4.0    0.04    4.54    4.59   355.82224   122.38472   192.82918
   231  C   4.0    0.15    3.45    3.09   354.70133   120.52947   190.91175
   232  O   6.0   -0.30    1.23    1.80   352.52044   119.74362   191.10893
   233  C   4.0   -0.02    4.25    4.11   356.36568   121.16917   195.39782
   234  C   4.0   -0.06    4.13    3.87   358.03616   118.85327   195.00546
   235  C   4.0   -0.07    4.12    3.84   357.69963   123.07972   197.09557
   236  H   1.0    0.08    1.07    1.44   352.37330   124.10416   193.94201
   237  H   1.0    0.07    1.08    1.44   357.57391   123.15871   192.05856
   238  H   1.0    0.05    1.05    1.44   354.56913   120.59982   196.25359
   239  H   1.0    0.05    1.00    1.43   358.61836   118.08405   196.81845
   240  H   1.0    0.06    1.00    1.43   357.04914   117.38661   193.95636
   241  H   1.0    0.06    1.00    1.43   359.70391   119.39814   193.93365
   242  H   1.0    0.05    1.00    1.43   357.91448   122.32299   198.98981
   243  H   1.0    0.04    1.00    1.43   359.56087   123.49223   196.33207
   244  H   1.0    0.05    1.00    1.43   356.63097   124.82766   197.19452
   245  N   5.0   -0.13    3.48    2.06   356.20911   120.03725   188.96327
   246  C   4.0    0.04    4.32    4.23   355.53086   118.39879   186.88032
   247  C   4.0    0.09    3.23    3.04   356.73100   115.81103   187.33934
   248  O   6.0   -0.29    1.17    1.80   358.97564   115.61963   187.86566
   249  C   4.0   -0.04    4.28    4.16   356.51233   119.49595   184.39630
   250  C   4.0   -0.05    4.19    3.98   355.53418   118.01669   182.12144
   251  C   4.0   -0.05    4.19    3.98   356.54247   119.16107   179.67524
   252  C   4.0   -0.03    4.12    3.85   355.20548   118.10778   177.35482
   253  N   5.0   -0.11    4.01    2.88   356.00638   119.55055   175.08937
   254  H   1.0    0.11    1.10    1.44   358.03613   120.63562   189.03485
   255  H   1.0    0.05    1.06    1.44   353.47503   118.21623   186.82807
   256  H   1.0    0.04    1.03    1.43   355.87436   121.45104   184.25338
   257  H   1.0    0.07    1.03    1.43   358.57571   119.48539   184.43024
   258  H   1.0    0.05    1.03    1.43   356.08697   116.03414   182.24218
   259  H   1.0    0.04    1.03    1.43   353.46991   118.05018   182.11724
   260  H   1.0    0.05    1.03    1.43   356.24808   121.19980   179.72940
   261  H   1.0    0.05    1.03    1.43   358.56601   118.80012   179.54529
   262  H   1.0    0.05    1.02    1.43   355.59159   116.09531   177.13474
   263  H   1.0    0.05    1.02    1.43   353.16602   118.30950   177.57622
   264  H   1.0    0.08    1.02    1.43   354.89245   119.11960   173.57463
   265  H   1.0    0.12    1.17    1.46   355.77564   121.62289   175.51841
   266  H   1.0    0.07    1.02    1.43   357.85851   119.19504   174.68077
   267  N   5.0   -0.18    3.24    1.97   346.39021   116.33625   187.35863
   268  C   4.0    0.04    4.22    4.05   347.04785   118.78367   188.38150
   269  C   4.0    0.09    3.22    3.04   345.85283   119.09312   190.99795
   270  O   6.0   -0.26    1.13    1.80   343.68725   118.37496   191.40498
   271  C   4.0   -0.03    4.33    4.25   345.97210   120.92433   186.70751
   272  C   4.0   -0.02    3.57    3.15   346.69820   120.63697   183.97896
   273  C   4.0   -0.04    3.47    3.10   345.14863   119.30126   182.32880
   274  C   4.0   -0.05    3.47    3.10   348.90515   121.69805   183.04217
   275  C   4.0   -0.03    3.44    3.09   345.74502   119.07507   179.80266
   276  C   4.0   -0.05    3.43    3.09   349.51375   121.49829   180.50840
   277  C   4.0    0.07    3.44    3.09   347.93024   120.20046   178.85513
   278  O   6.0   -0.23    2.11    1.84   348.41709   119.96634   176.34604
   279  H   1.0    0.11    1.03    1.43   344.54111   115.86797   187.44758
   280  H   1.0    0.06    1.05    1.44   349.10646   118.88800   188.47483
   281  H   1.0    0.06    1.03    1.43   343.91489   120.86645   186.87177
   282  H   1.0    0.04    1.03    1.43   346.66127   122.72356   187.43744
   283  H   1.0    0.06    1.03    1.43   343.42835   118.43567   183.00975
   284  H   1.0    0.05    1.03    1.43   350.14903   122.71889   184.29621
   285  H   1.0    0.07    1.03    1.43   344.56111   118.00778   178.53285
   286  H   1.0    0.05    1.03    1.43   351.21886   122.36206   179.79397
   287  H   1.0    0.16    1.09    1.44   349.66607   121.22295   175.76757
   288  N   5.0   -0.19    3.22    1.96   364.95711   132.28104   206.55305
   289  C   4.0    0.03    4.29    4.19   362.63288   131.67149   205.24394
   290  C   4.0    0.08    3.23    3.04   361.40451   129.35261   206.42160
   291  O   6.0   -0.27    1.12    1.80   362.43227   127.29138   206.63332
   292  C   4.0   -0.02    4.33    4.26   363.08501   131.37721   202.37419
   293  C   4.0   -0.05    4.19    3.99   360.57429   130.77458   201.06462
   294  C   4.0   -0.07    4.13    3.85   365.11399   129.41158   201.82459
   295  C   4.0   -0.08    4.01    3.64   360.72616   131.03592   198.20083
   296  H   1.0    0.10    1.02    1.43   365.92727   130.87314   207.44529
   297  H   1.0    0.04    1.05    1.44   361.36011   133.28367   205.52423
   298  H   1.0    0.04    1.05    1.44   363.76954   133.22069   201.71638
   299  H   1.0    0.05    1.03    1.43   360.00613   128.85606   201.57422
   300  H   1.0    0.04    1.03    1.43   359.13665   132.06414   201.79821
   301  H   1.0    0.03    1.00    1.43   365.42843   129.25538   199.80524
   302  H   1.0    0.04    1.00    1.43   366.89124   129.95647   202.70464
   303  H   1.0    0.06    1.00    1.43   364.56213   127.58408   202.58247
   304  H   1.0    0.04    1.00    1.43   358.86128   130.81910   197.37341
   305  H   1.0    0.03    1.00    1.43   361.45474   132.89163   197.70913
   306  H   1.0    0.03    1.00    1.43   361.96854   129.61286   197.40480
   307  H   1.0    0.10    1.09    1.44   342.37715   127.56351   170.97725
   308  H   1.0    0.06    1.04    1.44   374.36396   139.72241   193.62105
   309  H   1.0    0.10    1.08    1.44   373.96957   122.27667   202.72026
   310  H   1.0    0.06    1.05    1.44   371.45490   120.38734   205.57973
   311  H   1.0    0.10    1.08    1.44   364.70145   116.78509   188.25158
   312  H   1.0    0.06    1.04    1.43   340.00587   135.53892   173.77220
   313  H   1.0    0.09    1.07    1.44   351.64556   138.40377   190.70931
   314  H   1.0    0.06    1.04    1.44   355.67986   114.24586   187.21111
   315  H   1.0    0.10    1.09    1.44   346.81663   116.27536   185.71333
   316  H   1.0    0.06    1.04    1.43   346.83981   119.88868   192.39938
   317  H   1.0    0.09    1.08    1.44   366.07514   132.93444   205.45049
   318  H   1.0    0.06    1.05    1.44   359.63871   129.45393   207.08696

  Z AO/shell   Hii/eV     exponent
  1     Wed Apr 25 08:07:45 CEST 2018   EN: 2.200 GM2: 0.406  GM3: 0.0800  RAES: 1.40
     1s    -10.707211    1.230000
  6     Wed Apr 25 08:07:45 CEST 2018   EN: 2.550 GM2: 0.538  GM3: 0.1500  RAES: 3.00
     2s    -13.970922    2.096432
     2p    -10.063292    1.800000
  7     Wed Apr 25 08:07:45 CEST 2018   EN: 3.040 GM2: 0.461  GM3:-0.0640  RAES: 1.90
     2s    -16.686243    2.339881
     2p    -12.523956    2.014332
  8     Wed Apr 25 08:07:45 CEST 2018   EN: 3.440 GM2: 0.452  GM3:-0.0517  RAES: 1.80
     2s    -20.229985    2.439742
     2p    -15.503117    2.137023
 16     Tue Apr 24 11:44:34 CEST 2018   EN: 2.580 GM2: 0.340  GM3:-0.0502  RAES: 3.10
     3s    -20.029654    1.981333
     3p    -11.377694    2.025643
     3d     -0.420282    1.702555
 no old-style atom pair restraining (fixing) potential

molecular fragmentation (1/2 indicates fragments):
111111111111111111111111111111111111111111111111111111111111111111111111
111111111111111222222222222222222222222222222222222222222222222222222222
222222222222222222222222222222222222222222222222222222222222222222222222
222222222222222222222222222222222222222222222222222222222222222222222222
222222222222222222112222222222
# atoms in fragment 1/2:    89   229
 fragment masses (1/2) :      646.67     1444.92
CMA distance (Bohr)    :  10.938
constraining FC (au)   :  0.0500
           ------------------------------------------------- 
          |        Self-Consistent Charge Iterations        |
           ------------------------------------------------- 

 Ncao       : 759
 Nao        : 758
 Nshell     : 464
 Nel        : 832
 T(el)      :   500.0
 intcut     :    35.0
 scfconv/Eh :  0.100E-06
   qconv/e  :  0.100E-04
 intneglect :  0.100E-08
 broydamp   :      0.400
 iter      E             dE          RMSdq      gap      omega  full diag
   1   -475.3303806 -0.475330E+03  0.450E+00    3.12       0.0  T
   2   -476.3941614 -0.106378E+01  0.211E+00    1.43       1.0  T
   3   -476.4572871 -0.631257E-01  0.118E+00    1.52       1.0  T
   4   -476.5278750 -0.705880E-01  0.251E-01    0.90       1.0  T
   5   -476.5314881 -0.361302E-02  0.119E-01    1.13       1.0  T
   6   -476.5322775 -0.789447E-03  0.492E-02    1.11       1.0  T
   7   -476.5324497 -0.172223E-03  0.227E-02    1.10       1.0  T
   8   -476.5324733 -0.235746E-04  0.109E-02    1.10       1.0  T
   9   -476.5324817 -0.837120E-05  0.512E-03    1.10       1.1  T
  10   -476.5324831 -0.144250E-05  0.232E-03    1.10       2.4  T
  11   -476.5324833 -0.224217E-06  0.105E-03    1.10       5.3  T
  12   -476.5324834 -0.394475E-07  0.468E-04    1.10      12.0  T
  13   -476.5324834 -0.140572E-07  0.237E-04    1.10      23.6  T
  14   -476.5324834 -0.308540E-08  0.101E-04    1.10      55.8  T
  15   -476.5324834 -0.644832E-09  0.427E-05    1.10     131.2  T
  16   -476.5324834 -0.122441E-09  0.180E-05    1.10     311.9  T
speedup 11.41
cpu  time for SCC   25.38 s
wall time for SCC    2.22 s

   *** convergence criteria satisfied after 16 iterations ***

          eigenvalues
 #    :         404        405        406        407        408        409        410        411
 occ. :        2.000      2.000      2.000      2.000      2.000      2.000      2.000      2.000
 eps  :       -10.758    -10.745    -10.681    -10.660    -10.619    -10.420    -10.088    -10.084
 #    :         412        413        414        415        416        417        418        419
 occ. :        2.000      2.000      2.000      2.000      2.000      0.000      0.000      0.000
 eps  :       -10.042     -9.936     -9.761     -9.682     -9.675     -8.578     -7.982     -7.778
 #    :         420        421        422        423        424        425        426        427
 occ. :        0.000      0.000      0.000      0.000      0.000      0.000      0.000      0.000
 eps  :        -7.712     -7.680     -7.580     -6.623     -6.448     -6.400     -6.376     -6.317


   #   Z            q   n(s)   n(p)   n(d)      C6AA      α(0)
   1   7 N     -0.399  1.322  4.077  0.000    30.353     8.182
   2   6 C      0.020  1.059  2.921  0.000    20.249     6.410
   3   6 C      0.281  1.043  2.676  0.000    22.238     7.723
   4   8 O     -0.475  1.728  4.747  0.000    23.244     6.464
   5   6 C      0.072  1.042  2.886  0.000    19.596     6.341
   6   8 O     -0.473  1.712  4.761  0.000    22.318     6.377
   7   1 H      0.181  0.819  0.000  0.000     1.210     1.723
   8   1 H      0.045  0.955  0.000  0.000     2.390     2.418
   9   1 H      0.045  0.955  0.000  0.000     2.387     2.416
  10   1 H      0.032  0.968  0.000  0.000     2.564     2.504
  11   1 H      0.321  0.679  0.000  0.000     0.660     1.276
  12   7 N     -0.167  1.241  3.926  0.000    24.623     7.370
  13   6 C      0.031  1.057  2.912  0.000    20.053     6.375
  14   6 C      0.275  1.038  2.687  0.000    22.354     7.742
  15   8 O     -0.488  1.748  4.740  0.000    23.527     6.503
  16   6 C     -0.100  1.061  3.039  0.000    22.413     6.740
  17   6 C      0.368  1.022  2.610  0.000    20.765     7.458
  18   8 O     -0.553  1.752  4.801  0.000    24.965     6.700
  19   8 O     -0.591  1.761  4.830  0.000    25.897     6.823
  20   1 H      0.198  0.802  0.000  0.000     1.117     1.655
  21   1 H      0.076  0.924  0.000  0.000     2.021     2.223
  22   1 H      0.058  0.942  0.000  0.000     2.226     2.333
  23   1 H      0.059  0.941  0.000  0.000     2.214     2.327
  24   7 N     -0.176  1.240  3.936  0.000    24.808     7.397
  25   6 C      0.002  1.068  2.930  0.000    20.557     6.457
  26   6 C      0.272  1.041  2.688  0.000    22.412     7.753
  27   8 O     -0.470  1.730  4.740  0.000    23.132     6.448
  28   6 C      0.110  1.047  2.842  0.000    18.869     6.202
  29   8 O     -0.462  1.707  4.755  0.000    22.084     6.344
  30   6 C     -0.140  1.046  3.094  0.000    23.253     6.877
  31   1 H      0.226  0.774  0.000  0.000     0.982     1.552
  32   1 H      0.070  0.930  0.000  0.000     2.082     2.256
  33   1 H      0.050  0.950  0.000  0.000     2.319     2.381
  34   1 H      0.333  0.667  0.000  0.000     0.630     1.247
  35   1 H      0.080  0.920  0.000  0.000     1.976     2.198
  36   1 H      0.047  0.953  0.000  0.000     2.358     2.401
  37   1 H      0.053  0.947  0.000  0.000     2.278     2.360
  38   7 N     -0.171  1.249  3.922  0.000    24.690     7.380
  39   6 C      0.022  1.062  2.916  0.000    20.207     6.401
  40   6 C      0.280  1.039  2.681  0.000    22.257     7.725
  41   8 O     -0.488  1.746  4.742  0.000    23.528     6.503
  42   6 C     -0.133  1.042  3.091  0.000    23.102     6.853
  43   1 H      0.216  0.784  0.000  0.000     1.029     1.589
  44   1 H      0.067  0.933  0.000  0.000     2.118     2.276
  45   1 H      0.066  0.934  0.000  0.000     2.131     2.283
  46   1 H      0.077  0.923  0.000  0.000     2.015     2.220
  47   1 H      0.069  0.931  0.000  0.000     2.101     2.267
  48   7 N     -0.185  1.254  3.932  0.000    25.014     7.428
  49   6 C      0.020  1.060  2.920  0.000    20.241     6.406
  50   6 C      0.264  1.046  2.690  0.000    22.544     7.775
  51   8 O     -0.468  1.737  4.731  0.000    23.085     6.442
  52   6 C     -0.125  1.039  3.086  0.000    22.947     6.830
  53   1 H      0.225  0.775  0.000  0.000     0.986     1.555
  54   1 H      0.075  0.925  0.000  0.000     2.035     2.231
  55   1 H      0.071  0.929  0.000  0.000     2.074     2.252
  56   1 H      0.067  0.933  0.000  0.000     2.123     2.278
  57   1 H      0.060  0.940  0.000  0.000     2.195     2.317
  58   7 N     -0.169  1.243  3.926  0.000    24.656     7.375
  59   6 C      0.012  1.067  2.922  0.000    20.389     6.430
  60   6 C      0.274  1.042  2.684  0.000    22.359     7.743
  61   8 O     -0.488  1.753  4.735  0.000    23.521     6.502
  62   6 C      0.117  1.043  2.841  0.000    18.766     6.185
  63   8 O     -0.482  1.718  4.763  0.000    22.498     6.403
  64   6 C     -0.139  1.047  3.093  0.000    23.241     6.875
  65   1 H      0.227  0.773  0.000  0.000     0.977     1.549
  66   1 H      0.073  0.927  0.000  0.000     2.052     2.240
  67   1 H      0.033  0.967  0.000  0.000     2.540     2.492
  68   1 H      0.344  0.656  0.000  0.000     0.601     1.218
  69   1 H      0.063  0.937  0.000  0.000     2.167     2.302
  70   1 H      0.055  0.945  0.000  0.000     2.260     2.351
  71   1 H      0.061  0.939  0.000  0.000     2.187     2.313
  72   7 N     -0.176  1.250  3.925  0.000    24.804     7.397
  73   6 C      0.026  1.064  2.910  0.000    20.142     6.391
  74   6 C      0.213  1.083  2.704  0.000    23.501     7.939
  75   8 O     -0.377  1.756  4.621  0.000    21.227     6.177
  76   6 C     -0.015  1.062  2.952  0.000    20.799     6.486
  77   6 C     -0.124  1.041  3.083  0.000    22.929     6.827
  78   6 C     -0.126  1.042  3.084  0.000    22.980     6.835
  79   1 H      0.232  0.768  0.000  0.000     0.957     1.532
  80   1 H      0.074  0.926  0.000  0.000     2.037     2.232
  81   1 H      0.055  0.945  0.000  0.000     2.262     2.352
  82   1 H      0.063  0.937  0.000  0.000     2.159     2.298
  83   1 H      0.034  0.966  0.000  0.000     2.529     2.487
  84   1 H      0.058  0.942  0.000  0.000     2.219     2.329
  85   1 H      0.064  0.936  0.000  0.000     2.156     2.296
  86   1 H      0.056  0.944  0.000  0.000     2.243     2.342
  87   1 H      0.058  0.942  0.000  0.000     2.224     2.332
  88   7 N     -0.382  1.319  4.063  0.000    29.879     8.118
  89   6 C      0.038  1.055  2.907  0.000    19.950     6.363
  90   6 C      0.193  1.086  2.720  0.000    23.869     8.001
  91   8 O     -0.397  1.764  4.633  0.000    21.630     6.236
  92   6 C     -0.066  1.057  3.009  0.000    21.751     6.638
  93   6 C     -0.012  1.057  2.955  0.000    20.751     6.479
  94   6 C     -0.112  1.041  3.071  0.000    22.694     6.792
  95   6 C     -0.120  1.041  3.079  0.000    22.859     6.817
  96   1 H      0.166  0.834  0.000  0.000     1.297     1.784
  97   1 H      0.072  0.928  0.000  0.000     2.068     2.249
  98   1 H      0.042  0.958  0.000  0.000     2.422     2.434
  99   1 H      0.055  0.945  0.000  0.000     2.254     2.348
 100   1 H      0.046  0.954  0.000  0.000     2.376     2.410
 101   1 H      0.038  0.962  0.000  0.000     2.479     2.462
 102   1 H      0.037  0.963  0.000  0.000     2.490     2.468
 103   1 H      0.040  0.960  0.000  0.000     2.450     2.448
 104   1 H      0.051  0.949  0.000  0.000     2.314     2.379
 105   1 H      0.041  0.959  0.000  0.000     2.431     2.438
 106   1 H      0.037  0.963  0.000  0.000     2.490     2.468
 107   7 N     -0.391  1.316  4.075  0.000    30.127     8.152
 108   6 C      0.027  1.059  2.914  0.000    20.136     6.392
 109   6 C      0.280  1.045  2.675  0.000    22.259     7.726
 110   8 O     -0.471  1.732  4.740  0.000    23.161     6.452
 111   6 C      0.072  1.043  2.885  0.000    19.597     6.343
 112   8 O     -0.478  1.721  4.757  0.000    22.416     6.391
 113   1 H      0.179  0.821  0.000  0.000     1.220     1.730
 114   1 H      0.047  0.953  0.000  0.000     2.363     2.404
 115   1 H      0.022  0.978  0.000  0.000     2.705     2.572
 116   1 H      0.033  0.967  0.000  0.000     2.545     2.495
 117   1 H      0.334  0.666  0.000  0.000     0.626     1.243
 118   7 N     -0.164  1.237  3.926  0.000    24.539     7.357
 119   6 C      0.011  1.065  2.924  0.000    20.398     6.430
 120   6 C      0.272  1.043  2.684  0.000    22.401     7.751
 121   8 O     -0.495  1.735  4.760  0.000    23.668     6.523
 122   6 C     -0.020  1.062  2.958  0.000    20.899     6.502
 123   6 C     -0.116  1.040  3.077  0.000    22.781     6.805
 124   6 C     -0.113  1.040  3.073  0.000    22.720     6.796
 125   1 H      0.199  0.801  0.000  0.000     1.109     1.649
 126   1 H      0.081  0.919  0.000  0.000     1.971     2.195
 127   1 H      0.058  0.942  0.000  0.000     2.217     2.328
 128   1 H      0.061  0.939  0.000  0.000     2.186     2.312
 129   1 H      0.034  0.966  0.000  0.000     2.524     2.485
 130   1 H      0.044  0.956  0.000  0.000     2.390     2.418
 131   1 H      0.055  0.945  0.000  0.000     2.256     2.349
 132   1 H      0.044  0.956  0.000  0.000     2.398     2.422
 133   1 H      0.039  0.961  0.000  0.000     2.464     2.455
 134   7 N     -0.164  1.242  3.922  0.000    24.544     7.358
 135   6 C      0.007  1.063  2.929  0.000    20.453     6.439
 136   6 C      0.267  1.043  2.690  0.000    22.486     7.765
 137   8 O     -0.478  1.735  4.742  0.000    23.299     6.472
 138   6 C     -0.010  1.062  2.948  0.000    20.714     6.473
 139   6 C     -0.120  1.039  3.081  0.000    22.852     6.816
 140   6 C     -0.115  1.037  3.078  0.000    22.756     6.802
 141   1 H      0.228  0.772  0.000  0.000     0.975     1.547
 142   1 H      0.088  0.912  0.000  0.000     1.903     2.157
 143   1 H      0.030  0.970  0.000  0.000     2.586     2.515
 144   1 H      0.065  0.935  0.000  0.000     2.145     2.290
 145   1 H      0.040  0.960  0.000  0.000     2.451     2.448
 146   1 H      0.046  0.954  0.000  0.000     2.377     2.411
 147   1 H      0.046  0.954  0.000  0.000     2.366     2.406
 148   1 H      0.050  0.950  0.000  0.000     2.318     2.381
 149   1 H      0.040  0.960  0.000  0.000     2.452     2.449
 150   7 N     -0.184  1.249  3.934  0.000    24.980     7.423
 151   6 C      0.014  1.066  2.920  0.000    20.342     6.423
 152   6 C      0.269  1.046  2.685  0.000    22.457     7.760
 153   8 O     -0.492  1.733  4.759  0.000    23.612     6.515
 154   6 C     -0.089  1.057  3.032  0.000    22.191     6.706
 155   6 C     -0.079  1.050  3.029  0.000    22.005     6.679
 156   6 C     -0.099  1.052  3.046  0.000    22.383     6.736
 157   6 C     -0.052  1.057  2.995  0.000    21.598     6.634
 158   7 N     -0.140  1.232  3.907  0.000    24.011     7.278
 159   1 H      0.231  0.769  0.000  0.000     0.963     1.537
 160   1 H      0.069  0.931  0.000  0.000     2.102     2.267
 161   1 H      0.066  0.934  0.000  0.000     2.127     2.281
 162   1 H      0.085  0.915  0.000  0.000     1.924     2.169
 163   1 H      0.056  0.944  0.000  0.000     2.245     2.343
 164   1 H      0.073  0.927  0.000  0.000     2.058     2.243
 165   1 H      0.075  0.925  0.000  0.000     2.034     2.230
 166   1 H      0.080  0.920  0.000  0.000     1.975     2.198
 167   1 H      0.118  0.882  0.000  0.000     1.632     1.998
 168   1 H      0.116  0.884  0.000  0.000     1.644     2.005
 169   1 H      0.288  0.712  0.000  0.000     0.749     1.356
 170   1 H      0.288  0.712  0.000  0.000     0.749     1.356
 171   1 H      0.301  0.699  0.000  0.000     0.710     1.320
 172   7 N     -0.147  1.238  3.909  0.000    24.179     7.303
 173   6 C      0.017  1.060  2.923  0.000    20.293     6.415
 174   6 C      0.268  1.042  2.690  0.000    22.470     7.763
 175   8 O     -0.453  1.727  4.726  0.000    22.769     6.398
 176   6 C     -0.074  1.055  3.019  0.000    21.889     6.657
 177   6 C     -0.019  1.067  2.952  0.000    20.918     6.513
 178  16 S     -0.214  1.916  4.247  0.050   150.168    20.625
 179   6 C     -0.057  1.051  3.006  0.000    21.669     6.640
 180   1 H      0.213  0.787  0.000  0.000     1.043     1.600
 181   1 H      0.081  0.919  0.000  0.000     1.970     2.195
 182   1 H      0.072  0.928  0.000  0.000     2.065     2.247
 183   1 H      0.063  0.937  0.000  0.000     2.166     2.301
 184   1 H      0.065  0.935  0.000  0.000     2.145     2.290
 185   1 H      0.056  0.944  0.000  0.000     2.245     2.343
 186   1 H      0.045  0.955  0.000  0.000     2.388     2.416
 187   1 H      0.051  0.949  0.000  0.000     2.313     2.378
 188   1 H      0.062  0.938  0.000  0.000     2.181     2.309
 189   7 N     -0.169  1.237  3.932  0.000    24.647     7.373
 190   6 C      0.019  1.059  2.922  0.000    20.265     6.411
 191   6 C      0.191  1.095  2.714  0.000    23.916     8.009
 192   8 O     -0.358  1.753  4.605  0.000    20.856     6.123
 193   6 C      0.067  1.039  2.894  0.000    19.666     6.353
 194   8 O     -0.461  1.704  4.756  0.000    22.062     6.341
 195   1 H      0.217  0.783  0.000  0.000     1.023     1.584
 196   1 H      0.113  0.887  0.000  0.000     1.672     2.022
 197   1 H      0.061  0.939  0.000  0.000     2.193     2.316
 198   1 H      0.049  0.951  0.000  0.000     2.332     2.388
 199   1 H      0.357  0.643  0.000  0.000     0.572     1.188
 200   7 N     -0.388  1.315  4.072  0.000    30.028     8.139
 201   6 C      0.023  1.059  2.918  0.000    20.205     6.402
 202   6 C      0.271  1.047  2.683  0.000    22.426     7.755
 203   8 O     -0.513  1.756  4.757  0.000    24.069     6.578
 204   6 C     -0.067  1.059  3.008  0.000    21.774     6.642
 205   6 C     -0.009  1.056  2.953  0.000    20.706     6.472
 206   6 C     -0.115  1.042  3.073  0.000    22.761     6.802
 207   6 C     -0.119  1.041  3.078  0.000    22.829     6.813
 208   1 H      0.151  0.849  0.000  0.000     1.395     1.850
 209   1 H      0.066  0.934  0.000  0.000     2.133     2.284
 210   1 H      0.024  0.976  0.000  0.000     2.671     2.556
 211   1 H      0.031  0.969  0.000  0.000     2.569     2.506
 212   1 H      0.030  0.970  0.000  0.000     2.583     2.513
 213   1 H      0.045  0.955  0.000  0.000     2.385     2.415
 214   1 H      0.031  0.969  0.000  0.000     2.577     2.510
 215   1 H      0.042  0.958  0.000  0.000     2.424     2.435
 216   1 H      0.049  0.951  0.000  0.000     2.332     2.388
 217   1 H      0.042  0.958  0.000  0.000     2.417     2.431
 218   1 H      0.040  0.960  0.000  0.000     2.451     2.448
 219   7 N     -0.186  1.243  3.943  0.000    25.032     7.431
 220   6 C      0.025  1.053  2.922  0.000    20.159     6.393
 221   6 C      0.266  1.043  2.690  0.000    22.506     7.769
 222   8 O     -0.471  1.729  4.742  0.000    23.155     6.452
 223   6 C     -0.119  1.040  3.079  0.000    22.834     6.813
 224   1 H      0.229  0.771  0.000  0.000     0.968     1.542
 225   1 H      0.059  0.941  0.000  0.000     2.215     2.328
 226   1 H      0.047  0.953  0.000  0.000     2.356     2.401
 227   1 H      0.064  0.936  0.000  0.000     2.154     2.295
 228   1 H      0.068  0.932  0.000  0.000     2.105     2.269
 229   7 N     -0.166  1.252  3.913  0.000    24.586     7.364
 230   6 C      0.008  1.069  2.923  0.000    20.434     6.435
 231   6 C      0.269  1.045  2.687  0.000    22.460     7.761
 232   8 O     -0.506  1.750  4.756  0.000    23.918     6.557
 233   6 C     -0.013  1.059  2.955  0.000    20.777     6.483
 234   6 C     -0.118  1.039  3.079  0.000    22.812     6.809
 235   6 C     -0.118  1.040  3.078  0.000    22.811     6.809
 236   1 H      0.197  0.803  0.000  0.000     1.119     1.657
 237   1 H      0.099  0.901  0.000  0.000     1.794     2.095
 238   1 H      0.039  0.961  0.000  0.000     2.459     2.452
 239   1 H      0.054  0.946  0.000  0.000     2.274     2.358
 240   1 H      0.027  0.973  0.000  0.000     2.636     2.539
 241   1 H      0.061  0.939  0.000  0.000     2.186     2.312
 242   1 H      0.049  0.951  0.000  0.000     2.330     2.387
 243   1 H      0.052  0.948  0.000  0.000     2.299     2.371
 244   1 H      0.045  0.955  0.000  0.000     2.382     2.414
 245   7 N     -0.172  1.250  3.922  0.000    24.725     7.385
 246   6 C      0.028  1.055  2.917  0.000    20.109     6.386
 247   6 C      0.199  1.088  2.713  0.000    23.754     7.982
 248   8 O     -0.347  1.750  4.597  0.000    20.649     6.092
 249   6 C     -0.078  1.057  3.020  0.000    21.978     6.673
 250   6 C     -0.071  1.049  3.022  0.000    21.854     6.655
 251   6 C     -0.087  1.053  3.034  0.000    22.164     6.702
 252   6 C     -0.027  1.050  2.977  0.000    21.151     6.564
 253   7 N     -0.197  1.260  3.938  0.000    25.274     7.467
 254   1 H      0.236  0.764  0.000  0.000     0.942     1.520
 255   1 H      0.076  0.924  0.000  0.000     2.021     2.223
 256   1 H      0.070  0.930  0.000  0.000     2.091     2.261
 257   1 H      0.081  0.919  0.000  0.000     1.969     2.195
 258   1 H      0.049  0.951  0.000  0.000     2.338     2.391
 259   1 H      0.050  0.950  0.000  0.000     2.316     2.380
 260   1 H      0.074  0.926  0.000  0.000     2.046     2.237
 261   1 H      0.072  0.928  0.000  0.000     2.064     2.247
 262   1 H      0.093  0.907  0.000  0.000     1.850     2.127
 263   1 H      0.085  0.915  0.000  0.000     1.928     2.172
 264   1 H      0.260  0.740  0.000  0.000     0.844     1.439
 265   1 H      0.305  0.695  0.000  0.000     0.697     1.307
 266   1 H      0.267  0.733  0.000  0.000     0.819     1.418
 267   7 N     -0.385  1.318  4.067  0.000    29.948     8.128
 268   6 C      0.040  1.058  2.902  0.000    19.923     6.358
 269   6 C      0.205  1.086  2.709  0.000    23.645     7.964
 270   8 O     -0.381  1.758  4.624  0.000    21.314     6.190
 271   6 C     -0.067  1.055  3.012  0.000    21.778     6.642
 272   6 C      0.002  1.075  2.924  0.000    27.989     8.678
 273   6 C     -0.043  1.082  2.961  0.000    29.061     8.841
 274   6 C     -0.041  1.082  2.958  0.000    29.010     8.833
 275   6 C     -0.064  1.077  2.987  0.000    29.591     8.920
 276   6 C     -0.072  1.075  2.998  0.000    29.802     8.952
 277   6 C      0.146  1.046  2.808  0.000    24.824     8.165
 278   8 O     -0.445  1.719  4.725  0.000    21.734     6.293
 279   1 H      0.159  0.841  0.000  0.000     1.342     1.814
 280   1 H      0.069  0.931  0.000  0.000     2.097     2.265
 281   1 H      0.045  0.955  0.000  0.000     2.388     2.416
 282   1 H      0.047  0.953  0.000  0.000     2.354     2.399
 283   1 H      0.036  0.964  0.000  0.000     2.509     2.477
 284   1 H      0.048  0.952  0.000  0.000     2.350     2.397
 285   1 H      0.043  0.957  0.000  0.000     2.414     2.429
 286   1 H      0.036  0.964  0.000  0.000     2.498     2.471
 287   1 H      0.339  0.661  0.000  0.000     0.614     1.231
 288   7 N     -0.381  1.319  4.062  0.000    29.853     8.115
 289   6 C      0.035  1.059  2.906  0.000    20.007     6.371
 290   6 C      0.205  1.084  2.710  0.000    23.638     7.962
 291   8 O     -0.386  1.759  4.627  0.000    21.412     6.204
 292   6 C     -0.021  1.071  2.950  0.000    20.908     6.503
 293   6 C     -0.061  1.050  3.012  0.000    21.678     6.629
 294   6 C     -0.109  1.034  3.075  0.000    22.644     6.785
 295   6 C     -0.110  1.037  3.073  0.000    22.656     6.788
 296   1 H      0.154  0.846  0.000  0.000     1.376     1.838
 297   1 H      0.050  0.950  0.000  0.000     2.322     2.383
 298   1 H      0.050  0.950  0.000  0.000     2.321     2.382
 299   1 H      0.026  0.974  0.000  0.000     2.645     2.543
 300   1 H      0.032  0.968  0.000  0.000     2.557     2.501
 301   1 H      0.058  0.942  0.000  0.000     2.225     2.333
 302   1 H      0.035  0.965  0.000  0.000     2.511     2.478
 303   1 H      0.040  0.960  0.000  0.000     2.451     2.448
 304   1 H      0.037  0.963  0.000  0.000     2.484     2.465
 305   1 H      0.048  0.952  0.000  0.000     2.343     2.394
 306   1 H      0.051  0.949  0.000  0.000     2.313     2.378
 307   1 H      0.181  0.819  0.000  0.000     1.206     1.720
 308   1 H      0.070  0.930  0.000  0.000     2.089     2.260
 309   1 H      0.174  0.826  0.000  0.000     1.249     1.751
 310   1 H      0.058  0.942  0.000  0.000     2.226     2.333
 311   1 H      0.176  0.824  0.000  0.000     1.239     1.743
 312   1 H      0.097  0.903  0.000  0.000     1.810     2.103
 313   1 H      0.184  0.816  0.000  0.000     1.188     1.708
 314   1 H      0.078  0.922  0.000  0.000     1.999     2.211
 315   1 H      0.185  0.815  0.000  0.000     1.186     1.706
 316   1 H      0.062  0.938  0.000  0.000     2.172     2.305
 317   1 H      0.190  0.810  0.000  0.000     1.157     1.685
 318   1 H      0.057  0.943  0.000  0.000     2.232     2.336

 Mol. C6AA /au·bohr⁶  :     878521.886246
 Mol. C8AA /au·bohr⁸  :   19464204.342757
 Mol. α(0) /au        :       1399.376697

 
molecular dipole:
                 x           y           z       tot (Debye)
 q only:      355.922     141.806     170.509
   full:      355.618     141.154     169.630    1063.807
molecular quadrupole (traceless):
                xx          xy          yy          xz          yz          zz
 q only:   102165.568   75535.887  -57667.555   91096.474   36513.808  -44498.013
  q+dip:   102224.059   75126.657  -57611.199   90556.417   36171.041  -44612.860
   full:   102220.566   75123.946  -57610.615   90559.590   36170.208  -44609.951
speedup 11.70
cpu  time for grad   27.74 s
wall time for grad    2.37 s

SCC energy    :    -476.5461590
rep           :       5.6977118
ES            :       1.2241447
AES           :      -0.0438818
AXC           :       0.1558405
disp          :      -0.3966343
XB            :       0.0000000
fix           :       0.0000000
Gborn         :       0.0000000
Gsasa         :       0.0000000
Ghb           :       0.0000000
Gshift        :       0.0000000
Gsolv         :      -0.2382761     -149.52
Etot ala COSMO:    -476.5461590
grad norm     :       0.5500104
total E       :    -470.8085661
atomizationE  :      85.9236558    53917.91
(atE without considering molecular charge,
 total energy contains solvation terms)
H-L gap (eV)  :          1.0973

------------------------------------------------------------------------
 * finished run on 2019/02/13 at 00:18:42.433     
------------------------------------------------------------------------
 total:
 * wall-time:     0 d,  0 h,  0 min,  2.578 sec
 *  cpu-time:     0 d,  0 h,  0 min, 30.813 sec
 * ratio c/w:    11.951 speedup
 SCF:
 * wall-time:     0 d,  0 h,  0 min,  2.476 sec
 *  cpu-time:     0 d,  0 h,  0 min, 29.408 sec
 * ratio c/w:    11.880 speedup

