      -----------------------------------------------------------      
     |                   =====================                   |     
     |                           x T B                           |     
     |                   =====================                   |     
     |                         S. Grimme                         |     
     |          Mulliken Center for Theoretical Chemistry        |     
     |                    University of Bonn                     |     
     |                Version 6.1 RC1 (SAW190329)                |     
      -----------------------------------------------------------      

   This program is distributed in the hope that it will be useful,
   but WITHOUT ANY WARRANTY; without even the implied warranty of
   MERCHANTABILITY or FITNESS FOR A PARTICULAR PURPOSE.
   
   FOR NON-COMMERCIAL, ACADEMIA USE ONLY.
   
   Cite this work as:
   S. Grimme, C. Bannwarth, P. Shushkov, J. Comput. Theory Chem., 2017,
   13, 1989-2009. DOI: 10.1021/acs.jctc.7b00118
   C. Bannwarth, S. Ehlert and S. Grimme., J. Comput. Theory Chem., 2019,
   just accepted. DOI: 10.1021/acs.jctc.8b01176
   
   for sTDA-xTB:
   S. Grimme and C. Bannwarth, J. Chem. Phys., 2016, 145, 054103.
   DOI: 10.1063/1.4959605
   
   in the mass-spec context:
   V. Asgeirsson, C. Bauer and S. Grimme, Chem. Sci., 2017, 8, 4879.
   DOI: 10.1039/c7sc00601b
   
   for metadynamics refer to:
   S. Grimme, ChemRxiv, Preprint. DOI: 10.26434/chemrxiv.7660532.v1
   
   with help from (in alphabetical order)
   C. Bannwarth, F. Bohle, G. Brandenburg, E. Caldeweyher, M. Checinski,
   S. Dohm, S. Ehlert, S. Ehrlich, F. März, H. Neugebauer, J. Pisarek,
   P. Pracht, P. Shushkov, and S. Spicher.
   
 * started run on 2019/05/31 at 04:12:49.869     

           -------------------------------------------------
          |                Calculation Setup                |
           -------------------------------------------------

          program call               : /home/lum/install/xtb/xtb-190329/bin/xtb xtb_tmp.xyz --chrg 0 --grad --gfn 2 --etemp 500 --acc 0.1 --gbsa h2o --parallel 1
          hostname                   : cu08
          coordinate file            : xtb_tmp.xyz
          omp threads                :                     1
          number of atoms            :                    62
          number of electrons        :                   160
          charge                     :                     0
          spin                       :                   0.0
          first test random number   :      0.34486011942528


########################################################################
# WARNING! Please study the warnings concerning your input carefully
#  - XTBPATH is not set, using XTBHOME instead
########################################################################

           ------------------------------------------------- 
          |                 G F N 2 - x T B                 |
          | Geometry, Frequencies, Noncovalent interactions |
          |            JCTC 2018 parametrisation            |
           ------------------------------------------------- 
 
             k(s)              :                1.8500
             k(p)              :                2.2300
             k(d)              :                2.2300
             k(f)              :                2.0000
             kEN (H0ij)        :               -2.0000
             D4 a1             :                0.5200
             D4 a2             :                5.0000
             D4 s6             :                1.0000
             D4 s8             :                2.7000
             D4 s9             :                5.0000
             alphaj            :                2.0000

  Z AO/shell   Hii/eV     exponent
  1     Wed Apr 25 08:07:45 CEST 2018   EN: 2.200 GM2: 0.406  GM3: 0.0800  RAES: 1.40
     1s    -10.707211    1.230000
  6     Wed Apr 25 08:07:45 CEST 2018   EN: 2.550 GM2: 0.538  GM3: 0.1500  RAES: 3.00
     2s    -13.970922    2.096432
     2p    -10.063292    1.800000
  7     Wed Apr 25 08:07:45 CEST 2018   EN: 3.040 GM2: 0.461  GM3:-0.0640  RAES: 1.90
     2s    -16.686243    2.339881
     2p    -12.523956    2.014332
  8     Wed Apr 25 08:07:45 CEST 2018   EN: 3.440 GM2: 0.452  GM3:-0.0517  RAES: 1.80
     2s    -20.229985    2.439742
     2p    -15.503117    2.137023

 Solvent             : h2o
 Using internal parameter file: .param_gbsa2_h2o
 Gsolv ref. state (COSMO-RS): gsolv [1 M gas/solution]
 temperature (mdtemp)       :    298.150000000000     
 dielectric constant        :    80.2000000000000     
 rho                        :    1.00000000000000     
 mass                       :    18.0000000000000     
 surface tension            :    15.5689454083859     
 probe radius               :   0.975313790000000     
 vdW radii scaling          :    1.00000000000000     
 Gshift (Eh)                :   1.857443126794793E-003
 c1                         :    1.55243817000000     
 soset                      :   0.130326360000000     
 HB correction              :  T
 Number of grid points      :          230

            Z     q(EN)     CN     RAES       Cart. coordinates
     1  N   5.0   -0.72    3.00    1.93    55.52556    52.86427    34.98852
     2  C   4.0    0.08    3.98    3.59    54.69984    55.16333    33.78863
     3  C   4.0    0.29    3.02    3.02    51.85346    55.70066    33.85886
     4  O   6.0   -0.42    1.00    1.80    51.05918    57.70323    32.99618
     5  C   4.0   -0.02    3.98    3.59    55.59823    55.19945    31.02464
     6  O   6.0   -0.46    1.99    1.82    54.31741    53.47751    29.45299
     7  H   1.0    0.25    1.00    1.43    55.35304    51.23845    33.98422
     8  H   1.0    0.11    0.99    1.43    55.59041    56.74475    34.79452
     9  H   1.0    0.13    0.99    1.43    55.22832    57.07833    30.25625
    10  H   1.0    0.10    0.99    1.43    57.63640    54.81628    31.00332
    11  H   1.0    0.25    0.99    1.43    54.23473    51.80579    30.25108
    12  N   5.0   -0.47    3.00    1.93    50.32430    53.89452    34.72606
    13  C   4.0    0.08    4.00    3.63    47.62835    54.40512    34.77691
    14  C   4.0    0.28    3.02    3.02    47.06991    56.44490    36.75152
    15  O   6.0   -0.41    1.00    1.80    48.06655    56.43026    38.84438
    16  C   4.0   -0.09    3.98    3.58    46.08837    51.98204    35.24574
    17  C   4.0   -0.21    3.98    3.59    46.17316    51.10922    37.98865
    18  C   4.0   -0.23    3.98    3.59    43.34442    52.38608    34.44793
    19  H   1.0    0.25    1.00    1.43    50.97269    52.36847    35.68977
    20  H   1.0    0.12    0.99    1.43    47.14161    55.13898    32.90623
    21  H   1.0    0.11    0.99    1.43    46.93689    50.52042    34.04857
    22  H   1.0    0.09    0.99    1.43    45.20048    49.30775    38.16353
    23  H   1.0    0.11    0.99    1.43    48.10673    50.89153    38.63432
    24  H   1.0    0.14    0.99    1.43    45.23015    52.48059    39.19139
    25  H   1.0    0.10    0.99    1.43    42.28515    50.64041    34.67320
    26  H   1.0    0.13    0.99    1.43    42.47874    53.80936    35.65180
    27  H   1.0    0.09    0.99    1.43    43.21199    52.97614    32.48344
    28  N   5.0   -0.33    3.03    1.93    45.41198    58.24722    36.10200
    29  C   4.0    0.07    4.03    3.67    44.50412    59.97642    38.04086
    30  C   4.0    0.27    3.01    3.02    43.24919    58.47078    40.16545
    31  O   6.0   -0.43    1.00    1.80    42.25211    56.42527    39.79079
    32  C   4.0   -0.14    4.01    3.64    42.57294    61.63663    36.66170
    33  C   4.0   -0.15    4.01    3.64    43.56106    61.64820    33.95310
    34  C   4.0   -0.05    4.02    3.65    44.49657    58.93817    33.60569
    35  H   1.0    0.12    0.99    1.43    46.08849    61.07271    38.80416
    36  H   1.0    0.12    0.99    1.43    40.72161    60.73119    36.73688
    37  H   1.0    0.10    0.99    1.43    42.44016    63.51300    37.48511
    38  H   1.0    0.09    0.99    1.43    42.11894    62.14976    32.57947
    39  H   1.0    0.11    0.99    1.43    45.13804    62.96152    33.78394
    40  H   1.0    0.10    0.99    1.43    42.94670    57.69595    33.03128
    41  H   1.0    0.12    0.99    1.43    46.02866    58.82932    32.22974
    42  N   5.0   -0.48    3.01    1.93    43.25877    59.62879    42.41982
    43  C   4.0    0.06    3.99    3.60    42.08370    58.56870    44.64656
    44  C   4.0    0.05    3.00    3.02    40.52131    60.60295    45.98059
    45  O   6.0   -0.41    1.00    1.80    41.00629    62.85410    45.76312
    46  C   4.0   -0.13    3.99    3.60    44.11700    57.64479    46.50817
    47  C   4.0   -0.09    3.98    3.58    45.80383    55.56320    45.40612
    48  C   4.0   -0.23    3.99    3.60    48.08113    55.16223    47.12585
    49  C   4.0   -0.22    3.98    3.59    44.35418    53.09299    45.08089
    50  H   1.0    0.25    1.00    1.43    43.92562    61.40483    42.61992
    51  H   1.0    0.12    0.99    1.43    40.87622    57.01127    44.02909
    52  H   1.0    0.12    0.99    1.43    45.26842    59.28076    47.01998
    53  H   1.0    0.09    0.99    1.43    43.19923    56.97818    48.23078
    54  H   1.0    0.16    0.99    1.43    46.47518    56.17228    43.54639
    55  H   1.0    0.10    0.99    1.43    49.32214    53.74728    46.31163
    56  H   1.0    0.10    0.99    1.43    49.12072    56.91636    47.36494
    57  H   1.0    0.10    0.99    1.43    47.46210    54.51719    48.97417
    58  H   1.0    0.10    0.99    1.43    45.60054    51.65157    44.31708
    59  H   1.0    0.10    0.99    1.43    43.62241    52.42651    46.88223
    60  H   1.0    0.12    0.99    1.43    42.79415    53.33572    43.77069
    61  H   1.0    0.29    1.00    1.43    57.17790    52.98610    35.37260
    62  H   1.0    0.12    1.00    1.43    39.05665    60.10822    47.06735

           ------------------------------------------------- 
          |        Self-Consistent Charge Iterations        |
           ------------------------------------------------- 

          ...................................................
          :                      SETUP                      :
          :.................................................:
          :  # basis functions                 146          :
          :  # atomic orbitals                 146          :
          :  # shells                           90          :
          :  # electrons                       160          :
          :  max. iterations                   250          :
          :  Hamiltonian                  GFN2-xTB          :
          :  restarted?                      false          :
          :  GBSA solvation                   true          :
          :  PC potential                    false          :
          :  electronic temp.          500.0000000     K    :
          :  accuracy                    0.1000000          :
          :  -> integral cutoff          0.3500000E+02      :
          :  -> integral neglect         0.1000000E-08      :
          :  -> SCF convergence          0.1000000E-06 Eh   :
          :  -> wf. convergence          0.1000000E-04 e    :
          :  Broyden damping             0.4000000          :
          ...................................................

 iter      E             dE          RMSdq      gap      omega  full diag
   1    -90.9585884 -0.909586E+02  0.393E+00    2.73       0.0  T
   2    -91.1865594 -0.227971E+00  0.205E+00    2.13       1.0  T
   3    -91.1939376 -0.737821E-02  0.108E+00    2.62       1.0  T
   4    -91.1967633 -0.282571E-02  0.239E-01    2.21       1.0  T
   5    -91.1986595 -0.189622E-02  0.899E-02    2.36       1.0  T
   6    -91.1987088 -0.492480E-04  0.362E-02    2.34       1.0  T
   7    -91.1987136 -0.481091E-05  0.117E-02    2.35       1.1  T
   8    -91.1987150 -0.141791E-05  0.420E-03    2.35       3.0  T
   9    -91.1987151 -0.127319E-06  0.184E-03    2.35       6.9  T
  10    -91.1987152 -0.173114E-07  0.693E-04    2.35      18.3  T
  11    -91.1987152 -0.686228E-08  0.218E-04    2.35      58.2  T
  12    -91.1987152 -0.374257E-09  0.705E-05    2.35     180.0  T
  13    -91.1987152 -0.438263E-10  0.361E-05    2.35     352.2  T

   *** convergence criteria satisfied after 13 iterations ***

         #    Occupation            Energy/Eh            Energy/eV
      -------------------------------------------------------------
         1        2.0000           -0.7370575             -20.0564
       ...           ...                  ...                  ...
        74        2.0000           -0.4220861             -11.4855
        75        2.0000           -0.4125186             -11.2252
        76        2.0000           -0.4095892             -11.1455
        77        2.0000           -0.4062949             -11.0558
        78        2.0000           -0.3892917             -10.5932
        79        2.0000           -0.3884189             -10.5694
        80        2.0000           -0.3793815             -10.3235 (HOMO)
        81                         -0.2928858              -7.9698 (LUMO)
        82                         -0.2232485              -6.0749
        83                         -0.2191224              -5.9626
        84                         -0.2111192              -5.7448
        85                         -0.0314432              -0.8556
       ...                                ...                  ...
       146                          0.6154826              16.7481
      -------------------------------------------------------------
                  HL-Gap            0.0864957 Eh            2.3537 eV
             Fermi-level           -0.3361336 Eh           -9.1467 eV

 SCC (total)                   0 d,  0 h,  0 min,  0.124 sec
 SCC setup                      ...        0 min,  0.003 sec (  2.062%)
 Dispersion                     ...        0 min,  0.001 sec (  0.697%)
 integral evaluation            ...        0 min,  0.014 sec ( 11.249%)
 zeroth order Hamiltonian       ...        0 min,  0.000 sec (  0.175%)
 iterations                     ...        0 min,  0.062 sec ( 50.186%)
 molecular gradient             ...        0 min,  0.043 sec ( 34.949%)
 printout                       ...        0 min,  0.001 sec (  0.662%)

         :::::::::::::::::::::::::::::::::::::::::::::::::::::
         ::                     SUMMARY                     ::
         :::::::::::::::::::::::::::::::::::::::::::::::::::::
         :: total energy              -90.106772180305 Eh   ::
         :: total w/o Gsasa/hb        -90.095944509435 Eh   ::
         :: gradient norm               0.225840462699 Eh/α ::
         :: HOMO-LUMO gap               2.353667852293 eV   ::
         ::.................................................::
         :: SCC energy                -91.200996925523 Eh   ::
         :: -> isotropic ES             0.219128558871 Eh   ::
         :: -> anisotropic ES           0.002192071893 Eh   ::
         :: -> anisotropic XC           0.029840212218 Eh   ::
         :: -> dispersion              -0.063782484603 Eh   ::
         :: -> Gsolv                   -0.037178529146 Eh   ::
         ::    -> Gborn                -0.026350858275 Eh   ::
         ::    -> Gsasa                -0.004139211216 Eh   ::
         ::    -> Ghb                  -0.008545902781 Eh   ::
         ::    -> Gshift                0.001857443127 Eh   ::
         :: repulsion energy            1.092496467431 Eh   ::
         :: add. restraining            0.000000000000 Eh   ::
         :::::::::::::::::::::::::::::::::::::::::::::::::::::

           -------------------------------------------------
          |                Property Printout                |
           -------------------------------------------------

    * Orbital Energies and Occupations

         #    Occupation            Energy/Eh            Energy/eV
      -------------------------------------------------------------
         1        2.0000           -0.7370575             -20.0564
       ...           ...                  ...                  ...
        68        2.0000           -0.4396956             -11.9647
        69        2.0000           -0.4364575             -11.8766
        70        2.0000           -0.4332795             -11.7901
        71        2.0000           -0.4287336             -11.6664
        72        2.0000           -0.4281400             -11.6503
        73        2.0000           -0.4253680             -11.5749
        74        2.0000           -0.4220861             -11.4855
        75        2.0000           -0.4125186             -11.2252
        76        2.0000           -0.4095892             -11.1455
        77        2.0000           -0.4062949             -11.0558
        78        2.0000           -0.3892917             -10.5932
        79        2.0000           -0.3884189             -10.5694
        80        2.0000           -0.3793815             -10.3235 (HOMO)
        81                         -0.2928858              -7.9698 (LUMO)
        82                         -0.2232485              -6.0749
        83                         -0.2191224              -5.9626
        84                         -0.2111192              -5.7448
        85                         -0.0314432              -0.8556
        86                         -0.0105877              -0.2881
        87                          0.0024958               0.0679
        88                          0.0124895               0.3399
        89                          0.0294995               0.8027
        90                          0.0466659               1.2698
        91                          0.0575750               1.5667
       ...                                ...                  ...
       146                          0.6154826              16.7481
      -------------------------------------------------------------
                  HL-Gap            0.0864957 Eh            2.3537 eV
             Fermi-level           -0.3361336 Eh           -9.1467 eV

   #   Z        covCN         q      C6AA      α(0)
   1   7 N      2.634    -0.393    30.183     8.159
   2   6 C      3.783     0.018    20.286     6.416
   3   6 C      2.764     0.275    22.349     7.742
   4   8 O      0.859    -0.514    24.089     6.580
   5   6 C      3.679     0.077    19.496     6.324
   6   8 O      1.653    -0.482    22.511     6.405
   7   1 H      0.860     0.163     1.314     1.795
   8   1 H      0.923     0.054     2.269     2.356
   9   1 H      0.924     0.049     2.333     2.388
  10   1 H      0.924     0.031     2.567     2.506
  11   1 H      0.803     0.328     0.642     1.258
  12   7 N      2.688    -0.168    24.628     7.370
  13   6 C      3.807     0.021    20.215     6.400
  14   6 C      2.763     0.276    22.339     7.740
  15   8 O      0.859    -0.508    23.965     6.563
  16   6 C      3.851    -0.017    20.841     6.493
  17   6 C      3.756    -0.111    22.676     6.790
  18   6 C      3.757    -0.120    22.858     6.817
  19   1 H      0.860     0.215     1.033     1.592
  20   1 H      0.924     0.062     2.175     2.306
  21   1 H      0.924     0.050     2.325     2.385
  22   1 H      0.925     0.050     2.315     2.379
  23   1 H      0.925     0.040     2.454     2.450
  24   1 H      0.925     0.049     2.337     2.391
  25   1 H      0.925     0.056     2.241     2.341
  26   1 H      0.925     0.051     2.304     2.374
  27   1 H      0.925     0.041     2.431     2.438
  28   7 N      2.759    -0.084    22.866     7.102
  29   6 C      3.833     0.022    20.182     6.392
  30   6 C      2.754     0.282    22.232     7.721
  31   8 O      0.858    -0.479    23.316     6.474
  32   6 C      3.833    -0.068    21.782     6.640
  33   6 C      3.832    -0.070    21.809     6.644
  34   6 C      3.768    -0.008    20.764     6.494
  35   1 H      0.924     0.051     2.311     2.377
  36   1 H      0.924     0.059     2.207     2.323
  37   1 H      0.925     0.065     2.140     2.287
  38   1 H      0.925     0.073     2.051     2.240
  39   1 H      0.925     0.061     2.188     2.313
  40   1 H      0.924     0.065     2.137     2.286
  41   1 H      0.924     0.066     2.132     2.283
  42   7 N      2.692    -0.170    24.686     7.379
  43   6 C      3.790     0.026    20.152     6.393
  44   6 C      2.769     0.196    23.813     7.992
  45   8 O      0.856    -0.366    21.018     6.147
  46   6 C      3.812    -0.070    21.829     6.650
  47   6 C      3.850    -0.006    20.654     6.464
  48   6 C      3.758    -0.116    22.768     6.803
  49   6 C      3.756    -0.114    22.732     6.798
  50   1 H      0.860     0.208     1.068     1.619
  51   1 H      0.924     0.095     1.835     2.119
  52   1 H      0.924     0.055     2.264     2.353
  53   1 H      0.924     0.063     2.163     2.300
  54   1 H      0.924     0.039     2.465     2.455
  55   1 H      0.925     0.045     2.377     2.411
  56   1 H      0.925     0.038     2.478     2.462
  57   1 H      0.925     0.046     2.368     2.406
  58   1 H      0.925     0.041     2.431     2.438
  59   1 H      0.925     0.044     2.402     2.423
  60   1 H      0.925     0.041     2.437     2.441
  61   1 H      0.862     0.191     1.151     1.681
  62   1 H      0.930     0.085     1.932     2.173

 Mol. C6AA /au·bohr⁶  :      32678.801254
 Mol. C8AA /au·bohr⁸  :     713818.357215
 Mol. α(0) /au        :        268.246621


Wiberg/Mayer (AO) data.
largest (>0.10) Wiberg bond orders for each atom
          total WBO             WBO to atom ...
     1  N   3.000        C    2 1.026    H   61 0.951    H    7 0.951
     2  C   3.985        N    1 1.026    C    5 0.959    H    8 0.951    C    3 0.943
     3  C   3.947        O    4 1.618    N   12 1.311    C    2 0.943
     4  O   1.929        C    3 1.618    N   12 0.193
     5  C   3.956        O    6 1.004    H    9 0.972    H   10 0.966    C    2 0.959
     6  O   1.936        C    5 1.004    H   11 0.869
     7  H   0.973        N    1 0.951
     8  H   0.997        C    2 0.951
     9  H   0.998        C    5 0.972
    10  H   0.998        C    5 0.966
    11  H   0.892        O    6 0.869
    12  N   3.472        C    3 1.311    C   13 0.977    H   19 0.917    O    4 0.193
    13  C   3.963        N   12 0.977    C   16 0.963    H   20 0.949    C   14 0.938
    14  C   3.949        O   15 1.615    N   28 1.294    C   13 0.938
    15  O   1.937        C   14 1.615    N   28 0.192
    16  C   3.989        C   17 1.011    C   18 1.008    H   21 0.964    C   13 0.963
    17  C   3.994        C   16 1.011    H   22 0.984    H   23 0.983    H   24 0.982
    18  C   3.992        C   16 1.008    H   27 0.985    H   25 0.984    H   26 0.982
    19  H   0.954        N   12 0.917
    20  H   0.996        C   13 0.949
    21  H   0.997        C   16 0.964
    22  H   0.997        C   17 0.984
    23  H   0.998        C   17 0.983
    24  H   0.998        C   17 0.982
    25  H   0.996        C   18 0.984
    26  H   0.997        C   18 0.982
    27  H   0.998        C   18 0.985
    28  N   3.517        C   14 1.294    C   34 0.974    C   29 0.972    O   15 0.192
    29  C   3.972        C   32 0.976    N   28 0.972    H   35 0.955    C   30 0.939
    30  C   3.950        O   31 1.646    N   42 1.288    C   29 0.939
    31  O   1.967        C   30 1.646    N   42 0.196
    32  C   3.989        C   33 1.004    C   29 0.976    H   37 0.976    H   36 0.976
    33  C   3.990        C   32 1.004    C   34 1.003    H   39 0.978    H   38 0.974
    34  C   3.963        C   33 1.003    N   28 0.974    H   41 0.964    H   40 0.964
    35  H   0.997        C   29 0.955
    36  H   0.996        C   32 0.976
    37  H   0.995        C   32 0.976
    38  H   0.994        C   33 0.974
    39  H   0.996        C   33 0.978
    40  H   0.996        C   34 0.964
    41  H   0.995        C   34 0.964
    42  N   3.466        C   30 1.288    C   43 0.987    H   50 0.923    O   31 0.196
    43  C   3.966        N   42 0.987    C   44 0.986    C   46 0.943    H   51 0.940
    44  C   3.901        O   45 1.891    C   43 0.986    H   62 0.952
    45  O   2.042        C   44 1.891
    46  C   3.983        C   47 0.989    H   52 0.973    H   53 0.970    C   43 0.943
    47  C   3.993        C   49 1.010    C   48 1.005    C   46 0.989    H   54 0.965
    48  C   3.993        C   47 1.005    H   56 0.986    H   57 0.986    H   55 0.985
    49  C   3.995        C   47 1.010    H   59 0.986    H   58 0.985    H   60 0.981
    50  H   0.957        N   42 0.923
    51  H   0.991        C   43 0.940
    52  H   0.997        C   46 0.973
    53  H   0.995        C   46 0.970
    54  H   0.998        C   47 0.965
    55  H   0.996        C   48 0.985
    56  H   0.999        C   48 0.986
    57  H   0.998        C   48 0.986
    58  H   0.998        C   49 0.985
    59  H   0.998        C   49 0.986
    60  H   0.998        C   49 0.981
    61  H   0.963        N    1 0.951
    62  H   0.992        C   44 0.952
 
molecular dipole:
                 x           y           z       tot (Debye)
 q only:       -0.635      -1.174       0.680
   full:       -0.121      -1.223       0.591       3.466
molecular quadrupole (traceless):
                xx          xy          yy          xz          yz          zz
 q only:      -13.757    -151.283    -126.541      16.999     -10.240     140.298
  q+dip:       48.020    -113.234    -154.169      33.903     -16.682     106.149
   full:       48.017    -113.734    -154.853      35.270     -17.050     106.836


           -------------------------------------------------
          | TOTAL ENERGY              -90.106772180305 Eh   |
          | GRADIENT NORM               0.225840462699 Eh/α |
          | HOMO-LUMO GAP               2.353667852293 eV   |
           -------------------------------------------------

------------------------------------------------------------------------
 * finished run on 2019/05/31 at 04:12:50.087     
------------------------------------------------------------------------
 total:
 * wall-time:     0 d,  0 h,  0 min,  0.218 sec
 *  cpu-time:     0 d,  0 h,  0 min,  0.151 sec
 * ratio c/w:     0.695 speedup
 SCF:
 * wall-time:     0 d,  0 h,  0 min,  0.124 sec
 *  cpu-time:     0 d,  0 h,  0 min,  0.121 sec
 * ratio c/w:     0.976 speedup

