      -----------------------------------------------------------      
     |                   =====================                   |     
     |                           x T B                           |     
     |                   =====================                   |     
     |                         S. Grimme                         |     
     |          Mulliken Center for Theoretical Chemistry        |     
     |                    University of Bonn                     |     
     |                Version 6.1 RC1 (SAW190329)                |     
      -----------------------------------------------------------      

   This program is distributed in the hope that it will be useful,
   but WITHOUT ANY WARRANTY; without even the implied warranty of
   MERCHANTABILITY or FITNESS FOR A PARTICULAR PURPOSE.
   
   FOR NON-COMMERCIAL, ACADEMIA USE ONLY.
   
   Cite this work as:
   S. Grimme, C. Bannwarth, P. Shushkov, J. Comput. Theory Chem., 2017,
   13, 1989-2009. DOI: 10.1021/acs.jctc.7b00118
   C. Bannwarth, S. Ehlert and S. Grimme., J. Comput. Theory Chem., 2019,
   just accepted. DOI: 10.1021/acs.jctc.8b01176
   
   for sTDA-xTB:
   S. Grimme and C. Bannwarth, J. Chem. Phys., 2016, 145, 054103.
   DOI: 10.1063/1.4959605
   
   in the mass-spec context:
   V. Asgeirsson, C. Bauer and S. Grimme, Chem. Sci., 2017, 8, 4879.
   DOI: 10.1039/c7sc00601b
   
   for metadynamics refer to:
   S. Grimme, ChemRxiv, Preprint. DOI: 10.26434/chemrxiv.7660532.v1
   
   with help from (in alphabetical order)
   C. Bannwarth, F. Bohle, G. Brandenburg, E. Caldeweyher, M. Checinski,
   S. Dohm, S. Ehlert, S. Ehrlich, F. März, H. Neugebauer, J. Pisarek,
   P. Pracht, P. Shushkov, and S. Spicher.
   
 * started run on 2019/05/31 at 05:35:21.312     

           -------------------------------------------------
          |                Calculation Setup                |
           -------------------------------------------------

          program call               : /home/lum/install/xtb/xtb-190329/bin/xtb xtb_tmp.xyz --chrg 1 --grad --gfn 2 --etemp 500 --acc 0.1 --gbsa h2o --parallel 2
          hostname                   : cpu02
          coordinate file            : xtb_tmp.xyz
          omp threads                :                     2
          number of atoms            :                   318
          number of electrons        :                   832
          charge                     :                     1
          spin                       :                   0.0
          first test random number   :      0.33316164432035


molecular fragmentation (1/2 indicates fragments):
111111111111111111111111111111111111111111111111111111111111111111111111
111111111111111222222222222222222222222222222222222222222222222222222222
222222222222222222222222222222222222222222222222222222222222222222222222
222222222222222222222222222222222222222222222222222222222222222222222222
222222222222222222112222222222
# atoms in fragment 1/2:    89   229
 fragment masses (1/2) :      646.67     1444.92
CMA distance (Bohr)    :  11.006
constraining FC (au)   :  0.0500

########################################################################
# WARNING! Please study the warnings concerning your input carefully
#  - XTBPATH is not set, using XTBHOME instead
#  - Process number higher than OMP_NUM_THREADS, I hope you know what you are doing.
########################################################################

           ------------------------------------------------- 
          |                 G F N 2 - x T B                 |
          | Geometry, Frequencies, Noncovalent interactions |
          |            JCTC 2018 parametrisation            |
           ------------------------------------------------- 
 
             k(s)              :                1.8500
             k(p)              :                2.2300
             k(d)              :                2.2300
             k(f)              :                2.0000
             kEN (H0ij)        :               -2.0000
             D4 a1             :                0.5200
             D4 a2             :                5.0000
             D4 s6             :                1.0000
             D4 s8             :                2.7000
             D4 s9             :                5.0000
             alphaj            :                2.0000

  Z AO/shell   Hii/eV     exponent
  1     Wed Apr 25 08:07:45 CEST 2018   EN: 2.200 GM2: 0.406  GM3: 0.0800  RAES: 1.40
     1s    -10.707211    1.230000
  6     Wed Apr 25 08:07:45 CEST 2018   EN: 2.550 GM2: 0.538  GM3: 0.1500  RAES: 3.00
     2s    -13.970922    2.096432
     2p    -10.063292    1.800000
  7     Wed Apr 25 08:07:45 CEST 2018   EN: 3.040 GM2: 0.461  GM3:-0.0640  RAES: 1.90
     2s    -16.686243    2.339881
     2p    -12.523956    2.014332
  8     Wed Apr 25 08:07:45 CEST 2018   EN: 3.440 GM2: 0.452  GM3:-0.0517  RAES: 1.80
     2s    -20.229985    2.439742
     2p    -15.503117    2.137023
 16     Tue Apr 24 11:44:34 CEST 2018   EN: 2.580 GM2: 0.340  GM3:-0.0502  RAES: 3.10
     3s    -20.029654    1.981333
     3p    -11.377694    2.025643
     3d     -0.420282    1.702555

 Solvent             : h2o
 Using internal parameter file: .param_gbsa2_h2o
 Gsolv ref. state (COSMO-RS): gsolv [1 M gas/solution]
 temperature (mdtemp)       :    298.150000000000     
 dielectric constant        :    80.2000000000000     
 rho                        :    1.00000000000000     
 mass                       :    18.0000000000000     
 surface tension            :    15.5689454083859     
 probe radius               :   0.975313790000000     
 vdW radii scaling          :    1.00000000000000     
 Gshift (Eh)                :   1.857443126794793E-003
 c1                         :    1.55243817000000     
 soset                      :   0.130326360000000     
 HB correction              :  T
 Number of grid points      :          230

            Z     q(EN)     CN     RAES       Cart. coordinates
     1  N   5.0   -0.69    3.00    1.93   343.45438   127.25602   172.13455
     2  C   4.0    0.08    3.98    3.59   346.04940   127.35892   171.29084
     3  C   4.0    0.30    3.01    3.02   347.63716   128.47180   173.42659
     4  O   6.0   -0.45    1.00    1.80   346.64648   129.48176   175.26211
     5  C   4.0   -0.01    3.98    3.59   346.23176   129.04984   168.91879
     6  O   6.0   -0.47    1.99    1.82   345.59914   131.57076   169.44396
     7  H   1.0    0.33    1.00    1.43   343.00737   128.51821   173.50400
     8  H   1.0    0.13    0.99    1.43   346.70972   125.45144   170.83405
     9  H   1.0    0.13    0.99    1.43   348.16047   129.05815   168.18478
    10  H   1.0    0.12    0.99    1.43   344.95633   128.25666   167.48726
    11  H   1.0    0.31    0.99    1.43   344.08011   131.59298   170.48537
    12  N   5.0   -0.47    3.01    1.93   350.13089   128.39303   173.06600
    13  C   4.0    0.08    4.00    3.62   351.88951   129.11396   175.02000
    14  C   4.0    0.28    3.01    3.02   354.45920   129.66610   173.82431
    15  O   6.0   -0.39    1.00    1.80   355.12320   128.71748   171.82764
    16  C   4.0   -0.09    3.98    3.59   352.16242   126.98952   176.97907
    17  C   4.0    0.32    3.00    3.02   353.13540   124.55990   175.72681
    18  O   6.0   -0.49    1.03    1.80   355.42617   124.02170   176.07858
    19  O   6.0   -0.44    1.00    1.80   351.64446   123.23113   174.49385
    20  H   1.0    0.27    1.00    1.43   350.87496   127.35497   171.64632
    21  H   1.0    0.14    0.99    1.43   351.16256   130.81462   175.94977
    22  H   1.0    0.10    0.99    1.43   353.47439   127.56400   178.44885
    23  H   1.0    0.12    0.99    1.43   350.31014   126.61905   177.80837
    24  N   5.0   -0.49    3.01    1.93   355.84387   131.27435   175.19968
    25  C   4.0    0.08    3.99    3.60   358.30326   132.22098   174.47148
    26  C   4.0    0.29    3.01    3.02   360.14301   131.87714   176.67053
    27  O   6.0   -0.44    1.00    1.80   359.58777   132.54447   178.81483
    28  C   4.0    0.05    3.98    3.58   358.11413   135.07708   173.77363
    29  O   6.0   -0.48    1.99    1.82   357.00689   136.51549   175.70404
    30  C   4.0   -0.20    3.98    3.59   356.69178   135.37717   171.27482
    31  H   1.0    0.28    1.00    1.43   355.09057   131.99623   176.81073
    32  H   1.0    0.13    0.99    1.43   358.91167   131.15267   172.81402
    33  H   1.0    0.13    0.99    1.43   360.04171   135.81289   173.57902
    34  H   1.0    0.30    0.99    1.43   355.43287   135.73003   176.25088
    35  H   1.0    0.12    0.99    1.43   356.57657   137.36787   170.79471
    36  H   1.0    0.11    0.99    1.43   357.67805   134.39184   169.76904
    37  H   1.0    0.14    0.99    1.43   354.79769   134.59470   171.43396
    38  N   5.0   -0.49    3.01    1.93   362.35006   130.78573   176.11675
    39  C   4.0    0.07    3.99    3.61   364.29992   130.46495   178.03382
    40  C   4.0    0.29    3.01    3.02   364.82752   133.04987   179.25449
    41  O   6.0   -0.39    1.00    1.80   365.24763   134.91531   177.95899
    42  C   4.0   -0.21    3.98    3.59   366.71154   129.45187   176.83690
    43  H   1.0    0.23    1.00    1.43   362.82247   130.39711   174.31218
    44  H   1.0    0.13    0.99    1.43   363.60737   129.16092   179.48598
    45  H   1.0    0.11    0.99    1.43   368.10607   129.09179   178.29979
    46  H   1.0    0.11    0.99    1.43   366.33627   127.69421   175.84329
    47  H   1.0    0.13    0.99    1.43   367.47589   130.83843   175.52583
    48  N   5.0   -0.49    3.01    1.93   364.84307   133.03798   181.78122
    49  C   4.0    0.07    3.99    3.61   365.18002   135.32380   183.25969
    50  C   4.0    0.27    3.01    3.02   367.41694   134.91384   185.05424
    51  O   6.0   -0.47    1.00    1.80   367.18820   133.82652   187.08757
    52  C   4.0   -0.20    3.98    3.59   362.78599   135.93457   184.74533
    53  H   1.0    0.29    1.00    1.43   364.39726   131.43628   182.75186
    54  H   1.0    0.14    0.99    1.43   365.61049   136.83255   181.91158
    55  H   1.0    0.10    0.99    1.43   362.99702   137.73654   185.70370
    56  H   1.0    0.13    0.99    1.43   361.18460   136.00819   183.46409
    57  H   1.0    0.13    0.99    1.43   362.46719   134.47218   186.15263
    58  N   5.0   -0.48    3.01    1.93   369.62553   135.78665   184.19944
    59  C   4.0    0.10    3.99    3.61   372.03063   135.45761   185.46450
    60  C   4.0    0.29    3.01    3.02   372.38933   137.39874   187.61647
    61  O   6.0   -0.37    1.00    1.80   374.08851   138.95993   187.64566
    62  C   4.0    0.05    3.98    3.58   374.15799   135.64482   183.48872
    63  O   6.0   -0.46    1.99    1.82   373.50177   137.62037   181.81340
    64  C   4.0   -0.21    3.98    3.59   374.49777   133.14311   182.08455
    65  H   1.0    0.28    1.00    1.43   369.75226   136.77189   182.56446
    66  H   1.0    0.12    0.99    1.43   372.06093   133.58897   186.36166
    67  H   1.0    0.13    0.99    1.43   375.90212   136.12611   184.50900
    68  H   1.0    0.26    0.99    1.43   374.91473   137.96431   180.71551
    69  H   1.0    0.11    0.99    1.43   375.98889   133.31392   180.68225
    70  H   1.0    0.10    0.99    1.43   375.01117   131.66063   183.40681
    71  H   1.0    0.13    0.99    1.43   372.75030   132.62846   181.13383
    72  N   5.0   -0.46    3.01    1.93   370.64572   137.17653   189.42882
    73  C   4.0    0.07    3.99    3.61   370.83161   138.57990   191.77798
    74  C   4.0    0.09    3.00    3.02   373.54804   138.28011   192.75313
    75  O   6.0   -0.37    1.00    1.80   374.60037   136.22042   192.78160
    76  C   4.0   -0.09    3.98    3.59   368.95446   137.54109   193.73791
    77  C   4.0   -0.23    3.98    3.59   369.14282   139.01923   196.21174
    78  C   4.0   -0.23    3.98    3.59   366.24480   137.65052   192.74727
    79  H   1.0    0.27    1.00    1.43   369.40311   135.71758   189.32897
    80  H   1.0    0.12    0.99    1.43   370.44570   140.58236   191.40767
    81  H   1.0    0.13    0.99    1.43   369.48563   135.57121   194.09445
    82  H   1.0    0.10    0.99    1.43   368.03676   138.08585   197.66934
    83  H   1.0    0.11    0.99    1.43   371.07929   139.13949   196.88645
    84  H   1.0    0.10    0.99    1.43   368.41227   140.92638   195.98103
    85  H   1.0    0.09    0.99    1.43   364.96930   136.96736   194.20422
    86  H   1.0    0.10    0.99    1.43   365.73700   139.59123   192.30656
    87  H   1.0    0.12    0.99    1.43   365.98952   136.49589   191.06749
    88  N   5.0   -0.72    3.00    1.92   373.16508   122.62442   201.49499
    89  C   4.0    0.06    3.98    3.58   370.55812   122.04626   202.12301
    90  C   4.0    0.06    3.00    3.02   370.28635   120.44913   204.50809
    91  O   6.0   -0.39    1.00    1.80   368.33929   119.25826   204.90793
    92  C   4.0   -0.10    3.99    3.60   369.12174   120.73551   199.96157
    93  C   4.0   -0.09    3.98    3.58   369.12775   122.19318   197.46478
    94  C   4.0   -0.22    3.99    3.60   367.40106   120.85219   195.57521
    95  C   4.0   -0.23    3.98    3.59   368.22718   124.90362   197.83971
    96  H   1.0    0.26    1.00    1.43   373.57725   124.49118   201.34118
    97  H   1.0    0.11    0.99    1.43   369.64981   123.85853   202.54079
    98  H   1.0    0.13    0.99    1.43   369.95911   118.87930   199.68255
    99  H   1.0    0.13    0.99    1.43   367.17821   120.48761   200.60015
   100  H   1.0    0.13    0.99    1.43   371.04801   122.23939   196.70169
   101  H   1.0    0.11    0.99    1.43   367.38079   121.87953   193.79897
   102  H   1.0    0.11    0.99    1.43   368.04444   118.94326   195.18521
   103  H   1.0    0.11    0.99    1.43   365.47894   120.76846   196.29633
   104  H   1.0    0.09    0.99    1.43   368.08032   125.83623   196.02263
   105  H   1.0    0.10    0.99    1.43   366.38292   124.91835   198.74350
   106  H   1.0    0.10    0.99    1.43   369.54149   125.99093   198.98417
   107  N   5.0   -0.70    3.00    1.93   363.85399   118.01887   189.39450
   108  C   4.0    0.07    3.98    3.58   364.78104   120.24093   188.08875
   109  C   4.0    0.28    3.01    3.02   363.05039   122.46980   188.75280
   110  O   6.0   -0.46    1.00    1.80   360.98540   122.09031   189.72790
   111  C   4.0   -0.02    3.98    3.58   364.75206   119.76201   185.19802
   112  O   6.0   -0.49    1.99    1.82   362.32729   119.22499   184.27661
   113  H   1.0    0.32    1.00    1.43   361.94592   117.84906   189.43775
   114  H   1.0    0.10    0.99    1.43   366.72910   120.59153   188.68217
   115  H   1.0    0.12    0.99    1.43   365.38606   121.44643   184.18798
   116  H   1.0    0.11    0.99    1.43   366.05471   118.19715   184.80308
   117  H   1.0    0.29    0.99    1.43   361.69677   117.68716   185.05758
   118  N   5.0   -0.50    3.00    1.93   363.92603   124.78364   188.23545
   119  C   4.0    0.08    4.00    3.62   362.44796   127.04394   188.70151
   120  C   4.0    0.27    3.01    3.02   361.70720   128.26665   186.19732
   121  O   6.0   -0.46    1.00    1.80   363.27316   128.59333   184.51232
   122  C   4.0   -0.08    3.98    3.59   363.90889   129.03722   190.24850
   123  C   4.0   -0.23    3.98    3.59   362.08556   131.10105   191.10606
   124  C   4.0   -0.22    3.98    3.59   365.18781   127.80415   192.51359
   125  H   1.0    0.24    1.00    1.43   365.58892   125.01708   187.33280
   126  H   1.0    0.15    0.99    1.43   360.76286   126.44608   189.73766
   127  H   1.0    0.15    0.99    1.43   365.35192   129.89130   189.03429
   128  H   1.0    0.09    0.99    1.43   363.10498   132.52369   192.17676
   129  H   1.0    0.12    0.99    1.43   361.20138   132.01529   189.49348
   130  H   1.0    0.10    0.99    1.43   360.60501   130.30822   192.29016
   131  H   1.0    0.09    0.99    1.43   366.09607   129.24056   193.66512
   132  H   1.0    0.10    0.99    1.43   363.80331   126.80223   193.65614
   133  H   1.0    0.11    0.99    1.43   366.61344   126.45964   191.89828
   134  N   5.0   -0.50    3.01    1.93   359.31267   129.03202   186.06987
   135  C   4.0    0.09    4.00    3.62   358.26102   130.19332   183.84347
   136  C   4.0    0.26    3.01    3.02   356.44208   132.32341   184.53266
   137  O   6.0   -0.47    1.00    1.80   355.31076   132.41284   186.54703
   138  C   4.0   -0.07    3.98    3.59   356.82967   128.24966   182.19145
   139  C   4.0   -0.19    3.98    3.59   358.60992   126.18605   181.25350
   140  C   4.0   -0.21    3.98    3.59   354.59520   127.10622   183.60929
   141  H   1.0    0.28    1.00    1.43   358.08645   128.60757   187.48112
   142  H   1.0    0.15    0.99    1.43   359.82214   130.96270   182.73003
   143  H   1.0    0.13    0.99    1.43   356.14060   129.30308   180.54913
   144  H   1.0    0.13    0.99    1.43   357.70525   125.11784   179.75199
   145  H   1.0    0.13    0.99    1.43   360.32737   127.01315   180.49448
   146  H   1.0    0.13    0.99    1.43   359.12278   124.90574   182.77587
   147  H   1.0    0.09    0.99    1.43   353.65007   125.70755   182.43924
   148  H   1.0    0.14    0.99    1.43   355.23117   126.19690   185.33889
   149  H   1.0    0.13    0.99    1.43   353.21532   128.54994   184.09348
   150  N   5.0   -0.50    3.02    1.93   356.18431   134.04198   182.69862
   151  C   4.0    0.06    3.99    3.60   354.26960   136.00130   182.62087
   152  C   4.0    0.28    3.01    3.02   352.28128   135.05344   180.74985
   153  O   6.0   -0.47    1.00    1.80   352.85859   134.32787   178.61119
   154  C   4.0   -0.14    3.98    3.59   355.54313   138.49501   181.87037
   155  C   4.0   -0.17    3.98    3.58   353.84588   140.82189   182.08606
   156  C   4.0   -0.13    3.98    3.59   351.95948   141.16756   179.92990
   157  C   4.0   -0.04    3.98    3.58   353.21752   141.77306   177.41359
   158  N   5.0   -0.71    3.98    2.80   351.27597   142.05885   175.41536
   159  H   1.0    0.29    1.00    1.43   357.16786   133.79090   181.07471
   160  H   1.0    0.12    0.99    1.43   353.42265   136.14395   184.50073
   161  H   1.0    0.11    0.99    1.43   357.13138   138.73303   183.16428
   162  H   1.0    0.14    0.99    1.43   356.30672   138.30390   179.96707
   163  H   1.0    0.10    0.99    1.43   352.78243   140.72854   183.84994
   164  H   1.0    0.10    0.99    1.43   355.05410   142.48835   182.17202
   165  H   1.0    0.16    0.99    1.43   350.81130   139.47392   179.72202
   166  H   1.0    0.12    0.99    1.43   350.69089   142.70495   180.45341
   167  H   1.0    0.11    0.99    1.43   354.27752   143.53484   177.54448
   168  H   1.0    0.13    0.99    1.43   354.50338   140.25115   176.88009
   169  H   1.0    0.25    1.00    1.43   352.11631   142.18157   173.67913
   170  H   1.0    0.30    1.00    1.43   350.02740   140.56472   175.42143
   171  H   1.0    0.24    0.99    1.43   350.18777   143.77002   175.62947
   172  N   5.0   -0.48    3.01    1.93   349.93769   134.91313   181.65276
   173  C   4.0    0.08    3.99    3.61   347.87192   133.81987   180.22921
   174  C   4.0    0.28    3.01    3.02   346.78458   135.73851   178.34516
   175  O   6.0   -0.40    1.00    1.80   346.98346   138.01731   178.69309
   176  C   4.0   -0.14    4.00    3.63   345.74362   133.00667   182.01134
   177  C   4.0   -0.13    3.98    3.58   346.57112   131.05779   183.96535
   178  S   6.0   -0.17    2.01    3.10   347.96324   128.20438   182.59358
   179  C   4.0   -0.19    3.98    3.58   345.24247   126.99725   180.89734
   180  H   1.0    0.23    1.00    1.43   349.57325   135.59466   183.40462
   181  H   1.0    0.14    0.99    1.43   348.59179   132.17532   179.19647
   182  H   1.0    0.12    0.99    1.43   345.05777   134.67830   183.01037
   183  H   1.0    0.12    0.99    1.43   344.20537   132.24367   180.86999
   184  H   1.0    0.13    0.99    1.43   348.02434   131.81649   185.21045
   185  H   1.0    0.11    0.99    1.43   344.95699   130.45098   185.09061
   186  H   1.0    0.13    0.99    1.43   345.61115   125.01365   180.52532
   187  H   1.0    0.11    0.99    1.43   343.57155   127.19158   182.06950
   188  H   1.0    0.14    0.99    1.43   345.03831   128.00140   179.11892
   189  N   5.0   -0.47    3.01    1.93   345.52549   134.73956   176.40403
   190  C   4.0    0.09    3.99    3.60   344.06634   136.26317   174.66360
   191  C   4.0    0.05    3.00    3.02   341.73797   134.74911   173.84651
   192  O   6.0   -0.44    1.00    1.80   341.90225   132.49684   173.31165
   193  C   4.0    0.00    3.98    3.58   345.55993   136.97111   172.27273
   194  O   6.0   -0.47    1.99    1.82   347.52528   138.66740   172.88483
   195  H   1.0    0.30    1.00    1.43   345.61818   132.85629   176.02741
   196  H   1.0    0.14    0.99    1.43   343.50214   137.99452   175.64543
   197  H   1.0    0.15    0.99    1.43   346.32767   135.24712   171.41832
   198  H   1.0    0.11    0.99    1.43   344.23578   137.85749   170.94411
   199  H   1.0    0.25    0.99    1.43   348.31596   139.16478   171.31593
   200  N   5.0   -0.69    3.00    1.93   351.04366   137.00263   191.49375
   201  C   4.0    0.07    3.99    3.60   352.74575   134.87726   191.36368
   202  C   4.0    0.28    3.01    3.02   351.35909   132.40507   191.90341
   203  O   6.0   -0.39    1.00    1.80   349.55710   132.23888   193.35379
   204  C   4.0   -0.14    3.99    3.60   354.87164   135.14311   193.31095
   205  C   4.0   -0.10    3.98    3.58   356.44241   137.56204   193.01957
   206  C   4.0   -0.24    3.98    3.59   358.39495   137.68096   195.14295
   207  C   4.0   -0.23    3.98    3.59   357.76026   137.68588   190.45772
   208  H   1.0    0.27    1.00    1.43   350.66099   137.65849   193.24252
   209  H   1.0    0.13    0.99    1.43   353.50635   134.78140   189.44730
   210  H   1.0    0.12    0.99    1.43   354.02397   135.10834   195.19645
   211  H   1.0    0.11    0.99    1.43   356.11687   133.50712   193.13558
   212  H   1.0    0.11    0.99    1.43   355.18445   139.19320   193.19953
   213  H   1.0    0.10    0.99    1.43   359.41625   139.46315   195.09382
   214  H   1.0    0.10    0.99    1.43   357.49639   137.48895   196.98306
   215  H   1.0    0.09    0.99    1.43   359.75652   136.15549   194.93624
   216  H   1.0    0.10    0.99    1.43   358.98484   139.33235   190.38247
   217  H   1.0    0.10    0.99    1.43   358.91078   136.00842   190.17052
   218  H   1.0    0.10    0.99    1.43   356.39445   137.81418   188.93226
   219  N   5.0   -0.49    3.01    1.93   352.34871   130.43222   190.68369
   220  C   4.0    0.07    4.00    3.61   351.65411   127.86509   191.23217
   221  C   4.0    0.26    3.02    3.02   354.05734   126.28489   191.29303
   222  O   6.0   -0.46    1.00    1.80   355.90151   126.80808   189.99063
   223  C   4.0   -0.20    3.98    3.59   349.84582   126.75407   189.26138
   224  H   1.0    0.29    1.00    1.43   353.77500   130.68273   189.42949
   225  H   1.0    0.13    0.99    1.43   350.71730   127.83725   193.07337
   226  H   1.0    0.10    0.99    1.43   349.40612   124.81282   189.76749
   227  H   1.0    0.12    0.99    1.43   348.10764   127.84714   189.24550
   228  H   1.0    0.11    0.99    1.43   350.67648   126.80087   187.38368
   229  N   5.0   -0.49    3.01    1.93   353.95893   124.33039   192.88179
   230  C   4.0    0.08    4.01    3.63   355.75924   122.27594   192.70773
   231  C   4.0    0.27    3.01    3.02   354.65353   120.40442   190.79635
   232  O   6.0   -0.43    1.00    1.80   352.50928   119.54210   191.04814
   233  C   4.0   -0.09    3.98    3.58   356.28785   121.05385   195.27605
   234  C   4.0   -0.21    3.99    3.60   358.14286   118.87814   194.91056
   235  C   4.0   -0.22    3.99    3.60   357.41515   123.01270   197.06280
   236  H   1.0    0.23    1.00    1.43   352.31688   124.03112   193.83375
   237  H   1.0    0.15    0.99    1.43   357.51285   123.05679   191.94818
   238  H   1.0    0.13    0.99    1.43   354.50848   120.33289   196.04877
   239  H   1.0    0.11    0.99    1.43   358.67883   118.09881   196.73300
   240  H   1.0    0.13    0.99    1.43   357.32300   117.37830   193.76867
   241  H   1.0    0.13    0.99    1.43   359.82150   119.58219   193.95544
   242  H   1.0    0.11    0.99    1.43   357.68453   122.19746   198.92556
   243  H   1.0    0.10    0.99    1.43   359.23386   123.63174   196.33855
   244  H   1.0    0.12    0.99    1.43   356.18462   124.64567   197.22060
   245  N   5.0   -0.48    3.01    1.93   356.12740   119.96573   188.80745
   246  C   4.0    0.06    3.99    3.60   355.43396   118.34203   186.71617
   247  C   4.0    0.07    3.00    3.02   356.79692   115.81301   187.05543
   248  O   6.0   -0.44    1.00    1.80   359.09553   115.71169   187.34485
   249  C   4.0   -0.14    3.99    3.60   356.19147   119.55416   184.20888
   250  C   4.0   -0.17    3.98    3.59   355.37070   117.96837   181.94256
   251  C   4.0   -0.15    3.98    3.59   356.46582   119.11105   179.53474
   252  C   4.0   -0.05    3.98    3.58   355.34426   117.95625   177.15184
   253  N   5.0   -0.70    3.96    2.77   356.33639   119.32940   174.92242
   254  H   1.0    0.29    1.00    1.43   357.93021   120.63600   188.82502
   255  H   1.0    0.12    0.99    1.43   353.39314   118.03801   186.77632
   256  H   1.0    0.10    0.99    1.43   355.31176   121.41312   184.08558
   257  H   1.0    0.15    0.99    1.43   358.23699   119.79823   184.16349
   258  H   1.0    0.12    0.99    1.43   356.01517   116.01916   182.13782
   259  H   1.0    0.11    0.99    1.43   353.31011   117.90221   181.83756
   260  H   1.0    0.12    0.99    1.43   356.06781   121.13260   179.52497
   261  H   1.0    0.12    0.99    1.43   358.51134   118.86551   179.55506
   262  H   1.0    0.11    0.99    1.43   355.75490   115.93874   177.03619
   263  H   1.0    0.13    0.99    1.43   353.29297   118.16233   177.17846
   264  H   1.0    0.27    1.00    1.43   355.40294   118.80598   173.31546
   265  H   1.0    0.33    1.01    1.43   356.01703   121.40221   175.25873
   266  H   1.0    0.25    1.00    1.43   358.23200   119.01392   174.71457
   267  N   5.0   -0.68    3.00    1.93   346.27965   116.37762   187.45324
   268  C   4.0    0.07    3.98    3.58   346.97722   118.85408   188.37870
   269  C   4.0    0.08    3.00    3.02   345.82364   119.25106   191.00349
   270  O   6.0   -0.37    1.00    1.80   343.60484   118.72136   191.41446
   271  C   4.0   -0.13    3.99    3.60   345.90579   120.94076   186.64097
   272  C   4.0   -0.04    3.03    3.02   346.62615   120.58124   183.91880
   273  C   4.0   -0.11    3.03    3.02   345.05408   119.23894   182.29596
   274  C   4.0   -0.11    3.03    3.02   348.84805   121.58700   182.95589
   275  C   4.0   -0.07    3.03    3.02   345.64318   118.95015   179.77411
   276  C   4.0   -0.11    3.03    3.02   349.44957   121.32571   180.42620
   277  C   4.0    0.11    3.03    3.02   347.84137   120.02683   178.79974
   278  O   6.0   -0.45    1.99    1.83   348.31579   119.75871   176.29285
   279  H   1.0    0.29    1.00    1.43   344.41397   115.97210   187.47101
   280  H   1.0    0.14    0.99    1.43   349.03827   118.92261   188.44728
   281  H   1.0    0.13    0.99    1.43   343.84927   120.88621   186.81119
   282  H   1.0    0.10    0.99    1.43   346.59566   122.76014   187.31820
   283  H   1.0    0.12    0.99    1.43   343.31692   118.42239   182.99220
   284  H   1.0    0.11    1.00    1.43   350.10606   122.62239   184.18267
   285  H   1.0    0.14    1.00    1.43   344.43619   117.87370   178.53345
   286  H   1.0    0.12    1.00    1.43   351.16844   122.14070   179.68793
   287  H   1.0    0.31    0.99    1.43   349.60717   120.96378   175.70102
   288  N   5.0   -0.69    3.00    1.93   364.96795   132.39954   206.00617
   289  C   4.0    0.07    3.98    3.59   362.58873   131.82567   204.78092
   290  C   4.0    0.07    3.00    3.02   361.40949   129.53370   206.07590
   291  O   6.0   -0.39    1.00    1.80   362.53031   127.53784   206.40860
   292  C   4.0   -0.09    3.98    3.58   362.93262   131.44989   201.90552
   293  C   4.0   -0.16    3.98    3.59   360.39071   130.72862   200.72136
   294  C   4.0   -0.21    3.98    3.59   364.99718   129.52177   201.35124
   295  C   4.0   -0.24    3.98    3.59   360.44894   130.78875   197.84274
   296  H   1.0    0.29    1.00    1.43   366.04605   130.92861   206.56004
   297  H   1.0    0.11    0.99    1.43   361.35805   133.45950   205.08954
   298  H   1.0    0.10    0.99    1.43   363.53382   133.28270   201.14911
   299  H   1.0    0.12    0.99    1.43   359.86071   128.84331   201.37370
   300  H   1.0    0.10    0.99    1.43   358.96295   132.05265   201.40930
   301  H   1.0    0.09    0.99    1.43   365.17494   129.22819   199.33145
   302  H   1.0    0.10    0.99    1.43   366.80977   130.19485   202.05090
   303  H   1.0    0.13    0.99    1.43   364.57080   127.73504   202.27064
   304  H   1.0    0.10    0.99    1.43   358.55489   130.53634   197.09594
   305  H   1.0    0.09    0.99    1.43   361.17987   132.59388   197.19402
   306  H   1.0    0.09    0.99    1.43   361.64516   129.29544   197.10690
   307  H   1.0    0.31    1.00    1.43   342.41803   127.56750   170.82248
   308  H   1.0    0.13    1.00    1.43   374.49734   139.78753   193.38367
   309  H   1.0    0.31    1.00    1.43   374.19084   122.00235   202.70056
   310  H   1.0    0.14    1.00    1.43   371.70167   120.36859   205.75767
   311  H   1.0    0.31    1.00    1.43   364.45244   116.62136   188.63202
   312  H   1.0    0.13    1.00    1.43   340.05067   135.59359   173.74207
   313  H   1.0    0.28    1.00    1.43   351.70346   138.31195   190.63183
   314  H   1.0    0.13    1.00    1.43   355.81236   114.20006   187.04393
   315  H   1.0    0.30    1.00    1.43   346.78248   116.21321   185.83685
   316  H   1.0    0.14    1.00    1.43   346.88183   119.94915   192.40491
   317  H   1.0    0.29    1.00    1.43   365.94726   133.30330   204.94942
   318  H   1.0    0.13    1.00    1.43   359.62916   129.61554   206.70423

           ------------------------------------------------- 
          |        Self-Consistent Charge Iterations        |
           ------------------------------------------------- 

          ...................................................
          :                      SETUP                      :
          :.................................................:
          :  # basis functions                 759          :
          :  # atomic orbitals                 758          :
          :  # shells                          464          :
          :  # electrons                       832          :
          :  max. iterations                   250          :
          :  Hamiltonian                  GFN2-xTB          :
          :  restarted?                      false          :
          :  GBSA solvation                   true          :
          :  PC potential                    false          :
          :  electronic temp.          500.0000000     K    :
          :  accuracy                    0.1000000          :
          :  -> integral cutoff          0.3500000E+02      :
          :  -> integral neglect         0.1000000E-08      :
          :  -> SCF convergence          0.1000000E-06 Eh   :
          :  -> wf. convergence          0.1000000E-04 e    :
          :  Broyden damping             0.4000000          :
          ...................................................

 iter      E             dE          RMSdq      gap      omega  full diag
   1   -475.2911872 -0.475291E+03  0.416E+00    2.21       0.0  T
   2   -476.4677332 -0.117655E+01  0.213E+00    1.29       1.0  T
   3   -476.5059410 -0.382078E-01  0.115E+00    1.52       1.0  T
   4   -476.5255010 -0.195601E-01  0.276E-01    0.91       1.0  T
   5   -476.5379356 -0.124346E-01  0.109E-01    1.10       1.0  T
   6   -476.5383707 -0.435048E-03  0.498E-02    1.09       1.0  T
   7   -476.5384230 -0.523261E-04  0.219E-02    1.11       1.0  T
   8   -476.5384654 -0.424224E-04  0.919E-03    1.11       1.0  T
   9   -476.5384692 -0.374415E-05  0.473E-03    1.11       1.2  T
  10   -476.5384703 -0.111170E-05  0.203E-03    1.11       2.8  T
  11   -476.5384704 -0.137926E-06  0.898E-04    1.11       6.2  T
  12   -476.5384705 -0.385771E-07  0.445E-04    1.11      12.6  T
  13   -476.5384705 -0.121896E-07  0.204E-04    1.11      27.5  T
  14   -476.5384705 -0.220626E-08  0.916E-05    1.11      61.2  T
  15   -476.5384705 -0.619082E-09  0.369E-05    1.11     152.2  T

   *** convergence criteria satisfied after 15 iterations ***

         #    Occupation            Energy/Eh            Energy/eV
      -------------------------------------------------------------
         1        2.0000           -0.7516060             -20.4522
       ...           ...                  ...                  ...
       410        2.0000           -0.3711109             -10.0984
       411        2.0000           -0.3710707             -10.0973
       412        2.0000           -0.3678445             -10.0096
       413        2.0000           -0.3654368              -9.9440
       414        2.0000           -0.3629062              -9.8752
       415        2.0000           -0.3587229              -9.7613
       416        2.0000           -0.3559041              -9.6846 (HOMO)
       417        0.0000           -0.3151243              -8.5750 (LUMO)
       418                         -0.3019371              -8.2161
       419                         -0.2862756              -7.7900
       420                         -0.2837055              -7.7200
       421                         -0.2832584              -7.7079
       ...                                ...                  ...
       758                          0.6597978              17.9540
      -------------------------------------------------------------
                  HL-Gap            0.0407798 Eh            1.1097 eV
             Fermi-level           -0.3353808 Eh           -9.1262 eV

 SCC (total)                   0 d,  0 h,  0 min,  3.748 sec
 SCC setup                      ...        0 min,  0.067 sec (  1.798%)
 Dispersion                     ...        0 min,  0.048 sec (  1.268%)
 integral evaluation            ...        0 min,  0.183 sec (  4.882%)
 zeroth order Hamiltonian       ...        0 min,  0.003 sec (  0.069%)
 iterations                     ...        0 min,  2.839 sec ( 75.742%)
 molecular gradient             ...        0 min,  0.593 sec ( 15.818%)
 printout                       ...        0 min,  0.016 sec (  0.421%)

         :::::::::::::::::::::::::::::::::::::::::::::::::::::
         ::                     SUMMARY                     ::
         :::::::::::::::::::::::::::::::::::::::::::::::::::::
         :: total energy             -470.814595942760 Eh   ::
         :: total w/o Gsasa/hb       -470.760914978063 Eh   ::
         :: gradient norm               0.550026698452 Eh/α ::
         :: HOMO-LUMO gap               1.109674277818 eV   ::
         ::.................................................::
         :: SCC energy               -476.552127608284 Eh   ::
         :: -> isotropic ES             1.219477291597 Eh   ::
         :: -> anisotropic ES          -0.045490332326 Eh   ::
         :: -> anisotropic XC           0.155976536400 Eh   ::
         :: -> dispersion              -0.395768283069 Eh   ::
         :: -> Gsolv                   -0.234386002623 Eh   ::
         ::    -> Gborn                -0.180705037927 Eh   ::
         ::    -> Gsasa                -0.015514565217 Eh   ::
         ::    -> Ghb                  -0.040023842606 Eh   ::
         ::    -> Gshift                0.001857443127 Eh   ::
         :: repulsion energy            5.698001163069 Eh   ::
         :: add. restraining            0.000000000000 Eh   ::
         :::::::::::::::::::::::::::::::::::::::::::::::::::::

           -------------------------------------------------
          |                Property Printout                |
           -------------------------------------------------

    * Orbital Energies and Occupations

         #    Occupation            Energy/Eh            Energy/eV
      -------------------------------------------------------------
         1        2.0000           -0.7516060             -20.4522
       ...           ...                  ...                  ...
       404        2.0000           -0.3964087             -10.7868
       405        2.0000           -0.3943099             -10.7297
       406        2.0000           -0.3935811             -10.7099
       407        2.0000           -0.3930849             -10.6964
       408        2.0000           -0.3911535             -10.6438
       409        2.0000           -0.3828958             -10.4191
       410        2.0000           -0.3711109             -10.0984
       411        2.0000           -0.3710707             -10.0973
       412        2.0000           -0.3678445             -10.0096
       413        2.0000           -0.3654368              -9.9440
       414        2.0000           -0.3629062              -9.8752
       415        2.0000           -0.3587229              -9.7613
       416        2.0000           -0.3559041              -9.6846 (HOMO)
       417        0.0000           -0.3151243              -8.5750 (LUMO)
       418                         -0.3019371              -8.2161
       419                         -0.2862756              -7.7900
       420                         -0.2837055              -7.7200
       421                         -0.2832584              -7.7079
       422                         -0.2788223              -7.5871
       423                         -0.2421284              -6.5886
       424                         -0.2364410              -6.4339
       425                         -0.2348909              -6.3917
       426                         -0.2341434              -6.3714
       427                         -0.2336681              -6.3584
       ...                                ...                  ...
       758                          0.6597978              17.9540
      -------------------------------------------------------------
                  HL-Gap            0.0407798 Eh            1.1097 eV
             Fermi-level           -0.3353808 Eh           -9.1262 eV

   #   Z        covCN         q      C6AA      α(0)
   1   7 N      2.639    -0.399    30.350     8.182
   2   6 C      3.785     0.020    20.248     6.409
   3   6 C      2.761     0.281    22.251     7.725
   4   8 O      0.858    -0.475    23.243     6.464
   5   6 C      3.678     0.072    19.591     6.341
   6   8 O      1.654    -0.472    22.302     6.375
   7   1 H      0.860     0.181     1.208     1.722
   8   1 H      0.924     0.043     2.408     2.427
   9   1 H      0.924     0.044     2.393     2.419
  10   1 H      0.923     0.031     2.572     2.508
  11   1 H      0.804     0.322     0.657     1.274
  12   7 N      2.693    -0.167    24.614     7.368
  13   6 C      3.803     0.031    20.060     6.377
  14   6 C      2.755     0.275    22.346     7.741
  15   8 O      0.858    -0.488    23.518     6.502
  16   6 C      3.805    -0.100    22.411     6.739
  17   6 C      2.687     0.368    20.760     7.457
  18   8 O      0.883    -0.555    25.023     6.707
  19   8 O      0.856    -0.592    25.920     6.826
  20   1 H      0.860     0.197     1.123     1.660
  21   1 H      0.924     0.077     2.007     2.215
  22   1 H      0.925     0.058     2.227     2.334
  23   1 H      0.924     0.056     2.245     2.343
  24   7 N      2.693    -0.176    24.814     7.398
  25   6 C      3.791     0.002    20.554     6.456
  26   6 C      2.758     0.271    22.417     7.753
  27   8 O      0.859    -0.470    23.132     6.448
  28   6 C      3.725     0.110    18.870     6.203
  29   8 O      1.655    -0.459    22.032     6.336
  30   6 C      3.752    -0.139    23.246     6.875
  31   1 H      0.860     0.226     0.984     1.554
  32   1 H      0.924     0.070     2.084     2.258
  33   1 H      0.924     0.050     2.317     2.380
  34   1 H      0.804     0.332     0.632     1.249
  35   1 H      0.925     0.081     1.973     2.196
  36   1 H      0.925     0.047     2.360     2.402
  37   1 H      0.925     0.053     2.287     2.365
  38   7 N      2.691    -0.170    24.683     7.379
  39   6 C      3.795     0.022    20.206     6.401
  40   6 C      2.756     0.280    22.252     7.725
  41   8 O      0.858    -0.488    23.523     6.503
  42   6 C      3.757    -0.132    23.099     6.852
  43   1 H      0.860     0.216     1.030     1.590
  44   1 H      0.924     0.067     2.115     2.274
  45   1 H      0.925     0.066     2.133     2.284
  46   1 H      0.925     0.076     2.019     2.222
  47   1 H      0.925     0.069     2.099     2.266
  48   7 N      2.691    -0.185    25.005     7.427
  49   6 C      3.795     0.020    20.242     6.407
  50   6 C      2.754     0.264    22.546     7.775
  51   8 O      0.858    -0.468    23.080     6.441
  52   6 C      3.756    -0.125    22.947     6.830
  53   1 H      0.860     0.225     0.988     1.557
  54   1 H      0.924     0.075     2.033     2.230
  55   1 H      0.925     0.071     2.074     2.252
  56   1 H      0.925     0.067     2.122     2.278
  57   1 H      0.925     0.060     2.193     2.316
  58   7 N      2.691    -0.169    24.654     7.374
  59   6 C      3.794     0.011    20.393     6.431
  60   6 C      2.753     0.275    22.358     7.743
  61   8 O      0.858    -0.488    23.513     6.501
  62   6 C      3.727     0.117    18.768     6.185
  63   8 O      1.656    -0.481    22.486     6.401
  64   6 C      3.752    -0.139    23.239     6.875
  65   1 H      0.860     0.228     0.975     1.547
  66   1 H      0.924     0.073     2.048     2.238
  67   1 H      0.923     0.033     2.538     2.492
  68   1 H      0.805     0.345     0.601     1.218
  69   1 H      0.925     0.063     2.168     2.302
  70   1 H      0.925     0.054     2.266     2.354
  71   1 H      0.925     0.061     2.187     2.313
  72   7 N      2.694    -0.176    24.811     7.398
  73   6 C      3.795     0.026    20.148     6.392
  74   6 C      2.768     0.213    23.497     7.939
  75   8 O      0.856    -0.378    21.241     6.179
  76   6 C      3.853    -0.015    20.800     6.487
  77   6 C      3.756    -0.124    22.922     6.826
  78   6 C      3.756    -0.127    22.984     6.836
  79   1 H      0.860     0.232     0.957     1.532
  80   1 H      0.924     0.075     2.035     2.231
  81   1 H      0.924     0.055     2.263     2.353
  82   1 H      0.925     0.063     2.167     2.302
  83   1 H      0.925     0.034     2.534     2.489
  84   1 H      0.925     0.059     2.214     2.327
  85   1 H      0.925     0.064     2.155     2.296
  86   1 H      0.925     0.057     2.238     2.339
  87   1 H      0.925     0.058     2.222     2.331
  88   7 N      2.632    -0.381    29.862     8.116
  89   6 C      3.782     0.037    19.964     6.365
  90   6 C      2.766     0.193    23.880     8.003
  91   8 O      0.856    -0.397    21.624     6.235
  92   6 C      3.811    -0.067    21.771     6.642
  93   6 C      3.850    -0.012    20.760     6.481
  94   6 C      3.758    -0.114    22.725     6.796
  95   6 C      3.757    -0.120    22.861     6.817
  96   1 H      0.860     0.166     1.297     1.784
  97   1 H      0.924     0.073     2.054     2.241
  98   1 H      0.925     0.043     2.408     2.427
  99   1 H      0.924     0.055     2.259     2.350
 100   1 H      0.924     0.045     2.387     2.416
 101   1 H      0.925     0.040     2.449     2.447
 102   1 H      0.925     0.038     2.478     2.462
 103   1 H      0.925     0.040     2.447     2.446
 104   1 H      0.925     0.051     2.307     2.375
 105   1 H      0.925     0.041     2.436     2.441
 106   1 H      0.925     0.036     2.509     2.477
 107   7 N      2.637    -0.385    29.955     8.128
 108   6 C      3.782     0.015    20.349     6.426
 109   6 C      2.756     0.274    22.366     7.744
 110   8 O      0.859    -0.476    23.253     6.465
 111   6 C      3.676     0.069    19.640     6.349
 112   8 O      1.655    -0.468    22.206     6.361
 113   1 H      0.860     0.171     1.267     1.763
 114   1 H      0.924     0.048     2.343     2.394
 115   1 H      0.924     0.046     2.369     2.407
 116   1 H      0.924     0.030     2.582     2.513
 117   1 H      0.804     0.325     0.651     1.267
 118   7 N      2.688    -0.164    24.539     7.357
 119   6 C      3.802     0.010    20.402     6.431
 120   6 C      2.761     0.272    22.410     7.752
 121   8 O      0.858    -0.494    23.663     6.522
 122   6 C      3.855    -0.020    20.893     6.501
 123   6 C      3.757    -0.117    22.785     6.806
 124   6 C      3.756    -0.113    22.717     6.796
 125   1 H      0.860     0.201     1.103     1.645
 126   1 H      0.924     0.082     1.960     2.189
 127   1 H      0.924     0.058     2.220     2.330
 128   1 H      0.925     0.062     2.181     2.309
 129   1 H      0.925     0.034     2.528     2.487
 130   1 H      0.925     0.046     2.368     2.406
 131   1 H      0.925     0.055     2.253     2.347
 132   1 H      0.925     0.044     2.394     2.420
 133   1 H      0.925     0.038     2.469     2.457
 134   7 N      2.690    -0.162    24.511     7.353
 135   6 C      3.802     0.007    20.459     6.440
 136   6 C      2.753     0.268    22.483     7.764
 137   8 O      0.858    -0.478    23.293     6.471
 138   6 C      3.853    -0.010    20.717     6.474
 139   6 C      3.756    -0.117    22.800     6.808
 140   6 C      3.755    -0.116    22.768     6.804
 141   1 H      0.860     0.228     0.975     1.547
 142   1 H      0.924     0.088     1.900     2.155
 143   1 H      0.924     0.030     2.582     2.513
 144   1 H      0.925     0.062     2.176     2.307
 145   1 H      0.925     0.040     2.452     2.449
 146   1 H      0.925     0.043     2.405     2.425
 147   1 H      0.925     0.045     2.378     2.411
 148   1 H      0.925     0.052     2.299     2.371
 149   1 H      0.925     0.041     2.434     2.440
 150   7 N      2.701    -0.183    24.971     7.422
 151   6 C      3.792     0.014    20.341     6.423
 152   6 C      2.761     0.269    22.457     7.761
 153   8 O      0.858    -0.493    23.630     6.517
 154   6 C      3.805    -0.089    22.191     6.706
 155   6 C      3.802    -0.079    22.009     6.679
 156   6 C      3.803    -0.098    22.373     6.734
 157   6 C      3.731    -0.052    21.598     6.634
 158   7 N      3.478    -0.140    24.029     7.280
 159   1 H      0.860     0.230     0.964     1.538
 160   1 H      0.924     0.068     2.104     2.268
 161   1 H      0.924     0.067     2.121     2.278
 162   1 H      0.925     0.085     1.927     2.171
 163   1 H      0.924     0.056     2.248     2.345
 164   1 H      0.925     0.073     2.055     2.242
 165   1 H      0.925     0.074     2.045     2.236
 166   1 H      0.924     0.081     1.970     2.195
 167   1 H      0.924     0.118     1.629     1.996
 168   1 H      0.924     0.116     1.643     2.005
 169   1 H      0.859     0.291     0.741     1.349
 170   1 H      0.859     0.287     0.753     1.359
 171   1 H      0.852     0.301     0.710     1.321
 172   7 N      2.690    -0.147    24.182     7.303
 173   6 C      3.796     0.017    20.289     6.414
 174   6 C      2.757     0.268    22.478     7.764
 175   8 O      0.859    -0.454    22.780     6.399
 176   6 C      3.826    -0.073    21.875     6.655
 177   6 C      3.794    -0.019    20.913     6.512
 178  16 S      1.958    -0.213   150.150    20.624
 179   6 C      3.745    -0.057    21.664     6.640
 180   1 H      0.860     0.213     1.043     1.600
 181   1 H      0.924     0.081     1.966     2.193
 182   1 H      0.924     0.071     2.074     2.252
 183   1 H      0.924     0.062     2.180     2.309
 184   1 H      0.925     0.064     2.148     2.292
 185   1 H      0.925     0.056     2.250     2.346
 186   1 H      0.925     0.044     2.390     2.417
 187   1 H      0.925     0.050     2.324     2.384
 188   1 H      0.925     0.062     2.180     2.309
 189   7 N      2.690    -0.169    24.650     7.374
 190   6 C      3.791     0.019    20.263     6.411
 191   6 C      2.769     0.191    23.909     8.008
 192   8 O      0.856    -0.357    20.845     6.121
 193   6 C      3.678     0.066    19.678     6.355
 194   8 O      1.655    -0.462    22.097     6.346
 195   1 H      0.860     0.217     1.022     1.584
 196   1 H      0.924     0.112     1.677     2.025
 197   1 H      0.924     0.062     2.181     2.309
 198   1 H      0.924     0.049     2.332     2.388
 199   1 H      0.805     0.358     0.570     1.186
 200   7 N      2.636    -0.388    30.041     8.140
 201   6 C      3.790     0.023    20.205     6.402
 202   6 C      2.760     0.271    22.427     7.755
 203   8 O      0.858    -0.512    24.050     6.575
 204   6 C      3.812    -0.067    21.766     6.641
 205   6 C      3.849    -0.009    20.706     6.472
 206   6 C      3.757    -0.115    22.756     6.801
 207   6 C      3.756    -0.119    22.825     6.812
 208   1 H      0.860     0.151     1.394     1.849
 209   1 H      0.924     0.066     2.135     2.285
 210   1 H      0.924     0.024     2.668     2.554
 211   1 H      0.924     0.031     2.572     2.508
 212   1 H      0.924     0.030     2.587     2.515
 213   1 H      0.925     0.045     2.387     2.416
 214   1 H      0.925     0.031     2.575     2.510
 215   1 H      0.925     0.042     2.424     2.435
 216   1 H      0.925     0.049     2.332     2.388
 217   1 H      0.925     0.042     2.417     2.431
 218   1 H      0.925     0.040     2.452     2.449
 219   7 N      2.696    -0.186    25.033     7.431
 220   6 C      3.799     0.025    20.163     6.393
 221   6 C      2.764     0.266    22.515     7.771
 222   8 O      0.858    -0.471    23.142     6.450
 223   6 C      3.756    -0.120    22.844     6.815
 224   1 H      0.860     0.229     0.970     1.543
 225   1 H      0.924     0.059     2.209     2.324
 226   1 H      0.925     0.047     2.357     2.401
 227   1 H      0.925     0.064     2.156     2.296
 228   1 H      0.925     0.069     2.099     2.266
 229   7 N      2.696    -0.165    24.568     7.362
 230   6 C      3.808     0.008    20.432     6.434
 231   6 C      2.758     0.269    22.463     7.761
 232   8 O      0.858    -0.502    23.830     6.545
 233   6 C      3.852    -0.014    20.784     6.484
 234   6 C      3.759    -0.118    22.810     6.809
 235   6 C      3.759    -0.118    22.819     6.810
 236   1 H      0.860     0.196     1.124     1.661
 237   1 H      0.924     0.099     1.795     2.095
 238   1 H      0.924     0.040     2.451     2.448
 239   1 H      0.925     0.054     2.268     2.355
 240   1 H      0.925     0.027     2.632     2.537
 241   1 H      0.925     0.061     2.191     2.315
 242   1 H      0.925     0.050     2.318     2.381
 243   1 H      0.925     0.052     2.293     2.368
 244   1 H      0.925     0.044     2.394     2.420
 245   7 N      2.693    -0.174    24.761     7.390
 246   6 C      3.792     0.028    20.116     6.387
 247   6 C      2.768     0.200    23.750     7.981
 248   8 O      0.856    -0.357    20.841     6.121
 249   6 C      3.810    -0.082    22.047     6.684
 250   6 C      3.803    -0.070    21.841     6.654
 251   6 C      3.807    -0.087    22.162     6.702
 252   6 C      3.732    -0.026    21.132     6.562
 253   7 N      3.466    -0.197    25.258     7.464
 254   1 H      0.860     0.235     0.944     1.522
 255   1 H      0.924     0.077     2.010     2.217
 256   1 H      0.924     0.068     2.105     2.269
 257   1 H      0.924     0.086     1.920     2.167
 258   1 H      0.924     0.047     2.358     2.401
 259   1 H      0.924     0.051     2.313     2.378
 260   1 H      0.924     0.070     2.086     2.259
 261   1 H      0.924     0.076     2.023     2.225
 262   1 H      0.924     0.093     1.851     2.128
 263   1 H      0.924     0.085     1.928     2.172
 264   1 H      0.860     0.262     0.837     1.433
 265   1 H      0.866     0.305     0.697     1.308
 266   1 H      0.859     0.268     0.817     1.416
 267   7 N      2.636    -0.384    29.937     8.126
 268   6 C      3.782     0.040    19.920     6.358
 269   6 C      2.769     0.205    23.637     7.962
 270   8 O      0.856    -0.379    21.262     6.182
 271   6 C      3.813    -0.068    21.797     6.645
 272   6 C      2.968     0.001    27.992     8.678
 273   6 C      2.925    -0.042    29.053     8.839
 274   6 C      2.924    -0.041    29.016     8.834
 275   6 C      2.918    -0.064    29.589     8.920
 276   6 C      2.918    -0.072    29.802     8.952
 277   6 C      2.845     0.146    24.815     8.164
 278   8 O      1.657    -0.443    21.706     6.289
 279   1 H      0.860     0.158     1.345     1.817
 280   1 H      0.924     0.068     2.112     2.273
 281   1 H      0.924     0.046     2.370     2.407
 282   1 H      0.924     0.047     2.359     2.402
 283   1 H      0.926     0.036     2.509     2.477
 284   1 H      0.926     0.047     2.358     2.401
 285   1 H      0.926     0.042     2.422     2.434
 286   1 H      0.926     0.036     2.504     2.475
 287   1 H      0.802     0.340     0.614     1.231
 288   7 N      2.637    -0.386    29.994     8.134
 289   6 C      3.786     0.034    20.016     6.372
 290   6 C      2.766     0.207    23.615     7.958
 291   8 O      0.856    -0.383    21.342     6.194
 292   6 C      3.852    -0.021    20.921     6.506
 293   6 C      3.803    -0.061    21.679     6.629
 294   6 C      3.754    -0.110    22.653     6.787
 295   6 C      3.752    -0.109    22.637     6.785
 296   1 H      0.860     0.158     1.348     1.819
 297   1 H      0.924     0.050     2.314     2.379
 298   1 H      0.924     0.048     2.340     2.392
 299   1 H      0.924     0.026     2.650     2.546
 300   1 H      0.924     0.032     2.556     2.500
 301   1 H      0.925     0.058     2.220     2.330
 302   1 H      0.925     0.037     2.487     2.466
 303   1 H      0.925     0.039     2.464     2.455
 304   1 H      0.925     0.036     2.509     2.477
 305   1 H      0.925     0.049     2.330     2.387
 306   1 H      0.925     0.049     2.333     2.389
 307   1 H      0.862     0.182     1.204     1.719
 308   1 H      0.930     0.069     2.091     2.261
 309   1 H      0.862     0.174     1.250     1.751
 310   1 H      0.930     0.057     2.229     2.335
 311   1 H      0.862     0.179     1.218     1.729
 312   1 H      0.930     0.097     1.812     2.105
 313   1 H      0.862     0.185     1.187     1.707
 314   1 H      0.930     0.079     1.984     2.203
 315   1 H      0.862     0.185     1.187     1.706
 316   1 H      0.930     0.063     2.162     2.299
 317   1 H      0.862     0.189     1.163     1.689
 318   1 H      0.930     0.058     2.220     2.330

 Mol. C6AA /au·bohr⁶  :     878415.037539
 Mol. C8AA /au·bohr⁸  :   19463008.221920
 Mol. α(0) /au        :       1399.287077


Wiberg/Mayer (AO) data.
largest (>0.10) Wiberg bond orders for each atom
          total WBO             WBO to atom ...
     1  N   2.995        C    2 1.029    H  307 0.951    H    7 0.935
     2  C   3.989        N    1 1.029    C    5 0.956    H    8 0.950    C    3 0.950
     3  C   3.945        O    4 1.608    N   12 1.307    C    2 0.950
     4  O   1.966        C    3 1.608    N   12 0.184
     5  C   3.960        O    6 1.008    H    9 0.971    H   10 0.964    C    2 0.956
     6  O   1.945        C    5 1.008    H   11 0.851
     7  H   0.967        N    1 0.935
     8  H   0.998        C    2 0.950
     9  H   0.997        C    5 0.971
    10  H   0.999        C    5 0.964
    11  H   0.896        O    6 0.851
    12  N   3.474        C    3 1.307    C   13 0.986    H   20 0.923    O    4 0.184
    13  C   3.966        N   12 0.986    C   16 0.953    H   21 0.944    C   14 0.941
    14  C   3.952        O   15 1.639    N   24 1.300    C   13 0.941
    15  O   1.964        C   14 1.639    N   24 0.200
    16  C   3.986        H   23 0.963    H   22 0.962    C   13 0.953    C   17 0.944
    17  C   3.934        O   19 1.515    O   18 1.435    C   16 0.944
    18  O   1.969        C   17 1.435    O   19 0.203    H  265 0.183
    19  O   1.860        C   17 1.515    O   18 0.203
    20  H   0.961        N   12 0.923
    21  H   0.994        C   13 0.944
    22  H   0.996        C   16 0.962
    23  H   0.996        C   16 0.963
    24  N   3.472        C   14 1.300    C   25 0.986    H   31 0.888    O   15 0.200
    25  C   3.963        N   24 0.986    H   32 0.957    C   26 0.942    C   28 0.932
    26  C   3.952        O   27 1.613    N   38 1.314    C   25 0.942
    27  O   1.986        C   26 1.613    N   38 0.196
    28  C   3.961        O   29 1.012    C   30 0.996    H   33 0.961    C   25 0.932
    29  O   1.962        C   28 1.012    H   34 0.845
    30  C   3.990        C   28 0.996    H   36 0.985    H   37 0.984    H   35 0.980
    31  H   0.949        N   24 0.888
    32  H   0.995        C   25 0.957
    33  H   0.997        C   28 0.961
    34  H   0.890        O   29 0.845
    35  H   0.993        C   30 0.980
    36  H   0.998        C   30 0.985
    37  H   0.997        C   30 0.984
    38  N   3.478        C   26 1.314    C   39 0.972    H   43 0.921    O   27 0.196
    39  C   3.961        C   42 0.999    N   38 0.972    H   44 0.947    C   40 0.927
    40  C   3.951        O   41 1.638    N   48 1.307    C   39 0.927
    41  O   1.958        C   40 1.638    N   48 0.201
    42  C   3.984        C   39 0.999    H   47 0.982    H   45 0.981    H   46 0.978
    43  H   0.953        N   38 0.921
    44  H   0.995        C   39 0.947
    45  H   0.995        C   42 0.981
    46  H   0.994        C   42 0.978
    47  H   0.995        C   42 0.982
    48  N   3.473        C   40 1.307    C   49 0.974    H   53 0.883    O   41 0.201
    49  C   3.964        C   52 0.995    N   48 0.974    H   54 0.955    C   50 0.932
    50  C   3.947        O   51 1.618    N   58 1.312    C   49 0.932
    51  O   1.979        C   50 1.618    N   58 0.199
    52  C   3.986        C   49 0.995    H   55 0.981    H   56 0.980    H   57 0.979
    53  H   0.949        N   48 0.883
    54  H   0.994        C   49 0.955
    55  H   0.994        C   52 0.981
    56  H   0.995        C   52 0.980
    57  H   0.996        C   52 0.979
    58  N   3.484        C   50 1.312    C   59 0.987    H   65 0.906    O   51 0.199
    59  C   3.970        N   58 0.987    C   62 0.975    H   66 0.946    C   60 0.918
    60  C   3.949        O   61 1.639    N   72 1.315    C   59 0.918
    61  O   1.978        C   60 1.639    N   72 0.203
    62  C   3.956        C   64 0.999    O   63 0.992    C   59 0.975    H   67 0.960
    63  O   1.942        C   62 0.992    H   68 0.864
    64  C   3.990        C   62 0.999    H   71 0.984    H   70 0.984    H   69 0.983
    65  H   0.948        N   58 0.906
    66  H   0.995        C   59 0.946
    67  H   0.998        C   62 0.960
    68  H   0.881        O   63 0.864
    69  H   0.996        C   64 0.983
    70  H   0.997        C   64 0.984
    71  H   0.996        C   64 0.984
    72  N   3.470        C   60 1.315    C   73 0.975    H   79 0.883    O   61 0.203
    73  C   3.963        N   72 0.975    C   74 0.969    H   80 0.952    C   76 0.951
    74  C   3.897        O   75 1.890    C   73 0.969    H  308 0.955
    75  O   2.038        C   74 1.890
    76  C   3.983        C   77 1.007    C   78 1.007    H   81 0.965    C   73 0.951
    77  C   3.991        C   76 1.007    H   84 0.984    H   82 0.984    H   83 0.983
    78  C   3.990        C   76 1.007    H   86 0.984    H   85 0.979    H   87 0.977
    79  H   0.946        N   72 0.883
    80  H   0.994        C   73 0.952
    81  H   0.997        C   76 0.965
    82  H   0.996        C   77 0.984
    83  H   0.999        C   77 0.983
    84  H   0.997        C   77 0.984
    85  H   0.996        C   78 0.979
    86  H   0.997        C   78 0.984
    87  H   0.997        C   78 0.977
    88  N   3.008        C   89 1.016    H   96 0.959    H  309 0.955
    89  C   3.984        N   88 1.016    C   90 0.998    C   92 0.965    H   97 0.916
    90  C   3.903        O   91 1.860    C   89 0.998    H  310 0.953
    91  O   2.023        C   90 1.860
    92  C   3.989        C   93 0.995    H   98 0.976    H   99 0.971    C   89 0.965
    93  C   3.994        C   95 1.010    C   94 1.006    C   92 0.995    H  100 0.969
    94  C   3.995        C   93 1.006    H  102 0.987    H  103 0.986    H  101 0.984
    95  C   3.996        C   93 1.010    H  105 0.984    H  106 0.982    H  104 0.979
    96  H   0.972        N   88 0.959
    97  H   0.995        C   89 0.916
    98  H   0.998        C   92 0.976
    99  H   0.997        C   92 0.971
   100  H   0.998        C   93 0.969
   101  H   0.998        C   94 0.984
   102  H   0.999        C   94 0.987
   103  H   0.998        C   94 0.986
   104  H   0.997        C   95 0.979
   105  H   0.998        C   95 0.984
   106  H   0.999        C   95 0.982
   107  N   2.998        C  108 1.029    H  311 0.952    H  113 0.939
   108  C   3.988        N  107 1.029    H  114 0.952    C  111 0.949    C  109 0.948
   109  C   3.945        O  110 1.608    N  118 1.308    C  108 0.948
   110  O   1.981        C  109 1.608    N  118 0.189
   111  C   3.960        O  112 1.009    H  115 0.971    H  116 0.967    C  108 0.949
   112  O   1.955        C  111 1.009    H  117 0.861
   113  H   0.971        N  107 0.939
   114  H   0.997        C  108 0.952
   115  H   0.998        C  111 0.971
   116  H   0.999        C  111 0.967
   117  H   0.894        O  112 0.861
   118  N   3.482        C  109 1.308    C  119 0.979    H  125 0.928    O  110 0.189
   119  C   3.958        N  118 0.979    C  122 0.952    H  126 0.950    C  120 0.940
   120  C   3.950        O  121 1.591    N  134 1.330    C  119 0.940
   121  O   1.953        C  120 1.591    N  134 0.196
   122  C   3.987        C  123 1.008    C  124 1.006    H  127 0.963    C  119 0.952
   123  C   3.993        C  122 1.008    H  130 0.984    H  128 0.981    H  129 0.979
   124  C   3.994        C  122 1.006    H  132 0.984    H  133 0.982    H  131 0.981
   125  H   0.959        N  118 0.928
   126  H   0.993        C  119 0.950
   127  H   0.996        C  122 0.963
   128  H   0.995        C  123 0.981
   129  H   0.999        C  123 0.979
   130  H   0.998        C  123 0.984
   131  H   0.996        C  124 0.981
   132  H   0.998        C  124 0.984
   133  H   0.998        C  124 0.982
   134  N   3.499        C  120 1.330    C  135 0.990    H  141 0.895    O  121 0.196
   135  C   3.962        N  134 0.990    C  136 0.944    C  138 0.943    H  142 0.940
   136  C   3.953        O  137 1.615    N  150 1.311    C  135 0.944
   137  O   1.978        C  136 1.615    N  150 0.196
   138  C   3.990        C  140 1.010    C  139 1.008    H  143 0.955    C  135 0.943
   139  C   3.991        C  138 1.008    H  146 0.985    H  145 0.978    H  144 0.974
   140  C   3.994        C  138 1.010    H  149 0.980    H  147 0.979    H  148 0.979
   141  H   0.948        N  134 0.895
   142  H   0.992        C  135 0.940
   143  H   0.998        C  138 0.955
   144  H   0.995        C  139 0.974
   145  H   0.998        C  139 0.978
   146  H   0.998        C  139 0.985
   147  H   0.998        C  140 0.979
   148  H   0.997        C  140 0.979
   149  H   0.998        C  140 0.980
   150  N   3.472        C  136 1.311    C  151 0.972    H  159 0.885    O  137 0.196
   151  C   3.958        C  154 0.972    N  150 0.972    H  160 0.955    C  152 0.937
   152  C   3.944        O  153 1.582    N  172 1.329    C  151 0.937
   153  O   1.956        C  152 1.582    N  172 0.190
   154  C   3.980        C  155 1.007    C  151 0.972    H  161 0.969    H  162 0.963
   155  C   3.991        C  154 1.007    C  156 1.006    H  163 0.974    H  164 0.971
   156  C   3.987        C  157 1.011    C  155 1.006    H  166 0.970    H  165 0.959
   157  C   3.913        C  156 1.011    H  167 0.964    N  158 0.958    H  168 0.956
   158  N   3.667        C  157 0.958    H  169 0.902    H  171 0.892    H  170 0.888
   159  H   0.947        N  150 0.885
   160  H   0.995        C  151 0.955
   161  H   0.995        C  154 0.969
   162  H   0.993        C  154 0.963
   163  H   0.997        C  155 0.974
   164  H   0.994        C  155 0.971
   165  H   0.995        C  156 0.959
   166  H   0.993        C  156 0.970
   167  H   0.986        C  157 0.964
   168  H   0.986        C  157 0.956
   169  H   0.915        N  158 0.902
   170  H   0.918        N  158 0.888
   171  H   0.909        N  158 0.892
   172  N   3.504        C  152 1.329    C  173 0.986    H  180 0.919    O  153 0.190
   173  C   3.966        N  172 0.986    C  176 0.979    H  181 0.942    C  174 0.929
   174  C   3.956        O  175 1.644    N  189 1.299    C  173 0.929
   175  O   1.971        C  174 1.644    N  189 0.198
   176  C   3.990        C  177 1.010    C  173 0.979    H  183 0.970    H  182 0.964
   177  C   3.979        C  176 1.010    S  178 0.990    H  185 0.972    H  184 0.969
   178  S   2.096        C  179 1.008    C  177 0.990
   179  C   3.978        S  178 1.008    H  187 0.983    H  186 0.980    H  188 0.979
   180  H   0.954        N  172 0.919
   181  H   0.993        C  173 0.942
   182  H   0.995        C  176 0.964
   183  H   0.996        C  176 0.970
   184  H   0.996        C  177 0.969
   185  H   0.996        C  177 0.972
   186  H   0.998        C  179 0.980
   187  H   0.997        C  179 0.983
   188  H   0.996        C  179 0.979
   189  N   3.474        C  174 1.299    C  190 0.987    H  195 0.892    O  175 0.198
   190  C   3.966        N  189 0.987    C  191 0.978    C  193 0.947    H  196 0.947
   191  C   3.889        O  192 1.884    C  190 0.978    H  312 0.951
   192  O   2.063        C  191 1.884
   193  C   3.960        O  194 1.004    H  198 0.966    H  197 0.961    C  190 0.947
   194  O   1.935        C  193 1.004    H  199 0.858
   195  H   0.953        N  189 0.892
   196  H   0.987        C  190 0.947
   197  H   0.996        C  193 0.961
   198  H   0.997        C  193 0.966
   199  H   0.872        O  194 0.858
   200  N   2.999        C  201 1.022    H  208 0.960    H  313 0.953
   201  C   3.983        N  200 1.022    C  204 0.965    H  209 0.948    C  202 0.943
   202  C   3.940        O  203 1.628    N  219 1.295    C  201 0.943
   203  O   1.934        C  202 1.628    N  219 0.193
   204  C   3.994        C  205 0.992    H  210 0.975    H  211 0.974    C  201 0.965
   205  C   3.995        C  207 1.010    C  206 1.007    C  204 0.992    H  212 0.967
   206  C   3.994        C  205 1.007    H  214 0.987    H  213 0.986    H  215 0.983
   207  C   3.995        C  205 1.010    H  216 0.985    H  217 0.984    H  218 0.983
   208  H   0.977        N  200 0.960
   209  H   0.996        C  201 0.948
   210  H   0.999        C  204 0.975
   211  H   0.999        C  204 0.974
   212  H   0.999        C  205 0.967
   213  H   0.997        C  206 0.986
   214  H   0.999        C  206 0.987
   215  H   0.998        C  206 0.983
   216  H   0.997        C  207 0.985
   217  H   0.998        C  207 0.984
   218  H   0.998        C  207 0.983
   219  N   3.460        C  202 1.295    C  220 0.995    H  224 0.889    O  203 0.193
   220  C   3.975        N  219 0.995    C  223 0.974    H  225 0.953    C  221 0.944
   221  C   3.950        O  222 1.620    N  229 1.304    C  220 0.944
   222  O   1.971        C  221 1.620    N  229 0.192
   223  C   3.987        H  227 0.981    H  226 0.980    H  228 0.979    C  220 0.974
   224  H   0.948        N  219 0.889
   225  H   0.996        C  220 0.953
   226  H   0.997        C  223 0.980
   227  H   0.995        C  223 0.981
   228  H   0.995        C  223 0.979
   229  N   3.477        C  221 1.304    C  230 0.970    H  236 0.927    O  222 0.192
   230  C   3.953        N  229 0.970    C  233 0.969    H  237 0.944    C  231 0.927
   231  C   3.949        O  232 1.619    N  245 1.318    C  230 0.927
   232  O   1.941        C  231 1.619    N  245 0.199
   233  C   3.991        C  235 1.007    C  234 1.007    C  230 0.969    H  238 0.967
   234  C   3.993        C  233 1.007    H  240 0.986    H  239 0.984    H  241 0.982
   235  C   3.993        C  233 1.007    H  243 0.985    H  244 0.985    H  242 0.984
   236  H   0.961        N  229 0.927
   237  H   0.990        C  230 0.944
   238  H   0.998        C  233 0.967
   239  H   0.997        C  234 0.984
   240  H   0.999        C  234 0.986
   241  H   0.996        C  234 0.982
   242  H   0.997        C  235 0.984
   243  H   0.997        C  235 0.985
   244  H   0.998        C  235 0.985
   245  N   3.483        C  231 1.318    C  246 0.974    H  254 0.878    O  232 0.199
   246  C   3.965        N  245 0.974    C  247 0.968    C  249 0.962    H  255 0.957
   247  C   3.893        O  248 1.888    C  246 0.968    H  314 0.954
   248  O   2.056        C  247 1.888
   249  C   3.980        C  250 1.005    H  256 0.967    C  246 0.962    H  257 0.960
   250  C   3.994        C  251 1.005    C  249 1.005    H  258 0.974    H  259 0.973
   251  C   3.987        C  252 1.009    C  250 1.005    H  261 0.972    H  260 0.963
   252  C   3.936        C  251 1.009    N  253 0.971    H  262 0.969    H  263 0.968
   253  N   3.609        C  252 0.971    H  264 0.918    H  266 0.915    H  265 0.702
   254  H   0.945        N  245 0.878
   255  H   0.994        C  246 0.957
   256  H   0.995        C  249 0.967
   257  H   0.993        C  249 0.960
   258  H   0.998        C  250 0.974
   259  H   0.997        C  250 0.973
   260  H   0.995        C  251 0.963
   261  H   0.994        C  251 0.972
   262  H   0.991        C  252 0.969
   263  H   0.993        C  252 0.968
   264  H   0.931        N  253 0.918
   265  H   0.907        N  253 0.702    O   18 0.183
   266  H   0.928        N  253 0.915
   267  N   3.000        C  268 1.019    H  279 0.956    H  315 0.947
   268  C   3.982        N  267 1.019    C  269 0.983    H  280 0.954    C  271 0.928
   269  C   3.893        O  270 1.889    C  268 0.983    H  316 0.956
   270  O   2.030        C  269 1.889
   271  C   3.992        C  272 1.011    H  281 0.972    H  282 0.967    C  268 0.928
   272  C   3.988        C  274 1.406    C  273 1.395    C  271 1.011
   273  C   3.991        C  275 1.464    C  272 1.395    H  283 0.968    C  276 0.102
   274  C   3.989        C  276 1.449    C  272 1.406    H  284 0.966    C  275 0.107
   275  C   3.987        C  273 1.464    C  277 1.356    H  285 0.969    C  274 0.107
   276  C   3.986        C  274 1.449    C  277 1.365    H  286 0.963    C  273 0.102
   277  C   3.939        C  276 1.365    C  275 1.356    O  278 1.086
   278  O   2.090        C  277 1.086    H  287 0.812
   279  H   0.975        N  267 0.956
   280  H   0.995        C  268 0.954
   281  H   0.997        C  271 0.972
   282  H   0.997        C  271 0.967
   283  H   0.999        C  273 0.968
   284  H   0.998        C  274 0.966
   285  H   0.998        C  275 0.969
   286  H   0.998        C  276 0.963
   287  H   0.885        O  278 0.812
   288  N   2.995        C  289 1.010    H  296 0.956    H  317 0.948
   289  C   3.983        N  288 1.010    C  290 0.987    H  297 0.960    C  292 0.936
   290  C   3.896        O  291 1.883    C  289 0.987    H  318 0.957
   291  O   2.032        C  290 1.883
   292  C   3.991        C  294 1.013    C  293 0.995    H  298 0.963    C  289 0.936
   293  C   3.997        C  295 1.019    C  292 0.995    H  300 0.977    H  299 0.975
   294  C   3.995        C  292 1.013    H  303 0.983    H  302 0.983    H  301 0.976
   295  C   3.995        C  293 1.019    H  304 0.986    H  305 0.982    H  306 0.982
   296  H   0.975        N  288 0.956
   297  H   0.997        C  289 0.960
   298  H   0.998        C  292 0.963
   299  H   0.999        C  293 0.975
   300  H   0.999        C  293 0.977
   301  H   0.997        C  294 0.976
   302  H   0.999        C  294 0.983
   303  H   0.998        C  294 0.983
   304  H   0.998        C  295 0.986
   305  H   0.997        C  295 0.982
   306  H   0.998        C  295 0.982
   307  H   0.967        N    1 0.951
   308  H   0.995        C   74 0.955
   309  H   0.970        N   88 0.955
   310  H   0.996        C   90 0.953
   311  H   0.967        N  107 0.952
   312  H   0.990        C  191 0.951
   313  H   0.965        N  200 0.953
   314  H   0.994        C  247 0.954
   315  H   0.966        N  267 0.947
   316  H   0.996        C  269 0.956
   317  H   0.964        N  288 0.948
   318  H   0.997        C  290 0.957
 
molecular dipole:
                 x           y           z       tot (Debye)
 q only:      356.007     141.364     171.128
   full:      355.598     140.625     170.456    1064.162
molecular quadrupole (traceless):
                xx          xy          yy          xz          yz          zz
 q only:   102156.691   75321.309  -57912.377   91451.535   36494.387  -44244.314
  q+dip:   102110.153   74846.180  -57873.461   90995.320   36165.879  -44236.692
   full:   102106.493   74843.827  -57872.399   90998.457   36165.076  -44234.094


           -------------------------------------------------
          | TOTAL ENERGY             -470.814595942760 Eh   |
          | GRADIENT NORM               0.550026698452 Eh/α |
          | HOMO-LUMO GAP               1.109674277818 eV   |
           -------------------------------------------------

------------------------------------------------------------------------
 * finished run on 2019/05/31 at 05:35:25.626     
------------------------------------------------------------------------
 total:
 * wall-time:     0 d,  0 h,  0 min,  4.313 sec
 *  cpu-time:     0 d,  0 h,  0 min,  7.412 sec
 * ratio c/w:     1.719 speedup
 SCF:
 * wall-time:     0 d,  0 h,  0 min,  3.749 sec
 *  cpu-time:     0 d,  0 h,  0 min,  6.765 sec
 * ratio c/w:     1.804 speedup

